-catch_rsh /opt/gridengine/default/spool/compute-0-1/active_jobs/35964.1/pe_hostfile
compute-0-1
The primary node assigned by SGE to this run is compute-0-1
Warning: no access to tty (Bad file descriptor).
Thus no job control in this shell.
source /home/sarom/dir.git.branch.saromleang-travis-ci/install.info
setenv GMS_PATH /home/sarom/dir.git.branch.saromleang-travis-ci
setenv GMS_BUILD_DIR /home/sarom/dir.git.branch.saromleang-travis-ci
setenv GMS_TARGET linux64
setenv GMS_FORTRAN gfortran
setenv GMS_GFORTRAN_VERNO 4.4
setenv GMS_MATHLIB mkl-so
setenv GMS_MATHLIB none
setenv GMS_MATHLIB_PATH /share/apps/intel/compilers_and_libraries_2017.1.132/linux/mkl/lib/intel64
setenv GMS_MKL_VERNO 12
setenv GMS_DDI_COMM sockets
setenv GMS_LIBCCHEM false
setenv GMS_EIGEN_PATH
setenv GMS_PHI false
setenv GMS_SHMTYPE sysv
setenv GMS_OPENMP false
unset echo
ecp-pbi2-ims
/home/sarom/dir.git.branch.saromleang-travis-ci/tests/ecp
----- GAMESS execution script 'rungms' -----
This job is running on host compute-0-1.local
under operating system Linux at Wed Aug 9 20:47:41 CDT 2017
Available scratch disk space (Kbyte units) at beginning of the job is
Filesystem           1K-blocks      Used Available Use% Mounted on
/dev/sda1             16126920   3965560  11342160  26% /
GAMESS temporary binary files will be written to /scratch
GAMESS supplementary output files will be written to /home/sarom/restart
Copying input file ecp-pbi2-ims.inp to your run's scratch directory...
cp /home/sarom/dir.git.branch.saromleang-travis-ci/tests/ecp/ecp-pbi2-ims.inp /scratch/ecp-pbi2-ims.F05
unset echo
The generated host list is
compute-0-1.local
/home/sarom/dir.git.branch.saromleang-travis-ci/ddikick.x /home/sarom/dir.git.branch.saromleang-travis-ci/gamess.00.x ecp-pbi2-ims -ddi 1 1 compute-0-1.local -scr /scratch

 Distributed Data Interface kickoff program.
 Initiating 1 compute processes on 1 nodes to run the following command:
 /home/sarom/dir.git.branch.saromleang-travis-ci/gamess.00.x ecp-pbi2-ims 

          ******************************************************
          *         GAMESS VERSION = 20 APR 2017 (R1)          *
          *             FROM IOWA STATE UNIVERSITY             *
          * M.W.SCHMIDT, K.K.BALDRIDGE, J.A.BOATZ, S.T.ELBERT, *
          *   M.S.GORDON, J.H.JENSEN, S.KOSEKI, N.MATSUNAGA,   *
          *          K.A.NGUYEN, S.J.SU, T.L.WINDUS,           *
          *       TOGETHER WITH M.DUPUIS, J.A.MONTGOMERY       *
          *         J.COMPUT.CHEM.  14, 1347-1363(1993)        *
          **************** 64 BIT LINUX VERSION ****************

  SINCE 1993, STUDENTS AND POSTDOCS WORKING AT IOWA STATE UNIVERSITY
  AND ALSO IN THEIR VARIOUS JOBS AFTER LEAVING ISU HAVE MADE IMPORTANT
  CONTRIBUTIONS TO THE CODE:
     IVANA ADAMOVIC, CHRISTINE AIKENS, YURI ALEXEEV, POOJA ARORA,
     ANDREY ASADCHEV, ROB BELL, PRADIPTA BANDYOPADHYAY, JONATHAN BENTZ,
     BRETT BODE, KURT BRORSEN, CALEB CARLIN, GALINA CHABAN, WEI CHEN,
     CHEOL HO CHOI, PAUL DAY, ALBERT DEFUSCO, NUWAN DESILVA, TIM DUDLEY,
     DMITRI FEDOROV, GRAHAM FLETCHER, MARK FREITAG, KURT GLAESEMANN,
     DAN KEMP, GRANT MERRILL, NORIYUKI MINEZAWA, JONATHAN MULLIN,
     TAKESHI NAGATA, SEAN NEDD, HEATHER NETZLOFF, BOSILJKA NJEGIC, RYAN OLSON,
     MIKE PAK, SPENCER PRUITT, LUKE ROSKOP, JIM SHOEMAKER, LYUDMILA SLIPCHENKO,
     TONY SMITH, SAROM SOK LEANG, JIE SONG, TETSUYA TAKETSUGU, SIMON WEBB,
     PENG XU, SOOHAENG YOO, FEDERICO ZAHARIEV

  ADDITIONAL CODE HAS BEEN PROVIDED BY COLLABORATORS IN OTHER GROUPS:
     IOWA STATE UNIVERSITY:
          JOE IVANIC, AARON WEST, LAIMUTIS BYTAUTAS, KLAUS RUEDENBERG
     UNIVERSITY OF TOKYO: KIMIHIKO HIRAO, TAKAHITO NAKAJIMA,
          TAKAO TSUNEDA, MUNEAKI KAMIYA, SUSUMU YANAGISAWA,
          KIYOSHI YAGI, MAHITO CHIBA, SEIKEN TOKURA, NAOAKI KAWAKAMI
     UNIVERSITY OF AARHUS: FRANK JENSEN
     UNIVERSITY OF IOWA: VISVALDAS KAIRYS, HUI LI
     NATIONAL INST. OF STANDARDS AND TECHNOLOGY: WALT STEVENS, DAVID GARMER
     UNIVERSITY OF PISA: BENEDETTA MENNUCCI, JACOPO TOMASI
     UNIVERSITY OF MEMPHIS: HENRY KURTZ, PRAKASHAN KORAMBATH
     UNIVERSITY OF ALBERTA: TOBY ZENG, MARIUSZ KLOBUKOWSKI
     UNIVERSITY OF NEW ENGLAND: MARK SPACKMAN
     MIE UNIVERSITY: HIROAKI UMEDA
     NAT. INST. OF ADVANCED INDUSTRIAL SCIENCE AND TECHNOLOGY: KAZUO KITAURA
     MICHIGAN STATE UNIVERSITY:
          KAROL KOWALSKI, MARTA WLOCH, JEFFREY GOUR, JESSE LUTZ,
          WEI LI, PIOTR PIECUCH
     UNIVERSITY OF SILESIA: MONIKA MUSIAL, STANISLAW KUCHARSKI
     FACULTES UNIVERSITAIRES NOTRE-DAME DE LA PAIX:
          OLIVIER QUINET, BENOIT CHAMPAGNE
     UNIVERSITY OF CALIFORNIA - SANTA BARBARA: BERNARD KIRTMAN
     INSTITUTE FOR MOLECULAR SCIENCE:
          KAZUYA ISHIMURA, MICHIO KATOUDA, AND SHIGERU NAGASE
     UNIVERSITY OF NOTRE DAME: ANNA POMOGAEVA, DAN CHIPMAN
     KYUSHU UNIVERSITY:
          HARUYUKI NAKANO,
          FENG LONG GU, JACEK KORCHOWIEC, MARCIN MAKOWSKI, AND YURIKO AOKI,
          HIROTOSHI MORI AND EISAKU MIYOSHI
     PENNSYLVANIA STATE UNIVERSITY:
          TZVETELIN IORDANOV, CHET SWALINA, JONATHAN SKONE,
          SHARON HAMMES-SCHIFFER
     WASEDA UNIVERSITY:
          MASATO KOBAYASHI, TOMOKO AKAMA, TSUGUKI TOUMA,
          TAKESHI YOSHIKAWA, YASUHIRO IKABATA, JUNJI SEINO,
          YUYA NAKAJIMA, HIROMI NAKAI
     NANJING UNIVERSITY: SHUHUA LI
     UNIVERSITY OF NEBRASKA:
          PEIFENG SU, DEJUN SI, NANDUN THELLAMUREGE, YALI WANG, HUI LI
     UNIVERSITY OF ZURICH: ROBERTO PEVERATI, KIM BALDRIDGE
     N. COPERNICUS UNIVERSITY AND JACKSON STATE UNIVERSITY:
          MARIA BARYSZ
     UNIVERSITY OF COPENHAGEN: Jimmy Kromann, CASPER STEINMANN
     TOKYO INSTITUTE OF TECHNOLOGY: HIROYA NAKATA
     NAGOYA UNIVERSITY: YOSHIO NISHIMOTO, STEPHAN IRLE
     MOSCOW STATE UNIVERSITY: VLADIMIR MIRONOV

 EXECUTION OF GAMESS BEGUN Wed Aug  9 20:47:41 2017

            ECHO OF THE FIRST FEW INPUT CARDS -
 INPUT CARD>!  test of MP2 gradient for an ECP basis set...yellow PbI2                      
 INPUT CARD>!                                                                               
 INPUT CARD>!  FINAL E= -25.9389456564, E(MP2)= -26.2010728692, RMS grad=0.000533522        
 INPUT CARD>!                                                                               
 INPUT CARD>!  This run takes a second on almost anything ( 9 Nov 2005)                     
 INPUT CARD>!                                                                               
 INPUT CARD> $contrl scftyp=rhf runtyp=gradient mplevl=2 pp=sbkjc nzvar=3 $end              
 INPUT CARD> $system mwords=1 $end                                                          
 INPUT CARD> $basis  gbasis=sbkjc ndfunc=1 $end                                             
 INPUT CARD> $guess  guess=huckel $end                                                      
 INPUT CARD> $zmat   izmat(1)=1,1,2,  1,1,3,  2,2,1,3 $end                                  
 INPUT CARD> $mp2    code=ims $end                                                          
 INPUT CARD> $data                                                                          
 INPUT CARD>PbI2                                                                            
 INPUT CARD>Cnv 2                                                                           
 INPUT CARD>                                                                                
 INPUT CARD>PB         82.0    .0000000000    .0000000000    .0060323984                    
 INPUT CARD>I          53.0   2.1641182880    .0000000000   1.7969838008                    
 INPUT CARD> $end                                                                           
    1000000 WORDS OF MEMORY AVAILABLE

     BASIS OPTIONS
     -------------
     GBASIS=SBKJC        IGAUSS=       0      POLAR=COMMON  
     NDFUNC=       1     NFFUNC=       0     DIFFSP=       F
     NPFUNC=       0      DIFFS=       F     BASNAM=        


     RUN TITLE
     ---------
 PbI2                                                                            

 THE POINT GROUP OF THE MOLECULE IS CNV     
 THE ORDER OF THE PRINCIPAL AXIS IS     2

 ATOM      ATOMIC                      COORDINATES (BOHR)
           CHARGE         X                   Y                   Z
 PB         82.0     0.0000000000        0.0000000000        0.0113995800
 I          53.0    -4.0895905693        0.0000000000        3.3958069879
 I          53.0     4.0895905693        0.0000000000        3.3958069879

          INTERNUCLEAR DISTANCES (ANGS.)
          ------------------------------

                1 PB         2 I          3 I     

   1 PB      0.0000000    2.8090772 *  2.8090772 *
   2 I       2.8090772 *  0.0000000    4.3282366  
   3 I       2.8090772 *  4.3282366    0.0000000  

  * ... LESS THAN  3.000


     ATOMIC BASIS SET
     ----------------
 THE CONTRACTED PRIMITIVE FUNCTIONS HAVE BEEN UNNORMALIZED
 THE CONTRACTED BASIS FUNCTIONS ARE NOW NORMALIZED TO UNITY

  SHELL TYPE  PRIMITIVE        EXPONENT          CONTRACTION COEFFICIENT(S)

 PB        

      1   L       1             1.5340000    0.225651851704    0.028256996857
      1   L       2             0.9923000   -0.658997566915   -0.140658984355
      1   L       3             0.2241000    0.766213496454    0.428131952379
      1   L       4             0.0966400    0.500933670793    0.663421926208

      2   L       5             0.0390000    1.000000000000    1.000000000000

      3   D       6             0.1640000    1.000000000000

 I         

      7   L       7             2.6250000    0.073659961641   -0.008880001403
      7   L       8             1.0140000   -0.836869564198   -0.257351040669
      7   L       9             0.5009000    0.656246658258    0.455368071961
      7   L      10             0.2023000    0.900743530935    0.760107120118

      8   L      11             0.0780000    1.000000000000    1.000000000000

      9   D      12             0.2660000    1.000000000000

 TOTAL NUMBER OF BASIS SET SHELLS             =    9
 NUMBER OF CARTESIAN GAUSSIAN BASIS FUNCTIONS =   42
 NUMBER OF ELECTRONS                          =  188
 CHARGE OF MOLECULE                           =    0
 SPIN MULTIPLICITY                            =    1
 NUMBER OF OCCUPIED ORBITALS (ALPHA)          =   94
 NUMBER OF OCCUPIED ORBITALS (BETA )          =   94
 TOTAL NUMBER OF ATOMS                        =    3
 THE NUCLEAR REPULSION ENERGY IS     1980.8420230011
 NOTE THIS RUN IS USING CORE POTENTIALS, AND THE NUMBER OF ELECTRONS,
 OCCUPIED ORBITALS, AND NUCLEAR REPULSION ENERGY WILL BE ADJUSTED BELOW
 AFTER REMOVAL OF THE CORE CHARGES.

     $CONTRL OPTIONS
     ---------------
 SCFTYP=RHF          RUNTYP=GRADIENT     EXETYP=RUN     
 MPLEVL=       2     CITYP =NONE         CCTYP =NONE         VBTYP =NONE    
 DFTTYP=NONE         TDDFT =NONE    
 MULT  =       1     ICHARG=       0     NZVAR =       3     COORD =UNIQUE  
 PP    =SBKJC        RELWFN=NONE         LOCAL =NONE         NUMGRD=       F
 ISPHER=      -1     NOSYM =       0     MAXIT =      30     UNITS =ANGS    
 PLTORB=       F     MOLPLT=       F     AIMPAC=       F     FRIEND=        
 NPRINT=       7     IREST =       0     GEOM  =INPUT   
 NORMF =       0     NORMP =       0     ITOL  =      20     ICUT  =       9
 INTTYP=BEST         GRDTYP=BEST         QMTTOL= 1.0E-06

     $SYSTEM OPTIONS
     ---------------
  REPLICATED MEMORY=     1000000 WORDS (ON EVERY NODE).
 DISTRIBUTED MEMDDI=           0 MILLION WORDS IN AGGREGATE,
 MEMDDI DISTRIBUTED OVER   1 PROCESSORS IS           0 WORDS/PROCESSOR.
 TOTAL MEMORY REQUESTED ON EACH PROCESSOR=     1000000 WORDS.
 TIMLIM=      525600.00 MINUTES, OR     365.0 DAYS.
 PARALL= F  BALTYP=  DLB     KDIAG=    0  COREFL= F
 MXSEQ2=     300 MXSEQ3=     150  mem10=         0

          --------------
          ECP POTENTIALS
          --------------

 PARAMETERS FOR "SBKJC-82" ON ATOM    1 WITH ZCORE  78 AND LMAX  4 ARE
 FOR L= 4      COEFF    N           ZETA
    1       -2.76464    1        0.51756
 FOR L= 0      COEFF    N           ZETA
    1        6.94774    0        2.44363
    2      -17.72106    2        0.82022
    3       32.39564    2        0.97662
 FOR L= 1      COEFF    N           ZETA
    1        4.94619    0        1.49041
    2      -17.16033    2        0.59861
    3       26.06040    2        0.66916
 FOR L= 2      COEFF    N           ZETA
    1        4.99762    0        2.19203
    2        4.52730    2        0.46937
 FOR L= 3      COEFF    N           ZETA
    1        4.95827    0        0.69081
    2     -124.15758    2        0.20680
    3      125.32798    2        0.20773

 PARAMETERS FOR "SBKJC-53" ON ATOM    2 WITH ZCORE  46 AND LMAX  3 ARE
 FOR L= 3      COEFF    N           ZETA
    1       -3.69639    1        0.97628
    2      -14.00305    1        4.33343
 FOR L= 0      COEFF    N           ZETA
    1       12.11123    0        4.13071
    2      -41.09206    2        1.33375
    3       70.73761    2        1.49121
 FOR L= 1      COEFF    N           ZETA
    1       10.59271    0        3.04692
    2      -46.02273    2        1.06339
    3       65.05047    2        1.14405
 FOR L= 2      COEFF    N           ZETA
    1        9.73089    0        3.93063
    2       13.98880    2        1.06920

 PARAMETERS FOR "SBKJC-53" ON ATOM    3 ARE THE SAME AS ATOM   2

 THE ECP RUN REMOVES  170 CORE ELECTRONS, AND THE SAME NUMBER OF PROTONS.
 NUMBER OF ELECTRONS KEPT IN THE CALCULATION IS =   18
 NUMBER OF OCCUPIED ORBITALS (ALPHA) KEPT IS    =    9
 NUMBER OF OCCUPIED ORBITALS (BETA ) KEPT IS    =    9
 THE ADJUSTED NUCLEAR REPULSION ENERGY=       16.5401651586
          ECP ANGULAR INTS.........     0.01 SECONDS

          ----------------
          PROPERTIES INPUT
          ----------------

     MOMENTS            FIELD           POTENTIAL          DENSITY
 IEMOM =       1   IEFLD =       0   IEPOT =       0   IEDEN =       0
 WHERE =COMASS     WHERE =NUCLEI     WHERE =NUCLEI     WHERE =NUCLEI  
 OUTPUT=BOTH       OUTPUT=BOTH       OUTPUT=BOTH       OUTPUT=BOTH    
 IEMINT=       0   IEFINT=       0                     IEDINT=       0
                                                       MORB  =       0
          EXTRAPOLATION IN EFFECT
          SOSCF IN EFFECT
 ORBITAL PRINTING OPTION: NPREO=     1    42     2     1

     -------------------------------
     INTEGRAL TRANSFORMATION OPTIONS
     -------------------------------
     NWORD  =            0
     CUTOFF = 1.0E-09     MPTRAN =       0
     DIRTRF =       F     AOINTS =DUP     

          ----------------------
          INTEGRAL INPUT OPTIONS
          ----------------------
 NOPK  =       1 NORDER=       0 SCHWRZ=       F

          -----------------------
          MP2 CONTROL INFORMATION
          -----------------------
          NACORE =        0  NBCORE =        0
          LMOMP2 =        F  AOINTS = DUP     
          METHOD =        2  NWORD  =               0
          MP2PRP =        F  OSPT   = NONE    
          CUTOFF = 1.00E-09  CPHFBS = BASISMO 
          CODE   = IMS     

          NUMBER OF CORE -A-  ORBITALS =     0
          NUMBER OF CORE -B-  ORBITALS =     0
          NUMBER OF OCC. -A-  ORBITALS =     9
          NUMBER OF OCC. -B-  ORBITALS =     9
          NUMBER OF MOLECULAR ORBITALS =    42
          NUMBER OF   BASIS  FUNCTIONS =    42


   --- ENCODED Z MATRIX ---
 COORD  TYPE   I   J   K   L   M   N
    1      1    1   2
    2      1    1   3
    3      2    2   1   3

 THE DETERMINANT OF THE G MATRIX IS 10**(    -7)

 THE DETERMINANT OF THE G MATRIX IS 10**(    -7)
 * * * WARNING * * *
 YOUR B MATRIX HAS A SMALL DETERMINANT.
 THIS SUGGESTS YOU MAY HAVE BADLY CHOSEN COORDINATES.


                     --------------------
                     INTERNAL COORDINATES
                     --------------------

                 - - ATOMS - -         COORDINATE      COORDINATE
 NO.   TYPE    I  J  K  L  M  N        (BOHR,RAD)       (ANG,DEG)
 ----------------------------------------------------------------
   1 STRETCH   1  2                     5.3083862       2.8090772
   2 STRETCH   1  3                     5.3083862       2.8090772
   3 BEND      2  1  3                  1.7589424     100.7799762

     ------------------------------------------
     THE POINT GROUP IS CNV, NAXIS= 2, ORDER= 4
     ------------------------------------------

     DIMENSIONS OF THE SYMMETRY SUBSPACES ARE
 A1  =   17     A2  =    5     B1  =   13     B2  =    7

 ..... DONE SETTING UP THE RUN .....
 STEP CPU TIME =     0.02 TOTAL CPU TIME =        0.0 (    0.0 MIN)
 TOTAL WALL CLOCK TIME=        0.0 SECONDS, CPU UTILIZATION IS  66.67%

                    --------------------------------
                    SINGLE POINT ENERGY AND GRADIENT
                    --------------------------------

          ********************
          1 ELECTRON INTEGRALS
          ********************
 TIME TO DO ORDINARY INTEGRALS=      0.00
 TIME TO DO      ECP INTEGRALS=      0.01
 ...... END OF ONE-ELECTRON INTEGRALS ......
 STEP CPU TIME =     0.01 TOTAL CPU TIME =        0.0 (    0.0 MIN)
 TOTAL WALL CLOCK TIME=        0.0 SECONDS, CPU UTILIZATION IS  75.00%

          -------------
          GUESS OPTIONS
          -------------
          GUESS =HUCKEL            NORB  =       0          NORDER=       0
          MIX   =       F          PRTMO =       F          PUNMO =       F
          TOLZ  = 1.0E-08          TOLE  = 1.0E-05
          SYMDEN=       F          PURIFY=       F

 INITIAL GUESS ORBITALS GENERATED BY HUCKEL   ROUTINE.
 HUCKEL GUESS REQUIRES     15915 WORDS.

 SYMMETRIES FOR INITIAL GUESS ORBITALS FOLLOW.   BOTH SET(S).
     9 ORBITALS ARE OCCUPIED (    0 CORE ORBITALS).
     1=A1       2=B1       3=A1       4=B2       5=B1       6=A1       7=A2  
     8=B1       9=A1      10=B2      11=B1      12=A1      13=A1      14=A1  
    15=A1      16=A1      17=A1      18=A1      19=A1  
 ...... END OF INITIAL ORBITAL SELECTION ......
 STEP CPU TIME =     0.00 TOTAL CPU TIME =        0.0 (    0.0 MIN)
 TOTAL WALL CLOCK TIME=        0.0 SECONDS, CPU UTILIZATION IS  75.00%

                    ----------------------
                    AO INTEGRAL TECHNOLOGY
                    ----------------------
     S,P,L SHELL ROTATED AXIS INTEGRALS, REPROGRAMMED BY
        KAZUYA ISHIMURA (IMS) AND JOSE SIERRA (SYNSTAR).
     S,P,D,L SHELL ROTATED AXIS INTEGRALS PROGRAMMED BY
        KAZUYA ISHIMURA (INSTITUTE FOR MOLECULAR SCIENCE).
     S,P,D,F,G SHELL TO TOTAL QUARTET ANGULAR MOMENTUM SUM 5,
        ERIC PROGRAM BY GRAHAM FLETCHER (ELORET AND NASA ADVANCED
        SUPERCOMPUTING DIVISION, AMES RESEARCH CENTER).
     S,P,D,F,G,L SHELL GENERAL RYS QUADRATURE PROGRAMMED BY
        MICHEL DUPUIS (PACIFIC NORTHWEST NATIONAL LABORATORY).

          --------------------
          2 ELECTRON INTEGRALS
          --------------------

 THE -PK- OPTION IS OFF, THE INTEGRALS ARE NOT IN SUPERMATRIX FORM.
 STORING   15000 INTEGRALS/RECORD ON DISK, USING 12 BYTES/INTEGRAL.
 TWO ELECTRON INTEGRAL EVALUATION REQUIRES   90441 WORDS OF MEMORY.
 II,JST,KST,LST =  1  1  1  1 NREC =         1 INTLOC =    1
 II,JST,KST,LST =  2  1  1  1 NREC =         1 INTLOC =   17
 II,JST,KST,LST =  3  1  1  1 NREC =         1 INTLOC =  139
 II,JST,KST,LST =  4  1  1  1 NREC =         1 INTLOC =  880
 II,JST,KST,LST =  5  1  1  1 NREC =         1 INTLOC =  880
 II,JST,KST,LST =  6  1  1  1 NREC =         1 INTLOC =  880
 II,JST,KST,LST =  7  1  1  1 NREC =         1 INTLOC =  880
 II,JST,KST,LST =  8  1  1  1 NREC =         1 INTLOC = 8481
 II,JST,KST,LST =  9  1  1  1 NREC =         2 INTLOC =13214
 TOTAL NUMBER OF NONZERO TWO-ELECTRON INTEGRALS =               97959
          7 INTEGRAL RECORDS WERE STORED ON DISK FILE  8.
  ...... END OF TWO-ELECTRON INTEGRALS .....
 STEP CPU TIME =     0.03 TOTAL CPU TIME =        0.1 (    0.0 MIN)
 TOTAL WALL CLOCK TIME=        0.1 SECONDS, CPU UTILIZATION IS  85.71%

          --------------------------
                 RHF SCF CALCULATION
          --------------------------

     NUCLEAR ENERGY =        16.5401651586
     MAXIT =   30     NPUNCH=    2
     EXTRAP=T  DAMP=F  SHIFT=F  RSTRCT=F  DIIS=F  DEM=F  SOSCF=T
     DENSITY MATRIX CONV=  1.00E-06
     SOSCF WILL OPTIMIZE     297 ORBITAL ROTATIONS, SOGTOL=   0.250
     MEMORY REQUIRED FOR RHF ITERS=     44124 WORDS.

 ITER EX DEM     TOTAL ENERGY        E CHANGE  DENSITY CHANGE     ORB. GRAD
   1  0  0      -25.6076116846   -25.6076116846   0.448539730   0.000000000
          ---------------START SECOND ORDER SCF---------------
   2  1  0      -25.9168093465    -0.3091976619   0.084298181   0.030135013
   3  2  0      -25.9360468388    -0.0192374923   0.076079410   0.013681874
   4  3  0      -25.9386746525    -0.0026278137   0.014280373   0.004508463
   5  4  0      -25.9389028778    -0.0002282253   0.005118499   0.001147142
   6  5  0      -25.9389393557    -0.0000364779   0.003519194   0.000431145
   7  6  0      -25.9389453142    -0.0000059585   0.001257791   0.000092843
   8  7  0      -25.9389456179    -0.0000003036   0.000294242   0.000039852
   9  8  0      -25.9389456531    -0.0000000352   0.000035637   0.000012883
  10  9  0      -25.9389456560    -0.0000000030   0.000021797   0.000003979
  11 10  0      -25.9389456563    -0.0000000003   0.000003592   0.000000872
  12 11  0      -25.9389456564    -0.0000000000   0.000001564   0.000000255
  13 12  0      -25.9389456564    -0.0000000000   0.000000573   0.000000064

          -----------------
          DENSITY CONVERGED
          -----------------
     TIME TO FORM FOCK OPERATORS=       0.0 SECONDS (       0.0 SEC/ITER)
     TIME TO SOLVE SCF EQUATIONS=       0.0 SECONDS (       0.0 SEC/ITER)

 FINAL RHF ENERGY IS      -25.9389456564 AFTER  13 ITERATIONS

          ------------
          EIGENVECTORS
          ------------

                      1          2          3          4          5
                   -0.8893    -0.8667    -0.6397    -0.4144    -0.3917
                     A1         B1         A1         B1         A1  
    1  PB 1  S    0.244072   0.000000   0.866923   0.000000  -0.212409
    2  PB 1  X   -0.000000  -0.088140   0.000000   0.374690  -0.000000
    3  PB 1  Y   -0.000000   0.000000   0.000000   0.000000  -0.000000
    4  PB 1  Z    0.068930   0.000000  -0.013719   0.000000   0.300656
    5  PB 1  S   -0.016255   0.000000   0.041429   0.000000  -0.070491
    6  PB 1  X   -0.000000   0.007750   0.000000  -0.020030  -0.000000
    7  PB 1  Y   -0.000000   0.000000   0.000000   0.000000  -0.000000
    8  PB 1  Z   -0.011152   0.000000  -0.001474   0.000000  -0.006593
    9  PB 1 XX    0.013640   0.000000  -0.012467   0.000000   0.005271
   10  PB 1 YY   -0.003565   0.000000  -0.020637   0.000000   0.001887
   11  PB 1 ZZ    0.011078   0.000000  -0.010943   0.000000   0.051497
   12  PB 1 XY   -0.000000   0.000000   0.000000   0.000000  -0.000000
   13  PB 1 XZ   -0.000000  -0.022229   0.000000   0.056409  -0.000000
   14  PB 1 YZ   -0.000000   0.000000   0.000000   0.000000  -0.000000
   15  I  2  S    0.535204   0.576571  -0.237294   0.095627  -0.030926
   16  I  2  X    0.037079   0.015602   0.135066  -0.247499   0.423028
   17  I  2  Y   -0.000000   0.000000   0.000000   0.000000  -0.000000
   18  I  2  Z   -0.030549  -0.017056  -0.109754   0.393124   0.194846
   19  I  2  S    0.093068   0.103456  -0.089103   0.072681  -0.024007
   20  I  2  X   -0.005685  -0.004578   0.017805  -0.053125   0.144444
   21  I  2  Y   -0.000000   0.000000   0.000000   0.000000  -0.000000
   22  I  2  Z    0.003572   0.003569  -0.012994   0.111855   0.092687
   23  I  2 XX    0.013504   0.011518   0.013491  -0.009681   0.019667
   24  I  2 YY    0.005830   0.006091  -0.004969   0.003838  -0.001577
   25  I  2 ZZ    0.011815   0.009154   0.006741  -0.016759  -0.011472
   26  I  2 XY   -0.000000   0.000000   0.000000   0.000000  -0.000000
   27  I  2 XZ   -0.009549  -0.005731  -0.018545   0.021144  -0.004343
   28  I  2 YZ   -0.000000   0.000000   0.000000   0.000000  -0.000000
   29  I  3  S    0.535204  -0.576571  -0.237294  -0.095627  -0.030926
   30  I  3  X   -0.037079   0.015602  -0.135066  -0.247499  -0.423028
   31  I  3  Y   -0.000000   0.000000   0.000000   0.000000  -0.000000
   32  I  3  Z   -0.030549   0.017056  -0.109754  -0.393124   0.194846
   33  I  3  S    0.093068  -0.103456  -0.089103  -0.072681  -0.024007
   34  I  3  X    0.005685  -0.004578  -0.017805  -0.053125  -0.144444
   35  I  3  Y   -0.000000   0.000000   0.000000   0.000000  -0.000000
   36  I  3  Z    0.003572  -0.003569  -0.012994  -0.111855   0.092687
   37  I  3 XX    0.013504  -0.011518   0.013491   0.009681   0.019667
   38  I  3 YY    0.005830  -0.006091  -0.004969  -0.003838  -0.001577
   39  I  3 ZZ    0.011815  -0.009154   0.006741   0.016759  -0.011472
   40  I  3 XY   -0.000000   0.000000   0.000000   0.000000  -0.000000
   41  I  3 XZ    0.009549  -0.005731   0.018545   0.021144   0.004343
   42  I  3 YZ   -0.000000   0.000000   0.000000   0.000000  -0.000000

                      6          7          8          9         10
                   -0.3796    -0.3618    -0.3531    -0.3436    -0.0326
                     B2         A2         B1         A1         B2  
    1  PB 1  S   -0.000000   0.000000  -0.000000   0.384603   0.000000
    2  PB 1  X   -0.000000   0.000000  -0.061325   0.000000   0.000000
    3  PB 1  Y    0.180032   0.000000  -0.000000   0.000000   0.691708
    4  PB 1  Z   -0.000000   0.000000  -0.000000  -0.344981   0.000000
    5  PB 1  S   -0.000000   0.000000  -0.000000   0.180688   0.000000
    6  PB 1  X   -0.000000   0.000000   0.025851   0.000000   0.000000
    7  PB 1  Y    0.012236   0.000000  -0.000000   0.000000   0.458977
    8  PB 1  Z   -0.000000   0.000000  -0.000000   0.021260   0.000000
    9  PB 1 XX   -0.000000   0.000000  -0.000000  -0.068357   0.000000
   10  PB 1 YY   -0.000000   0.000000  -0.000000  -0.005369   0.000000
   11  PB 1 ZZ   -0.000000   0.000000  -0.000000  -0.020497   0.000000
   12  PB 1 XY   -0.000000  -0.035082  -0.000000   0.000000   0.000000
   13  PB 1 XZ   -0.000000   0.000000  -0.025123   0.000000   0.000000
   14  PB 1 YZ    0.028876   0.000000  -0.000000   0.000000  -0.001103
   15  I  2  S   -0.000000   0.000000  -0.002092   0.012648   0.000000
   16  I  2  X   -0.000000   0.000000   0.458576  -0.104052   0.000000
   17  I  2  Y    0.496158   0.525117  -0.000000   0.000000  -0.171638
   18  I  2  Z   -0.000000   0.000000   0.291246   0.470998   0.000000
   19  I  2  S   -0.000000   0.000000  -0.000801  -0.007415   0.000000
   20  I  2  X   -0.000000   0.000000   0.186174  -0.015937   0.000000
   21  I  2  Y    0.202878   0.229927  -0.000000   0.000000  -0.208560
   22  I  2  Z   -0.000000   0.000000   0.134712   0.185650   0.000000
   23  I  2 XX   -0.000000   0.000000   0.017288  -0.006314   0.000000
   24  I  2 YY   -0.000000   0.000000   0.000112  -0.000570   0.000000
   25  I  2 ZZ   -0.000000   0.000000  -0.012227  -0.010861   0.000000
   26  I  2 XY    0.017123   0.014724  -0.000000   0.000000   0.024541
   27  I  2 XZ   -0.000000   0.000000  -0.008746   0.010250   0.000000
   28  I  2 YZ   -0.015515  -0.014882  -0.000000   0.000000  -0.021400
   29  I  3  S   -0.000000   0.000000   0.002092   0.012648   0.000000
   30  I  3  X   -0.000000   0.000000   0.458576   0.104052   0.000000
   31  I  3  Y    0.496158  -0.525117  -0.000000   0.000000  -0.171638
   32  I  3  Z   -0.000000   0.000000  -0.291246   0.470998   0.000000
   33  I  3  S   -0.000000   0.000000   0.000801  -0.007415   0.000000
   34  I  3  X   -0.000000   0.000000   0.186174   0.015937   0.000000
   35  I  3  Y    0.202878  -0.229927  -0.000000   0.000000  -0.208560
   36  I  3  Z   -0.000000   0.000000  -0.134712   0.185650   0.000000
   37  I  3 XX   -0.000000   0.000000  -0.017288  -0.006314   0.000000
   38  I  3 YY   -0.000000   0.000000  -0.000112  -0.000570   0.000000
   39  I  3 ZZ   -0.000000   0.000000   0.012227  -0.010861   0.000000
   40  I  3 XY   -0.017123   0.014724  -0.000000   0.000000  -0.024541
   41  I  3 XZ   -0.000000   0.000000  -0.008746  -0.010250   0.000000
   42  I  3 YZ   -0.015515   0.014882  -0.000000   0.000000  -0.021400

                     11         12         13         14         15
                    0.0320     0.0400     0.1515     0.1533     0.1608
                     A1         B1         B2         A1         B1  
    1  PB 1  S    0.371828  -0.000000   0.000000  -0.067460   0.000000
    2  PB 1  X    0.000000   0.575768   0.000000  -0.000000  -1.241865
    3  PB 1  Y    0.000000  -0.000000  -1.158290  -0.000000   0.000000
    4  PB 1  Z    0.528253  -0.000000   0.000000  -1.211621   0.000000
    5  PB 1  S    0.598552  -0.000000   0.000000  -0.088545   0.000000
    6  PB 1  X    0.000000   1.035297   0.000000  -0.000000   1.483732
    7  PB 1  Y    0.000000  -0.000000   1.445016  -0.000000   0.000000
    8  PB 1  Z    0.997821  -0.000000   0.000000   1.434708   0.000000
    9  PB 1 XX   -0.037884  -0.000000   0.000000   0.091289   0.000000
   10  PB 1 YY   -0.014671  -0.000000   0.000000   0.018544   0.000000
   11  PB 1 ZZ   -0.026638  -0.000000   0.000000   0.005724   0.000000
   12  PB 1 XY    0.000000  -0.000000   0.000000  -0.000000   0.000000
   13  PB 1 XZ    0.000000  -0.015908   0.000000  -0.000000   0.055401
   14  PB 1 YZ    0.000000  -0.000000  -0.046354  -0.000000   0.000000
   15  I  2  S   -0.156728   0.155961   0.000000   0.044789  -0.037122
   16  I  2  X   -0.226156   0.088537   0.000000   0.113409  -0.148027
   17  I  2  Y    0.000000  -0.000000  -0.013495  -0.000000   0.000000
   18  I  2  Z    0.104248  -0.190374   0.000000  -0.063955   0.074759
   19  I  2  S   -0.479755   0.452854   0.000000  -0.230405   0.309718
   20  I  2  X   -0.425755   0.182773   0.000000   0.027104  -0.160009
   21  I  2  Y    0.000000  -0.000000  -0.155598  -0.000000   0.000000
   22  I  2  Z    0.098082  -0.366607   0.000000  -0.189427   0.020975
   23  I  2 XX    0.027297   0.015034   0.000000  -0.082858   0.026414
   24  I  2 YY   -0.011661   0.011601   0.000000   0.033492  -0.043852
   25  I  2 ZZ   -0.021320  -0.025440   0.000000   0.018159   0.048318
   26  I  2 XY    0.000000  -0.000000  -0.039130  -0.000000   0.000000
   27  I  2 XZ   -0.028067   0.018981   0.000000   0.055769  -0.092149
   28  I  2 YZ    0.000000  -0.000000   0.026242  -0.000000   0.000000
   29  I  3  S   -0.156728  -0.155961   0.000000   0.044789   0.037122
   30  I  3  X    0.226156   0.088537   0.000000  -0.113409  -0.148027
   31  I  3  Y    0.000000  -0.000000  -0.013495  -0.000000   0.000000
   32  I  3  Z    0.104248   0.190374   0.000000  -0.063955  -0.074759
   33  I  3  S   -0.479755  -0.452854   0.000000  -0.230405  -0.309718
   34  I  3  X    0.425755   0.182773   0.000000  -0.027104  -0.160009
   35  I  3  Y    0.000000  -0.000000  -0.155598  -0.000000   0.000000
   36  I  3  Z    0.098082   0.366607   0.000000  -0.189427  -0.020975
   37  I  3 XX    0.027297  -0.015034   0.000000  -0.082858  -0.026414
   38  I  3 YY   -0.011661  -0.011601   0.000000   0.033492   0.043852
   39  I  3 ZZ   -0.021320   0.025440   0.000000   0.018159  -0.048318
   40  I  3 XY    0.000000  -0.000000   0.039130  -0.000000   0.000000
   41  I  3 XZ    0.028067   0.018981   0.000000  -0.055769  -0.092149
   42  I  3 YZ    0.000000  -0.000000   0.026242  -0.000000   0.000000

                     16         17         18         19         20
                    0.2658     0.3104     0.3487     0.3641     0.3653
                     A1         B1         A1         B2         A2  
    1  PB 1  S   -0.741406  -0.000000   0.066479  -0.000000  -0.000000
    2  PB 1  X    0.000000   0.256868   0.000000  -0.000000  -0.000000
    3  PB 1  Y    0.000000  -0.000000   0.000000  -0.043136  -0.000000
    4  PB 1  Z    0.237987  -0.000000   0.086557  -0.000000  -0.000000
    5  PB 1  S    1.717512  -0.000000   0.065682  -0.000000  -0.000000
    6  PB 1  X    0.000000   0.360846   0.000000  -0.000000  -0.000000
    7  PB 1  Y    0.000000  -0.000000   0.000000  -0.353824  -0.000000
    8  PB 1  Z    0.521474  -0.000000   0.230274  -0.000000  -0.000000
    9  PB 1 XX    0.401125  -0.000000   0.203230  -0.000000  -0.000000
   10  PB 1 YY    0.146930  -0.000000   0.007164  -0.000000  -0.000000
   11  PB 1 ZZ    0.249734  -0.000000  -0.269505  -0.000000  -0.000000
   12  PB 1 XY    0.000000  -0.000000   0.000000  -0.000000  -0.445080
   13  PB 1 XZ    0.000000   0.480458   0.000000  -0.000000  -0.000000
   14  PB 1 YZ    0.000000  -0.000000   0.000000   0.397732  -0.000000
   15  I  2  S   -0.166836   0.143439   0.020901  -0.000000  -0.000000
   16  I  2  X    0.454564  -0.517685   0.520135  -0.000000  -0.000000
   17  I  2  Y    0.000000  -0.000000   0.000000  -0.768432  -0.734247
   18  I  2  Z   -0.422387   0.387935   0.577613  -0.000000  -0.000000
   19  I  2  S   -0.532764   0.267190  -0.074865  -0.000000  -0.000000
   20  I  2  X   -0.880080   0.985294  -0.560222  -0.000000  -0.000000
   21  I  2  Y    0.000000  -0.000000   0.000000   0.884753   0.759645
   22  I  2  Z    0.768209  -0.714104  -0.567327  -0.000000  -0.000000
   23  I  2 XX   -0.068554  -0.077568  -0.136303  -0.000000  -0.000000
   24  I  2 YY    0.054259   0.036291   0.017784  -0.000000  -0.000000
   25  I  2 ZZ    0.005458   0.050702   0.083964  -0.000000  -0.000000
   26  I  2 XY    0.000000  -0.000000   0.000000   0.106179   0.044630
   27  I  2 XZ    0.053531   0.032831  -0.078118  -0.000000  -0.000000
   28  I  2 YZ    0.000000  -0.000000   0.000000   0.019766  -0.133962
   29  I  3  S   -0.166836  -0.143439   0.020901  -0.000000  -0.000000
   30  I  3  X   -0.454564  -0.517685  -0.520135  -0.000000  -0.000000
   31  I  3  Y    0.000000  -0.000000   0.000000  -0.768432   0.734247
   32  I  3  Z   -0.422387  -0.387935   0.577613  -0.000000  -0.000000
   33  I  3  S   -0.532764  -0.267190  -0.074865  -0.000000  -0.000000
   34  I  3  X    0.880080   0.985294   0.560222  -0.000000  -0.000000
   35  I  3  Y    0.000000  -0.000000   0.000000   0.884753  -0.759645
   36  I  3  Z    0.768209   0.714104  -0.567327  -0.000000  -0.000000
   37  I  3 XX   -0.068554   0.077568  -0.136303  -0.000000  -0.000000
   38  I  3 YY    0.054259  -0.036291   0.017784  -0.000000  -0.000000
   39  I  3 ZZ    0.005458  -0.050702   0.083964  -0.000000  -0.000000
   40  I  3 XY    0.000000  -0.000000   0.000000  -0.106179   0.044630
   41  I  3 XZ   -0.053531   0.032831   0.078118  -0.000000  -0.000000
   42  I  3 YZ    0.000000  -0.000000   0.000000   0.019766   0.133962

                     21         22         23         24         25
                    0.3721     0.3765     0.3937     0.3986     0.4037
                     A1         A2         B2         A1         B1  
    1  PB 1  S   -0.381840  -0.000000   0.000000  -0.692787   0.000000
    2  PB 1  X   -0.000000  -0.000000   0.000000   0.000000   0.074597
    3  PB 1  Y   -0.000000  -0.000000  -0.214977   0.000000   0.000000
    4  PB 1  Z   -0.119008  -0.000000   0.000000   0.089866   0.000000
    5  PB 1  S    0.112890  -0.000000   0.000000  -0.167568   0.000000
    6  PB 1  X   -0.000000  -0.000000   0.000000   0.000000  -0.569822
    7  PB 1  Y   -0.000000  -0.000000   0.473756   0.000000   0.000000
    8  PB 1  Z    0.313145  -0.000000   0.000000  -0.335844   0.000000
    9  PB 1 XX   -0.500368  -0.000000   0.000000   0.043697   0.000000
   10  PB 1 YY    0.279566  -0.000000   0.000000   1.054447   0.000000
   11  PB 1 ZZ    0.684108  -0.000000   0.000000  -0.299730   0.000000
   12  PB 1 XY   -0.000000   0.671325   0.000000   0.000000   0.000000
   13  PB 1 XZ   -0.000000  -0.000000   0.000000   0.000000  -0.016892
   14  PB 1 YZ   -0.000000  -0.000000   0.744217   0.000000   0.000000
   15  I  2  S    0.005824  -0.000000   0.000000   0.012943   0.008667
   16  I  2  X    0.228914  -0.000000   0.000000  -0.202369  -0.456895
   17  I  2  Y   -0.000000  -0.445782   0.396462   0.000000   0.000000
   18  I  2  Z    0.235379  -0.000000   0.000000   0.041581  -0.707441
   19  I  2  S   -0.058150  -0.000000   0.000000   0.144720  -0.156425
   20  I  2  X   -0.335834  -0.000000   0.000000   0.404742   0.631457
   21  I  2  Y   -0.000000   0.693906  -0.676274   0.000000   0.000000
   22  I  2  Z   -0.473403  -0.000000   0.000000  -0.099422   0.966459
   23  I  2 XX    0.190376  -0.000000   0.000000  -0.146938  -0.204900
   24  I  2 YY    0.085648  -0.000000   0.000000   0.183912   0.067113
   25  I  2 ZZ   -0.276813  -0.000000   0.000000   0.010759   0.104930
   26  I  2 XY   -0.000000  -0.204644   0.256218   0.000000   0.000000
   27  I  2 XZ    0.128005  -0.000000   0.000000   0.063057  -0.044574
   28  I  2 YZ   -0.000000   0.216099  -0.119826   0.000000   0.000000
   29  I  3  S    0.005824  -0.000000   0.000000   0.012943  -0.008667
   30  I  3  X   -0.228914  -0.000000   0.000000   0.202369  -0.456895
   31  I  3  Y   -0.000000   0.445782   0.396462   0.000000   0.000000
   32  I  3  Z    0.235379  -0.000000   0.000000   0.041581   0.707441
   33  I  3  S   -0.058150  -0.000000   0.000000   0.144720   0.156425
   34  I  3  X    0.335834  -0.000000   0.000000  -0.404742   0.631457
   35  I  3  Y   -0.000000  -0.693906  -0.676274   0.000000   0.000000
   36  I  3  Z   -0.473403  -0.000000   0.000000  -0.099422  -0.966459
   37  I  3 XX    0.190376  -0.000000   0.000000  -0.146938   0.204900
   38  I  3 YY    0.085648  -0.000000   0.000000   0.183912  -0.067113
   39  I  3 ZZ   -0.276813  -0.000000   0.000000   0.010759  -0.104930
   40  I  3 XY   -0.000000  -0.204644  -0.256218   0.000000   0.000000
   41  I  3 XZ   -0.128005  -0.000000   0.000000  -0.063057  -0.044574
   42  I  3 YZ   -0.000000  -0.216099  -0.119826   0.000000   0.000000

                     26         27         28         29         30
                    0.5415     0.5548     0.5604     0.5630     0.5862
                     B1         A1         B2         A2         B1  
    1  PB 1  S   -0.000000   0.612698   0.000000  -0.000000  -0.000000
    2  PB 1  X   -0.120987   0.000000   0.000000  -0.000000  -0.357320
    3  PB 1  Y   -0.000000   0.000000   0.057735  -0.000000  -0.000000
    4  PB 1  Z   -0.000000  -0.134980   0.000000  -0.000000  -0.000000
    5  PB 1  S   -0.000000  -0.191340   0.000000  -0.000000  -0.000000
    6  PB 1  X    0.368651   0.000000   0.000000  -0.000000   0.378986
    7  PB 1  Y   -0.000000   0.000000   0.055576  -0.000000  -0.000000
    8  PB 1  Z   -0.000000  -0.135816   0.000000  -0.000000  -0.000000
    9  PB 1 XX   -0.000000  -0.471799   0.000000  -0.000000  -0.000000
   10  PB 1 YY   -0.000000  -0.191838   0.000000  -0.000000  -0.000000
   11  PB 1 ZZ   -0.000000  -0.256203   0.000000  -0.000000  -0.000000
   12  PB 1 XY   -0.000000   0.000000   0.000000   0.012490  -0.000000
   13  PB 1 XZ    0.496190   0.000000   0.000000  -0.000000   0.574058
   14  PB 1 YZ   -0.000000   0.000000  -0.048589  -0.000000  -0.000000
   15  I  2  S    0.006531   0.123531   0.000000  -0.000000  -0.074296
   16  I  2  X    0.328753   0.115161   0.000000  -0.000000   0.267956
   17  I  2  Y   -0.000000   0.000000   0.088604  -0.086330  -0.000000
   18  I  2  Z   -0.223781  -0.207748   0.000000  -0.000000  -0.271004
   19  I  2  S    0.184556   0.132924   0.000000  -0.000000   0.171108
   20  I  2  X   -0.271534   0.019446   0.000000  -0.000000  -0.233726
   21  I  2  Y   -0.000000   0.000000  -0.113215   0.107202  -0.000000
   22  I  2  Z    0.126051   0.125586   0.000000  -0.000000   0.231071
   23  I  2 XX   -0.007365  -0.216083   0.000000  -0.000000   0.098617
   24  I  2 YY   -0.335422   0.466487   0.000000  -0.000000   0.495825
   25  I  2 ZZ    0.400883  -0.325086   0.000000  -0.000000  -0.447932
   26  I  2 XY   -0.000000   0.000000   0.309865   0.554042  -0.000000
   27  I  2 XZ    0.391297  -0.429459   0.000000  -0.000000   0.151212
   28  I  2 YZ   -0.000000   0.000000   0.633041   0.437277  -0.000000
   29  I  3  S   -0.006531   0.123531   0.000000  -0.000000   0.074296
   30  I  3  X    0.328753  -0.115161   0.000000  -0.000000   0.267956
   31  I  3  Y   -0.000000   0.000000   0.088604   0.086330  -0.000000
   32  I  3  Z    0.223781  -0.207748   0.000000  -0.000000   0.271004
   33  I  3  S   -0.184556   0.132924   0.000000  -0.000000  -0.171108
   34  I  3  X   -0.271534  -0.019446   0.000000  -0.000000  -0.233726
   35  I  3  Y   -0.000000   0.000000  -0.113215  -0.107202  -0.000000
   36  I  3  Z   -0.126051   0.125586   0.000000  -0.000000  -0.231071
   37  I  3 XX    0.007365  -0.216083   0.000000  -0.000000  -0.098617
   38  I  3 YY    0.335422   0.466487   0.000000  -0.000000  -0.495825
   39  I  3 ZZ   -0.400883  -0.325086   0.000000  -0.000000   0.447932
   40  I  3 XY   -0.000000   0.000000  -0.309865   0.554042  -0.000000
   41  I  3 XZ    0.391297   0.429459   0.000000  -0.000000   0.151212
   42  I  3 YZ   -0.000000   0.000000   0.633041  -0.437277  -0.000000

                     31         32         33         34         35
                    0.6090     0.6187     0.6565     0.6772     0.6812
                     B1         A1         A1         A2         B2  
    1  PB 1  S    0.000000   1.515560  -0.223697   0.000000  -0.000000
    2  PB 1  X    0.069701   0.000000   0.000000   0.000000  -0.000000
    3  PB 1  Y    0.000000   0.000000   0.000000   0.000000   0.193163
    4  PB 1  Z    0.000000   0.173244   0.517777   0.000000  -0.000000
    5  PB 1  S    0.000000   0.232780   0.592645   0.000000  -0.000000
    6  PB 1  X   -0.424407   0.000000   0.000000   0.000000  -0.000000
    7  PB 1  Y    0.000000   0.000000   0.000000   0.000000   0.235301
    8  PB 1  Z    0.000000  -0.332535   0.011307   0.000000  -0.000000
    9  PB 1 XX    0.000000  -1.042204   0.649220   0.000000  -0.000000
   10  PB 1 YY    0.000000  -0.468875  -0.604450   0.000000  -0.000000
   11  PB 1 ZZ    0.000000  -0.933409   0.287817   0.000000  -0.000000
   12  PB 1 XY    0.000000   0.000000   0.000000   0.742848  -0.000000
   13  PB 1 XZ   -0.033184   0.000000   0.000000   0.000000  -0.000000
   14  PB 1 YZ    0.000000   0.000000   0.000000   0.000000   0.672174
   15  I  2  S    0.046792   0.024176  -0.416325   0.000000  -0.000000
   16  I  2  X   -0.368359   0.337557  -0.298462   0.000000  -0.000000
   17  I  2  Y    0.000000   0.000000   0.000000  -0.103091   0.121407
   18  I  2  Z   -0.151122  -0.277341   0.245276   0.000000  -0.000000
   19  I  2  S   -0.138655   0.168780  -0.284338   0.000000  -0.000000
   20  I  2  X    0.514635  -0.183681   0.010974   0.000000  -0.000000
   21  I  2  Y    0.000000   0.000000   0.000000   0.265839  -0.326689
   22  I  2  Z    0.270973   0.196709  -0.003938   0.000000  -0.000000
   23  I  2 XX    0.651530  -0.058597  -0.157478   0.000000  -0.000000
   24  I  2 YY   -0.366229   0.026542   0.606193   0.000000  -0.000000
   25  I  2 ZZ   -0.333985   0.095367  -0.035661   0.000000  -0.000000
   26  I  2 XY    0.000000   0.000000   0.000000   0.413397  -0.603612
   27  I  2 XZ    0.138588   0.339735   0.387221   0.000000  -0.000000
   28  I  2 YZ    0.000000   0.000000   0.000000  -0.519082   0.317344
   29  I  3  S   -0.046792   0.024176  -0.416325   0.000000  -0.000000
   30  I  3  X   -0.368359  -0.337557   0.298462   0.000000  -0.000000
   31  I  3  Y    0.000000   0.000000   0.000000   0.103091   0.121407
   32  I  3  Z    0.151122  -0.277341   0.245276   0.000000  -0.000000
   33  I  3  S    0.138655   0.168780  -0.284338   0.000000  -0.000000
   34  I  3  X    0.514635   0.183681  -0.010974   0.000000  -0.000000
   35  I  3  Y    0.000000   0.000000   0.000000  -0.265839  -0.326689
   36  I  3  Z   -0.270973   0.196709  -0.003938   0.000000  -0.000000
   37  I  3 XX   -0.651530  -0.058597  -0.157478   0.000000  -0.000000
   38  I  3 YY    0.366229   0.026542   0.606193   0.000000  -0.000000
   39  I  3 ZZ    0.333985   0.095367  -0.035661   0.000000  -0.000000
   40  I  3 XY    0.000000   0.000000   0.000000   0.413397   0.603612
   41  I  3 XZ    0.138588  -0.339735  -0.387221   0.000000  -0.000000
   42  I  3 YZ    0.000000   0.000000   0.000000   0.519082   0.317344

                     36         37         38         39         40
                    0.7536     0.7902     1.1331     1.1379     1.5624
                     A1         B1         B1         A1         A1  
    1  PB 1  S   -0.149775  -0.000000  -0.000000  -0.225445   0.040282
    2  PB 1  X   -0.000000   0.756523  -0.816243  -0.000000  -0.000000
    3  PB 1  Y   -0.000000  -0.000000  -0.000000  -0.000000  -0.000000
    4  PB 1  Z    0.157414  -0.000000  -0.000000   0.498557  -0.560774
    5  PB 1  S   -0.034255  -0.000000  -0.000000   0.756480   2.062263
    6  PB 1  X   -0.000000  -0.047125  -0.233894  -0.000000  -0.000000
    7  PB 1  Y   -0.000000  -0.000000  -0.000000  -0.000000  -0.000000
    8  PB 1  Z    0.202293  -0.000000  -0.000000   0.349672   0.568118
    9  PB 1 XX   -0.593515  -0.000000  -0.000000   0.464910  -1.179365
   10  PB 1 YY    0.039445  -0.000000  -0.000000  -0.185216  -0.993782
   11  PB 1 ZZ    0.861885  -0.000000  -0.000000   0.381549  -0.981722
   12  PB 1 XY   -0.000000  -0.000000  -0.000000  -0.000000  -0.000000
   13  PB 1 XZ   -0.000000   0.957832  -0.763084  -0.000000  -0.000000
   14  PB 1 YZ   -0.000000  -0.000000  -0.000000  -0.000000  -0.000000
   15  I  2  S   -0.106412   0.687949   1.535703   1.631171  -0.044640
   16  I  2  X   -0.041506   0.306411  -0.088313  -0.086301  -0.067350
   17  I  2  Y   -0.000000  -0.000000  -0.000000  -0.000000  -0.000000
   18  I  2  Z    0.042094  -0.224257   0.082271   0.055619   0.109601
   19  I  2  S   -0.071759   0.303198  -0.064210  -0.093295  -0.285678
   20  I  2  X   -0.125120   0.102749  -0.361193  -0.325510   0.310706
   21  I  2  Y   -0.000000  -0.000000  -0.000000  -0.000000  -0.000000
   22  I  2  Z   -0.203408  -0.124346   0.334661   0.199195  -0.437782
   23  I  2 XX   -0.535517  -0.068182  -1.061256  -1.117727   0.183542
   24  I  2 YY    0.043732  -0.522564  -0.729172  -0.836599  -0.177237
   25  I  2 ZZ    0.642097  -0.218874  -0.987666  -0.953209   0.123402
   26  I  2 XY   -0.000000  -0.000000  -0.000000  -0.000000  -0.000000
   27  I  2 XZ   -0.094143  -0.598429   0.371578   0.193659  -0.375676
   28  I  2 YZ   -0.000000  -0.000000  -0.000000  -0.000000  -0.000000
   29  I  3  S   -0.106412  -0.687949  -1.535703   1.631171  -0.044640
   30  I  3  X    0.041506   0.306411  -0.088313   0.086301   0.067350
   31  I  3  Y   -0.000000  -0.000000  -0.000000  -0.000000  -0.000000
   32  I  3  Z    0.042094   0.224257  -0.082271   0.055619   0.109601
   33  I  3  S   -0.071759  -0.303198   0.064210  -0.093295  -0.285678
   34  I  3  X    0.125120   0.102749  -0.361193   0.325510  -0.310706
   35  I  3  Y   -0.000000  -0.000000  -0.000000  -0.000000  -0.000000
   36  I  3  Z   -0.203408   0.124346  -0.334661   0.199195  -0.437782
   37  I  3 XX   -0.535517   0.068182   1.061256  -1.117727   0.183542
   38  I  3 YY    0.043732   0.522564   0.729172  -0.836599  -0.177237
   39  I  3 ZZ    0.642097   0.218874   0.987666  -0.953209   0.123402
   40  I  3 XY   -0.000000  -0.000000  -0.000000  -0.000000  -0.000000
   41  I  3 XZ    0.094143  -0.598429   0.371578  -0.193659   0.375676
   42  I  3 YZ   -0.000000  -0.000000  -0.000000  -0.000000  -0.000000

                     41         42
                    7.8830     8.6207
                     B1         A1  
    1  PB 1  S    0.000000   0.148698
    2  PB 1  X    0.623866  -0.000000
    3  PB 1  Y    0.000000  -0.000000
    4  PB 1  Z    0.000000  -0.526003
    5  PB 1  S    0.000000  -2.993722
    6  PB 1  X    1.143430  -0.000000
    7  PB 1  Y    0.000000  -0.000000
    8  PB 1  Z    0.000000  -1.534689
    9  PB 1 XX    0.000000  -0.336279
   10  PB 1 YY    0.000000   0.338550
   11  PB 1 ZZ    0.000000  -0.233293
   12  PB 1 XY    0.000000  -0.000000
   13  PB 1 XZ    0.406434  -0.000000
   14  PB 1 YZ    0.000000  -0.000000
   15  I  2  S   -0.679118  -0.779916
   16  I  2  X   -0.184606  -0.116540
   17  I  2  Y    0.000000  -0.000000
   18  I  2  Z    0.131954   0.096702
   19  I  2  S    3.129814   3.756512
   20  I  2  X    0.797956   0.983701
   21  I  2  Y    0.000000  -0.000000
   22  I  2  Z   -0.708061  -0.641354
   23  I  2 XX   -0.501195  -0.505559
   24  I  2 YY   -0.775250  -0.666704
   25  I  2 ZZ   -0.587318  -0.592027
   26  I  2 XY    0.000000  -0.000000
   27  I  2 XZ   -0.192872  -0.206912
   28  I  2 YZ    0.000000  -0.000000
   29  I  3  S    0.679118  -0.779916
   30  I  3  X   -0.184606   0.116540
   31  I  3  Y    0.000000  -0.000000
   32  I  3  Z   -0.131954   0.096702
   33  I  3  S   -3.129814   3.756512
   34  I  3  X    0.797956  -0.983701
   35  I  3  Y    0.000000  -0.000000
   36  I  3  Z    0.708061  -0.641354
   37  I  3 XX    0.501195  -0.505559
   38  I  3 YY    0.775250  -0.666704
   39  I  3 ZZ    0.587318  -0.592027
   40  I  3 XY    0.000000  -0.000000
   41  I  3 XZ   -0.192872   0.206912
   42  I  3 YZ    0.000000  -0.000000
 ...... END OF RHF CALCULATION ......
 STEP CPU TIME =     0.02 TOTAL CPU TIME =        0.1 (    0.0 MIN)
 TOTAL WALL CLOCK TIME=        0.1 SECONDS, CPU UTILIZATION IS  88.89%

     ----------------------------------------------------------------
     PROPERTY VALUES FOR THE RHF   SELF-CONSISTENT FIELD WAVEFUNCTION
     ----------------------------------------------------------------

          -----------------
          ENERGY COMPONENTS
          -----------------

         WAVEFUNCTION NORMALIZATION =       1.0000000000

                ONE ELECTRON ENERGY =     -75.6781143841
                TWO ELECTRON ENERGY =      33.1990035691
           NUCLEAR REPULSION ENERGY =      16.5401651586
                                      ------------------
                       TOTAL ENERGY =     -25.9389456564

 ELECTRON-ELECTRON POTENTIAL ENERGY =      33.1990035691
  NUCLEUS-ELECTRON POTENTIAL ENERGY =     -83.1840533699
   NUCLEUS-NUCLEUS POTENTIAL ENERGY =      16.5401651586
                                      ------------------
             TOTAL POTENTIAL ENERGY =     -33.4448846421
               TOTAL KINETIC ENERGY =       7.5059389858
                 VIRIAL RATIO (V/T) =       4.4557895695

  ...... PI ENERGY ANALYSIS ......

 ENERGY ANALYSIS:
            FOCK ENERGY=     -9.2801073627
          BARE H ENERGY=    -75.6781143841
     ELECTRONIC ENERGY =    -42.4791108734
         KINETIC ENERGY=      7.5059389858
          N-N REPULSION=     16.5401651586
           TOTAL ENERGY=    -25.9389457148
        SIGMA PART(1+2)=    -33.6689782254
               (K,V1,2)=      5.7327741987    -65.2735262287     25.8717738047
           PI PART(1+2)=     -8.8101326481
               (K,V1,2)=      1.7731647871    -17.9105271412      7.3272297060
  SIGMA SKELETON, ERROR=    -17.1288130667      0.0000000000
             MIXED PART= 0.00000E+00 0.00000E+00 0.00000E+00 0.00000E+00
 ...... END OF PI ENERGY ANALYSIS ......

          ---------------------------------------
          MULLIKEN AND LOWDIN POPULATION ANALYSES
          ---------------------------------------

     ATOMIC MULLIKEN POPULATION IN EACH MOLECULAR ORBITAL

                      1          2          3          4          5

                  2.000000   2.000000   2.000000   2.000000   2.000000

    1             0.242545   0.075919   1.497626   0.474969   0.381818
    2             0.878728   0.962041   0.251187   0.762515   0.809091
    3             0.878728   0.962041   0.251187   0.762515   0.809091

                      6          7          8          9

                  2.000000   2.000000   2.000000   2.000000

    1             0.164484   0.018825   0.020838   0.535577
    2             0.917758   0.990587   0.989581   0.732211
    3             0.917758   0.990587   0.989581   0.732211

               ----- POPULATIONS IN EACH AO -----
                             MULLIKEN      LOWDIN
              1  PB 1  S      1.92043     1.15389
              2  PB 1  X      0.53163     0.43090
              3  PB 1  Y      0.14096     0.11052
              4  PB 1  Z      0.66994     0.56845
              5  PB 1  S      0.10425     0.22992
              6  PB 1  X     -0.01289     0.11387
              7  PB 1  Y      0.01156     0.08250
              8  PB 1  Z     -0.02177     0.13664
              9  PB 1 XX      0.01230     0.20395
             10  PB 1 YY     -0.02759     0.17569
             11  PB 1 ZZ      0.00001     0.19311
             12  PB 1 XY      0.01883     0.03550
             13  PB 1 XZ      0.05299     0.09825
             14  PB 1 YZ      0.01197     0.02104
             15  I  2  S      1.63652     0.93538
             16  I  2  X      1.29355     1.13669
             17  I  2  Y      1.38168     1.24070
             18  I  2  Z      1.35583     1.20719
             19  I  2  S      0.26487     0.33674
             20  I  2  X      0.35456     0.52179
             21  I  2  Y      0.52309     0.63172
             22  I  2  Z      0.41336     0.56637
             23  I  2 XX      0.02361     0.21236
             24  I  2 YY      0.01350     0.20756
             25  I  2 ZZ      0.01970     0.20937
             26  I  2 XY      0.00195     0.00154
             27  I  2 XZ      0.00986     0.01420
             28  I  2 YZ      0.00163     0.00127
             29  I  3  S      1.63652     0.93538
             30  I  3  X      1.29355     1.13669
             31  I  3  Y      1.38168     1.24070
             32  I  3  Z      1.35583     1.20719
             33  I  3  S      0.26487     0.33674
             34  I  3  X      0.35456     0.52179
             35  I  3  Y      0.52309     0.63172
             36  I  3  Z      0.41336     0.56637
             37  I  3 XX      0.02361     0.21236
             38  I  3 YY      0.01350     0.20756
             39  I  3 ZZ      0.01970     0.20937
             40  I  3 XY      0.00195     0.00154
             41  I  3 XZ      0.00986     0.01420
             42  I  3 YZ      0.00163     0.00127

          ----- MULLIKEN ATOMIC OVERLAP POPULATIONS -----
          (OFF-DIAGONAL ELEMENTS NEED TO BE MULTIPLIED BY 2)

             1           2           3

    1    2.9579866
    2    0.2273068   7.0921219
    3    0.2273068  -0.0257288   7.0921219

          TOTAL MULLIKEN AND LOWDIN ATOMIC POPULATIONS
       ATOM         MULL.POP.    CHARGE          LOW.POP.     CHARGE
    1 PB            3.412600    0.587400         3.554226    0.445774
    2 I             7.293700   -0.293700         7.222887   -0.222887
    3 I             7.293700   -0.293700         7.222887   -0.222887

          -------------------------------
          BOND ORDER AND VALENCE ANALYSIS     BOND ORDER THRESHOLD=0.050
          -------------------------------

                   BOND                       BOND                       BOND
  ATOM PAIR DIST  ORDER      ATOM PAIR DIST  ORDER      ATOM PAIR DIST  ORDER
    1   2  2.809  0.985        1   3  2.809  0.985

                       TOTAL       BONDED        FREE
      ATOM            VALENCE     VALENCE     VALENCE
    1 PB                1.969       1.969       0.000
    2 I                 0.988       0.988      -0.000
    3 I                 0.988       0.988      -0.000

          ---------------------
          ELECTROSTATIC MOMENTS
          ---------------------

 POINT   1           X           Y           Z (BOHR)    CHARGE
                 0.000000    0.000000    1.871554        0.00 (A.U.)
         DX          DY          DZ         /D/  (DEBYE)
    -0.000000    0.000000   -4.358894    4.358894
 ...... END OF PROPERTY EVALUATION ......
 STEP CPU TIME =     0.00 TOTAL CPU TIME =        0.1 (    0.0 MIN)
 TOTAL WALL CLOCK TIME=        0.1 SECONDS, CPU UTILIZATION IS  88.89%

 THE USE OF POINT GROUP SYMMETRY HAS BEEN TURNED OFF.

 -------------------------------   -----------------------------
 MP2 ENERGY GRADIENT CALCULATION   PROGRAM WRITTEN BY K.ISHIMURA
 -------------------------------   -----------------------------
 NUMBER OF OCCUPIED ORBITALS            =    9
 NUMBER OF VIRTUAL ORBITALS             =   33
 NUMBER OF ACTIVE OCCUPIED ORBITALS     =    9
 NUMBER OF ACTIVE VIRTUAL ORBITALS      =   33
 NUMBER OF BASIS FUNCTIONS              =   42
 NUMBER OF BASIS SHELLS                 =    9
 AO INTEGRAL THRESHOLD                  = 1.00E-09
 HALF-TRANSFORMED INTEGRAL THRESHOLD    = 7.09E-11
   REQUIRED DISK =         2 MBYTES/PROCESSOR

 MAXIMUM MEMORY USED DURING MP2 GRADIENT=      175594 WORDS, OR       1 MWORDS.
 BEGINNING    1ST SHELL LOOP...
 .... DONE WITH 1ST THREE INDEX TRANSFORMATIONS ....
 STEP CPU TIME =     0.06 TOTAL CPU TIME =        0.1 (    0.0 MIN)
 TOTAL WALL CLOCK TIME=        0.1 SECONDS, CPU UTILIZATION IS  93.33%

 RESULTS OF MOLLER-PLESSET 2ND ORDER CORRECTION ARE
               E(0)=       -25.9389456564
               E(1)=         0.0
               E(2)=        -0.2621272128
             E(MP2)=       -26.2010728692
 .... DONE WITH 4TH INDEX TRANSFORMATION AND ENERGY ....
 STEP CPU TIME =     0.03 TOTAL CPU TIME =        0.2 (    0.0 MIN)
 TOTAL WALL CLOCK TIME=        0.2 SECONDS, CPU UTILIZATION IS  94.44%
 .... DONE WITH 1ST THREE INDEX TRANSFORMATIONS FOR GRADIENT ....
 STEP CPU TIME =     0.07 TOTAL CPU TIME =        0.2 (    0.0 MIN)
 TOTAL WALL CLOCK TIME=        0.3 SECONDS, CPU UTILIZATION IS  92.31%
 .... DONE WITH 4TH INDEX TRANSFORMATION FOR GRADIENT ....
 STEP CPU TIME =     0.01 TOTAL CPU TIME =        0.3 (    0.0 MIN)
 TOTAL WALL CLOCK TIME=        0.3 SECONDS, CPU UTILIZATION IS  92.59%
 CYCLE  1  Z-VECTOR ERROR= -0.152550E-01
 CYCLE  2  Z-VECTOR ERROR=  0.367681E-02
 CYCLE  3  Z-VECTOR ERROR= -0.100276E-02
 CYCLE  4  Z-VECTOR ERROR=  0.150350E-03
 CYCLE  5  Z-VECTOR ERROR= -0.413881E-04
 CYCLE  6  Z-VECTOR ERROR=  0.691400E-05
 CYCLE  7  Z-VECTOR ERROR= -0.125629E-05
 CYCLE  8  Z-VECTOR ERROR=  0.194254E-06
 CYCLE  9  Z-VECTOR ERROR= -0.319709E-07
 CYCLE 10  Z-VECTOR ERROR=  0.481571E-08
 CYCLE 11  Z-VECTOR ERROR= -0.721644E-09
 CYCLE 12  Z-VECTOR ERROR=  0.122227E-09
 CYCLE 13  Z-VECTOR ERROR= -0.215831E-10
 .... DONE WITH RESPONSE EQUATIONS AND DENSITY ....
 STEP CPU TIME =     0.03 TOTAL CPU TIME =        0.3 (    0.0 MIN)
 TOTAL WALL CLOCK TIME=        0.3 SECONDS, CPU UTILIZATION IS  96.55%

 MP2 NATURAL ORBITAL OCCUPATION NUMBERS ARE
  1.9892 1.9876 1.9697 1.9637 1.9628 1.9610 1.9583 1.9503 1.9475 0.0352
  0.0336 0.0264 0.0204 0.0188 0.0176 0.0171 0.0170 0.0168 0.0167 0.0136
  0.0130 0.0126 0.0081 0.0072 0.0060 0.0056 0.0045 0.0039 0.0027 0.0027
  0.0021 0.0020 0.0019 0.0018 0.0012 0.0012 0.0002 0.0001 0.0001 0.0000
  0.0000-0.0001
 THERE ARE    17.6902 ELECTRONS IN PRINCIPAL MP2 NATURAL ORBITALS.
 THERE ARE     0.3098 ELECTRONS IN SECONDARY MP2 NATURAL ORBITALS.
 THE MP2 NATURAL ORBITALS HAVE BEEN PUNCHED.

 BEGINNING ONE ELECTRON GRADIENT...
 TIME TO DO ORDINARY GRADIENT INTEGRALS=      0.00
 TIME TO DO      ECP GRADIENT INTEGRALS=      0.04
 ..... END OF 1-ELECTRON GRADIENT ......
 STEP CPU TIME =     0.04 TOTAL CPU TIME =        0.3 (    0.0 MIN)
 TOTAL WALL CLOCK TIME=        0.3 SECONDS, CPU UTILIZATION IS  96.97%
 THE COARSE/FINE SCHWARZ SCREENINGS SKIPPED          0/         0 BLOCKS.
 THE NUMBER OF GRADIENT INTEGRAL BLOCKS COMPUTED WAS      3483
 MAXIMUM MEMORY USED DURING MP2 GRADIENT=      175594 WORDS, OR       1 MWORDS.
 ..... DONE WITH MP2 ENERGY .....
 STEP CPU TIME =     0.35 TOTAL CPU TIME =        0.7 (    0.0 MIN)
 TOTAL WALL CLOCK TIME=        0.7 SECONDS, CPU UTILIZATION IS  98.53%

     -------------------------------------------------
     MP2 PROPERTIES...FOR THE FIRST ORDER WAVEFUNCTION
          USING THE RESPONSE (OR RELAXED) DENSITY
     -------------------------------------------------

          -----------------
          ENERGY COMPONENTS
          -----------------

         WAVEFUNCTION NORMALIZATION =       1.0000000000

                ONE ELECTRON ENERGY =     -75.4533447652
                TWO ELECTRON ENERGY =      32.7121067374
           NUCLEAR REPULSION ENERGY =      16.5401651586
                                      ------------------
                       TOTAL ENERGY =     -26.2010728692

 ELECTRON-ELECTRON POTENTIAL ENERGY =      32.7121067374
  NUCLEUS-ELECTRON POTENTIAL ENERGY =     -83.0443715727
   NUCLEUS-NUCLEUS POTENTIAL ENERGY =      16.5401651586
                                      ------------------
             TOTAL POTENTIAL ENERGY =     -33.7920996767
               TOTAL KINETIC ENERGY =       7.5910268075
                 VIRIAL RATIO (V/T) =       4.4515848163

          ---------------------------------------
          MULLIKEN AND LOWDIN POPULATION ANALYSES
          ---------------------------------------

               ----- POPULATIONS IN EACH AO -----
                             MULLIKEN      LOWDIN
              1  PB 1  S      1.88034     1.13313
              2  PB 1  X      0.55960     0.45390
              3  PB 1  Y      0.21789     0.17213
              4  PB 1  Z      0.65820     0.56117
              5  PB 1  S      0.11086     0.23109
              6  PB 1  X     -0.00963     0.11801
              7  PB 1  Y      0.01823     0.10045
              8  PB 1  Z     -0.02230     0.13635
              9  PB 1 XX      0.02231     0.20647
             10  PB 1 YY     -0.01342     0.18302
             11  PB 1 ZZ      0.00986     0.19393
             12  PB 1 XY      0.02328     0.03964
             13  PB 1 XZ      0.04431     0.09210
             14  PB 1 YZ      0.01657     0.02457
             15  I  2  S      1.66343     0.94994
             16  I  2  X      1.26242     1.11176
             17  I  2  Y      1.33154     1.19435
             18  I  2  Z      1.32086     1.17738
             19  I  2  S      0.27017     0.33253
             20  I  2  X      0.35202     0.51676
             21  I  2  Y      0.50873     0.61628
             22  I  2  Z      0.40995     0.56073
             23  I  2 XX      0.02631     0.21970
             24  I  2 YY      0.01375     0.21478
             25  I  2 ZZ      0.02184     0.21693
             26  I  2 XY      0.01883     0.01842
             27  I  2 XZ      0.02360     0.02932
             28  I  2 YZ      0.01849     0.01812
             29  I  3  S      1.66343     0.94994
             30  I  3  X      1.26242     1.11176
             31  I  3  Y      1.33154     1.19435
             32  I  3  Z      1.32086     1.17738
             33  I  3  S      0.27017     0.33253
             34  I  3  X      0.35202     0.51676
             35  I  3  Y      0.50873     0.61628
             36  I  3  Z      0.40995     0.56073
             37  I  3 XX      0.02631     0.21970
             38  I  3 YY      0.01375     0.21478
             39  I  3 ZZ      0.02184     0.21693
             40  I  3 XY      0.01883     0.01842
             41  I  3 XZ      0.02360     0.02932
             42  I  3 YZ      0.01849     0.01812

          ----- MULLIKEN ATOMIC OVERLAP POPULATIONS -----
          (OFF-DIAGONAL ELEMENTS NEED TO BE MULTIPLIED BY 2)

             1           2           3

    1    3.1450506
    2    0.1855209   7.0842591
    3    0.1855209  -0.0278263   7.0842591

          TOTAL MULLIKEN AND LOWDIN ATOMIC POPULATIONS
       ATOM         MULL.POP.    CHARGE          LOW.POP.     CHARGE
    1 PB            3.516093    0.483907         3.645955    0.354045
    2 I             7.241954   -0.241954         7.177023   -0.177023
    3 I             7.241954   -0.241954         7.177023   -0.177023

          -------------------------------
          BOND ORDER AND VALENCE ANALYSIS     BOND ORDER THRESHOLD=0.050
          -------------------------------

                   BOND                       BOND                       BOND
  ATOM PAIR DIST  ORDER      ATOM PAIR DIST  ORDER      ATOM PAIR DIST  ORDER
    1   2  2.809  0.966        1   3  2.809  0.966

                       TOTAL       BONDED        FREE
      ATOM            VALENCE     VALENCE     VALENCE
    1 PB                2.214       1.931       0.283
    2 I                 1.446       0.977       0.469
    3 I                 1.446       0.977       0.469

          ---------------------
          ELECTROSTATIC MOMENTS
          ---------------------

 POINT   1           X           Y           Z (BOHR)    CHARGE
                 0.000000    0.000000    1.871554       -0.00 (A.U.)
         DX          DY          DZ         /D/  (DEBYE)
     0.000000    0.000000   -3.783284    3.783284
 ...... END OF PROPERTY EVALUATION ......
 STEP CPU TIME =     0.00 TOTAL CPU TIME =        0.7 (    0.0 MIN)
 TOTAL WALL CLOCK TIME=        0.7 SECONDS, CPU UTILIZATION IS  98.53%

                         ----------------------
                         GRADIENT OF THE ENERGY
                         ----------------------

 UNITS ARE HARTREE/BOHR    E'X               E'Y               E'Z 
    1 PB               0.000000000       0.000000000      -0.000994767
    2 I               -0.000733036       0.000000000       0.000497384
    3 I                0.000733036       0.000000000       0.000497384

                   MAXIMUM GRADIENT =    0.000994767
                       RMS GRADIENT =    0.000533232


                     --------------------
                     INTERNAL COORDINATES
                     --------------------

                 - - ATOMS - -         COORDINATE        GRADIENT
 NO.   TYPE    I  J  K  L  M  N         (ANG,DEG)     (H/B,H/RAD)
 ----------------------------------------------------------------
   1 STRETCH   1  2                     2.8090772       0.0008818
   2 STRETCH   1  3                     2.8090772       0.0008818
   3 BEND      2  1  3                100.7799762       0.0004468

                   MAXIMUM GRADIENT =    0.000881844
                       RMS GRADIENT =    0.000764836
  $VIB   
          IVIB=   0 IATOM=   0 ICOORD=   0 E=      -26.2010728692
  0.000000000E+00 0.000000000E+00-9.947671206E-04-7.330360849E-04 0.000000000E+00
  4.973835603E-04 7.330360849E-04 0.000000000E+00 4.973835603E-04
  9.030166837E-14 1.480956799E-16-3.783284167E+00

..... END OF SINGLE POINT GRADIENT .....
 STEP CPU TIME =     0.00 TOTAL CPU TIME =        0.7 (    0.0 MIN)
 TOTAL WALL CLOCK TIME=        0.7 SECONDS, CPU UTILIZATION IS  98.53%
               580000  WORDS OF DYNAMIC MEMORY USED
 EXECUTION OF GAMESS TERMINATED NORMALLY Wed Aug  9 20:47:42 2017
 DDI: 263640 bytes (0.3 MB / 0 MWords) used by master data server.

 ----------------------------------------
 CPU timing information for all processes
 ========================================
 0: 0.652 + 0.30 = 0.683
 ----------------------------------------
 ddikick.x: exited gracefully.
unset echo
----- accounting info -----
Files used on the master node compute-0-1.local were:
-rw-rw-r-- 1 sarom sarom  568 Aug  9 20:47 /scratch/ecp-pbi2-ims.F05
-rw-rw-r-- 1 sarom sarom 1.3M Aug  9 20:47 /scratch/ecp-pbi2-ims.F08
-rw-rw-r-- 1 sarom sarom 2.4M Aug  9 20:47 /scratch/ecp-pbi2-ims.F10
rm: No match.
ls: No match.
ls: No match.
ls: No match.
Wed Aug  9 20:47:45 CDT 2017
0.255u 0.163s 0:04.16 9.8%	0+0k 8+360io 0pf+0w
/opt/gridengine/default/spool/compute-0-1/active_jobs/35964.1/pe_hostfile compute-0-1.local
