-catch_rsh /opt/gridengine/default/spool/compute-0-8/active_jobs/23506.1/pe_hostfile
compute-0-8
The primary node assigned by SGE to this run is compute-0-8
Warning: no access to tty (Bad file descriptor).
Thus no job control in this shell.
Deleting shmid=2785280.
Deleting shmid=2818049.
source /home/sarom/gamess.github.2017-05-31.14.06/install.info
setenv GMS_PATH /home/sarom/gamess.github.2017-05-31.14.06
setenv GMS_BUILD_DIR /home/sarom/gamess.github.2017-05-31.14.06
setenv GMS_TARGET linux64
setenv GMS_FORTRAN gfortran
setenv GMS_GFORTRAN_VERNO 4.4
setenv GMS_MATHLIB mkl-so
setenv GMS_MATHLIB_PATH /share/apps/intel/compilers_and_libraries_2017.1.132/linux/mkl/lib/intel64
setenv GMS_MKL_VERNO 12
setenv GMS_DDI_COMM sockets
setenv GMS_LIBCCHEM false
setenv GMS_EIGEN_PATH
setenv GMS_PHI false
setenv GMS_SHMTYPE sysv
setenv GMS_OPENMP false
unset echo
ecp-bisn-hess
tests/ecp
----- GAMESS execution script 'rungms' -----
This job is running on host compute-0-8.local
under operating system Linux at Fri Jun 2 00:56:57 CDT 2017
Available scratch disk space (Kbyte units) at beginning of the job is
Filesystem           1K-blocks      Used Available Use% Mounted on
/dev/sda1             16126920   3867344  11440376  26% /
GAMESS temporary binary files will be written to /scratch
GAMESS supplementary output files will be written to /home/sarom/restart
Copying input file ecp-bisn-hess.inp to your run's scratch directory...
cp tests/ecp/ecp-bisn-hess.inp /scratch/ecp-bisn-hess.F05
unset echo
The generated host list is
compute-0-8.local
/home/sarom/gamess.github.2017-05-31.14.06/ddikick.x /home/sarom/gamess.github.2017-05-31.14.06/gamess.00.x ecp-bisn-hess -ddi 1 1 compute-0-8.local -scr /scratch

 Distributed Data Interface kickoff program.
 Initiating 1 compute processes on 1 nodes to run the following command:
 /home/sarom/gamess.github.2017-05-31.14.06/gamess.00.x ecp-bisn-hess 

          ******************************************************
          *         GAMESS VERSION = 20 APR 2017 (R1)          *
          *             FROM IOWA STATE UNIVERSITY             *
          * M.W.SCHMIDT, K.K.BALDRIDGE, J.A.BOATZ, S.T.ELBERT, *
          *   M.S.GORDON, J.H.JENSEN, S.KOSEKI, N.MATSUNAGA,   *
          *          K.A.NGUYEN, S.J.SU, T.L.WINDUS,           *
          *       TOGETHER WITH M.DUPUIS, J.A.MONTGOMERY       *
          *         J.COMPUT.CHEM.  14, 1347-1363(1993)        *
          **************** 64 BIT LINUX VERSION ****************

  SINCE 1993, STUDENTS AND POSTDOCS WORKING AT IOWA STATE UNIVERSITY
  AND ALSO IN THEIR VARIOUS JOBS AFTER LEAVING ISU HAVE MADE IMPORTANT
  CONTRIBUTIONS TO THE CODE:
     IVANA ADAMOVIC, CHRISTINE AIKENS, YURI ALEXEEV, POOJA ARORA,
     ANDREY ASADCHEV, ROB BELL, PRADIPTA BANDYOPADHYAY, JONATHAN BENTZ,
     BRETT BODE, KURT BRORSEN, CALEB CARLIN, GALINA CHABAN, WEI CHEN,
     CHEOL HO CHOI, PAUL DAY, ALBERT DEFUSCO, NUWAN DESILVA, TIM DUDLEY,
     DMITRI FEDOROV, GRAHAM FLETCHER, MARK FREITAG, KURT GLAESEMANN,
     DAN KEMP, GRANT MERRILL, NORIYUKI MINEZAWA, JONATHAN MULLIN,
     TAKESHI NAGATA, SEAN NEDD, HEATHER NETZLOFF, BOSILJKA NJEGIC, RYAN OLSON,
     MIKE PAK, SPENCER PRUITT, LUKE ROSKOP, JIM SHOEMAKER, LYUDMILA SLIPCHENKO,
     TONY SMITH, SAROM SOK LEANG, JIE SONG, TETSUYA TAKETSUGU, SIMON WEBB,
     PENG XU, SOOHAENG YOO, FEDERICO ZAHARIEV

  ADDITIONAL CODE HAS BEEN PROVIDED BY COLLABORATORS IN OTHER GROUPS:
     IOWA STATE UNIVERSITY:
          JOE IVANIC, AARON WEST, LAIMUTIS BYTAUTAS, KLAUS RUEDENBERG
     UNIVERSITY OF TOKYO: KIMIHIKO HIRAO, TAKAHITO NAKAJIMA,
          TAKAO TSUNEDA, MUNEAKI KAMIYA, SUSUMU YANAGISAWA,
          KIYOSHI YAGI, MAHITO CHIBA, SEIKEN TOKURA, NAOAKI KAWAKAMI
     UNIVERSITY OF AARHUS: FRANK JENSEN
     UNIVERSITY OF IOWA: VISVALDAS KAIRYS, HUI LI
     NATIONAL INST. OF STANDARDS AND TECHNOLOGY: WALT STEVENS, DAVID GARMER
     UNIVERSITY OF PISA: BENEDETTA MENNUCCI, JACOPO TOMASI
     UNIVERSITY OF MEMPHIS: HENRY KURTZ, PRAKASHAN KORAMBATH
     UNIVERSITY OF ALBERTA: TOBY ZENG, MARIUSZ KLOBUKOWSKI
     UNIVERSITY OF NEW ENGLAND: MARK SPACKMAN
     MIE UNIVERSITY: HIROAKI UMEDA
     NAT. INST. OF ADVANCED INDUSTRIAL SCIENCE AND TECHNOLOGY: KAZUO KITAURA
     MICHIGAN STATE UNIVERSITY:
          KAROL KOWALSKI, MARTA WLOCH, JEFFREY GOUR, JESSE LUTZ,
          WEI LI, PIOTR PIECUCH
     UNIVERSITY OF SILESIA: MONIKA MUSIAL, STANISLAW KUCHARSKI
     FACULTES UNIVERSITAIRES NOTRE-DAME DE LA PAIX:
          OLIVIER QUINET, BENOIT CHAMPAGNE
     UNIVERSITY OF CALIFORNIA - SANTA BARBARA: BERNARD KIRTMAN
     INSTITUTE FOR MOLECULAR SCIENCE:
          KAZUYA ISHIMURA, MICHIO KATOUDA, AND SHIGERU NAGASE
     UNIVERSITY OF NOTRE DAME: ANNA POMOGAEVA, DAN CHIPMAN
     KYUSHU UNIVERSITY:
          HARUYUKI NAKANO,
          FENG LONG GU, JACEK KORCHOWIEC, MARCIN MAKOWSKI, AND YURIKO AOKI,
          HIROTOSHI MORI AND EISAKU MIYOSHI
     PENNSYLVANIA STATE UNIVERSITY:
          TZVETELIN IORDANOV, CHET SWALINA, JONATHAN SKONE,
          SHARON HAMMES-SCHIFFER
     WASEDA UNIVERSITY:
          MASATO KOBAYASHI, TOMOKO AKAMA, TSUGUKI TOUMA,
          TAKESHI YOSHIKAWA, YASUHIRO IKABATA, JUNJI SEINO,
          YUYA NAKAJIMA, HIROMI NAKAI
     NANJING UNIVERSITY: SHUHUA LI
     UNIVERSITY OF NEBRASKA:
          PEIFENG SU, DEJUN SI, NANDUN THELLAMUREGE, YALI WANG, HUI LI
     UNIVERSITY OF ZURICH: ROBERTO PEVERATI, KIM BALDRIDGE
     N. COPERNICUS UNIVERSITY AND JACKSON STATE UNIVERSITY:
          MARIA BARYSZ
     UNIVERSITY OF COPENHAGEN: Jimmy Kromann, CASPER STEINMANN
     TOKYO INSTITUTE OF TECHNOLOGY: HIROYA NAKATA
     NAGOYA UNIVERSITY: YOSHIO NISHIMOTO, STEPHAN IRLE
     MOSCOW STATE UNIVERSITY: VLADIMIR MIRONOV

 EXECUTION OF GAMESS BEGUN Fri Jun  2 00:56:57 2017

            ECHO OF THE FIRST FEW INPUT CARDS -
 INPUT CARD>!     multi-center multi-function multi-potential ECP hessian test              
 INPUT CARD>!                                                                               
 INPUT CARD>!     The molecule contains one third row atom, S, with a d potential           
 INPUT CARD>!                         one fourth row atom, Se, with a f potential           
 INPUT CARD>!                          one fifth row atom, Sn, with a f potential           
 INPUT CARD>!                  two sixth row atoms, Bi and At, with a g potential           
 INPUT CARD>!     The heavy atoms all have d functions, and for good measure the            
 INPUT CARD>!     hydrogens have p shells.  Thus every kind of s/p/d one, two, and          
 INPUT CARD>!     three center energy, gradient, and hessian integral should occur.         
 INPUT CARD>!                                                                               
 INPUT CARD>!     There are 90 AOs, 85 MOs in the variation space, and 16 occ. MOs.         
 INPUT CARD>!                                                                               
 INPUT CARD>!     FINAL E= -40.9270015740, 14 iters, dE/dZ(Se) = -0.000007161               
 INPUT CARD>!     residual FREQ=   .24  .13   .08   .09   .26   .41                         
 INPUT CARD>!         true FREQ=            36.04    43.58    58.22    71.60                
 INPUT CARD>!         true FREQ=   85.58    93.26   131.98   140.22   162.96                
 INPUT CARD>!         true FREQ=  219.45   388.03   428.49   431.77   698.06                
 INPUT CARD>!         true FREQ=  721.84   797.11   798.14  2038.84  2042.40                
 INPUT CARD>!         true FREQ= 2048.70  2584.04                                           
 INPUT CARD>!                                                                               
 INPUT CARD>!     This run takes 44 seconds on 2.66 GHz Cloverton ( 6 Apr 2015)             
 INPUT CARD>!     answers haven't changed much since 2003                                   
 INPUT CARD>!                                                                               
 INPUT CARD> $contrl scftyp=rhf runtyp=hessian pp=sbkjc nzvar=21 ispher=1 $end              
 INPUT CARD> $system timlim=999 mwords=10 $end                                              
 INPUT CARD> $statpt opttol=0.00001 nstep=40 $end                                           
 INPUT CARD> $cphf   cphf=ao $end                                                           
 INPUT CARD> $guess  guess=huckel $end                                                      
 INPUT CARD> $basis  gbasis=sbkjc ndfunc=1 npfunc=1 $end                                    
 INPUT CARD> $zmat   izmat(1)=1,1,2,  1,2,3,  1,2,4,  1,2,5,                                
 INPUT CARD>           1,1,6,  1,6,7,  1,1,8,  1,1,9                                        
 INPUT CARD>           2,2,1,6,  2,8,1,6,  2,9,1,6,                                         
 INPUT CARD>           3,2,1,6,7,  3,8,1,6,7,  3,9,1,6,7                                    
 INPUT CARD>           2,3,2,1,  2,4,2,1,  2,5,2,1,   2,7,6,1,                              
 INPUT CARD>           3,3,2,1,6,  3,4,2,1,6,  3,5,2,1,6  $end                              
 INPUT CARD> $data                                                                          
 INPUT CARD>ECP test on artificial molecule...Bi(SnH3)(SeH)At=S...RHF/SBKJC(d) geometry     
 INPUT CARD>C1                                                                              
 INPUT CARD>BI         83.0    .4241618657    .7733015034   -.4018727253                    
 INPUT CARD>SN         50.0   1.1026044541   1.1448814817   2.3968824068                    
 INPUT CARD>H           1.0   1.1851359240   -.4151965946   3.0369538127                    
 INPUT CARD>H           1.0   2.5891517895   1.9438360011   2.3853934202                    
 INPUT CARD>H           1.0   -.1621954485   2.0661898234   3.0252369247                    
 INPUT CARD>SE         34.0   2.0346950995  -1.1088895498  -1.2571579934                    
 INPUT CARD>H           1.0   2.2553165079   -.3932811096  -2.5099827036                    
 INPUT CARD>AT         85.0  -2.1148588775   -.6138440794   -.2008075914                    
 INPUT CARD>S          16.0    .3941703329   2.5921551933  -1.8625010952                    
 INPUT CARD> $end                                                                           
   10000000 WORDS OF MEMORY AVAILABLE

     BASIS OPTIONS
     -------------
     GBASIS=SBKJC        IGAUSS=       0      POLAR=COMMON  
     NDFUNC=       1     NFFUNC=       0     DIFFSP=       F
     NPFUNC=       1      DIFFS=       F     BASNAM=        


     RUN TITLE
     ---------
 ECP test on artificial molecule...Bi(SnH3)(SeH)At=S...RHF/SBKJC(d) geometry     

 THE POINT GROUP OF THE MOLECULE IS C1      
 THE ORDER OF THE PRINCIPAL AXIS IS     0

 ATOM      ATOMIC                      COORDINATES (BOHR)
           CHARGE         X                   Y                   Z
 BI         83.0     0.8015497006        1.4613279473       -0.7594293328
 SN         50.0     2.0836202911        2.1635122888        4.5294509736
 H           1.0     2.2395821546       -0.7846077948        5.7390105434
 H           1.0     4.8927874228        3.6733174071        4.5077399371
 H           1.0    -0.3065049541        3.9045326048        5.7168688356
 SE         34.0     3.8450162066       -2.0954973998       -2.3756841308
 H           1.0     4.2619302155       -0.7431935333       -4.7431795437
 AT         85.0    -3.9965037812       -1.1599971093       -0.3794713240
 S          16.0     0.7448739217        4.8984630330       -3.5196167218

          INTERNUCLEAR DISTANCES (ANGS.)
          ------------------------------

                1 BI         2 SN         3 H          4 H          5 H     

   1 BI      0.0000000    2.9036850 *  3.7171410    3.7183578    3.7095088  
   2 SN      2.9036850 *  0.0000000    1.6882969 *  1.6876858 *  1.6862257 *
   3 H       3.7171410    1.6882969 *  0.0000000    2.8214936 *  2.8236001 *
   4 H       3.7183578    1.6876858 *  2.8214936 *  0.0000000    2.8274161 *
   5 H       3.7095088    1.6862257 *  2.8236001 *  2.8274161 *  0.0000000  
   6 SE      2.6206818 *  4.3932093    4.4319699    4.7848444    5.7659660  
   7 H       3.0262469    5.2699160    5.6492718    5.4349121    6.5216576  
   8 AT      2.9002114 *  4.4936821    4.6273670    5.9462492    4.6263203  
   9 S       2.3329302 *  4.5539903    5.8029690    4.8252326    4.9473392  

                6 SE         7 H          8 AT         9 S     

   1 BI      2.6206818 *  3.0262469    2.9002114 *  2.3329302 *
   2 SN      4.3932093    5.2699160    4.4936821    4.5539903  
   3 H       4.4319699    5.6492718    4.6273670    5.8029690  
   4 H       4.7848444    5.4349121    5.9462492    4.8252326  
   5 H       5.7659660    6.5216576    4.6263203    4.9473392  
   6 SE      0.0000000    1.4595681 *  4.3104228    4.0933475  
   7 H       1.4595681 *  0.0000000    4.9476631    3.5771396  
   8 AT      4.3104228    4.9476631    0.0000000    4.3971450  
   9 S       4.0933475    3.5771396    4.3971450    0.0000000  

  * ... LESS THAN  3.000


     ATOMIC BASIS SET
     ----------------
 THE CONTRACTED PRIMITIVE FUNCTIONS HAVE BEEN UNNORMALIZED
 THE CONTRACTED BASIS FUNCTIONS ARE NOW NORMALIZED TO UNITY

  SHELL TYPE  PRIMITIVE        EXPONENT          CONTRACTION COEFFICIENT(S)

 BI        

      1   L       1             1.7460000    0.162327073286    0.016086994265
      1   L       2             0.9925000   -0.653854295196   -0.158283943571
      1   L       3             0.2642000    0.801350361786    0.460931835675
      1   L       4             0.1135000    0.516861233348    0.649769768353

      2   L       5             0.0464200    1.000000000000    1.000000000000

      3   D       6             0.1850000    1.000000000000

 SN        

      4   L       7             2.6040000    0.031041994580   -0.005052998725
      4   L       8             0.7532000   -0.611858893167   -0.180099954553
      4   L       9             0.3191000    0.548162904289    0.370067906616
      4   L      10             0.1239000    0.849149851735    0.781333802836

      5   L      11             0.0479800    1.000000000000    1.000000000000

      6   D      12             0.1830000    1.000000000000

 H         

      7   S      13            13.0077340    0.033494604338
      7   S      14             1.9620794    0.234726953484
      7   S      15             0.4445290    0.813757326146

      8   S      16             0.1219492    1.000000000000

      9   P      17             1.1000000    1.000000000000

 H         

     10   S      18            13.0077340    0.033494604338
     10   S      19             1.9620794    0.234726953484
     10   S      20             0.4445290    0.813757326146

     11   S      21             0.1219492    1.000000000000

     12   P      22             1.1000000    1.000000000000

 H         

     13   S      23            13.0077340    0.033494604338
     13   S      24             1.9620794    0.234726953484
     13   S      25             0.4445290    0.813757326146

     14   S      26             0.1219492    1.000000000000

     15   P      27             1.1000000    1.000000000000

 SE        

     16   L      28             3.7110000    0.055743967977   -0.006013994687
     16   L      29             1.5860000   -0.510519706723   -0.121446892715
     16   L      30             0.5339000    0.480754723822    0.452606600171
     16   L      31             0.2085000    0.810291534513    0.669750408348

     17   L      32             0.0782100    1.000000000000    1.000000000000

     18   D      33             0.3380000    1.000000000000

 H         

     19   S      34            13.0077340    0.033494604338
     19   S      35             1.9620794    0.234726953484
     19   S      36             0.4445290    0.813757326146

     20   S      37             0.1219492    1.000000000000

     21   P      38             1.1000000    1.000000000000

 AT        

     22   L      39             2.6760000    0.068972990904   -0.002651999541
     22   L      40             0.9805000   -0.718667905224   -0.194970966270
     22   L      41             0.3598000    0.917122879052    0.506171912432
     22   L      42             0.1483000    0.546748927896    0.653170887001

     23   L      43             0.0588700    1.000000000000    1.000000000000

     24   D      44             0.2250000    1.000000000000

 S         

     25   L      45             1.8170000   -0.417934002617   -0.130218346562
     25   L      46             0.8379000    0.240832702787    0.402985540807
     25   L      47             0.2854000    1.015696964880    0.746872382729

     26   L      48             0.0993900    1.000000000000    1.000000000000

     27   D      49             0.6500000    1.000000000000

 TOTAL NUMBER OF BASIS SET SHELLS             =   27
 NUMBER OF CARTESIAN GAUSSIAN BASIS FUNCTIONS =   90
 NOTE: THIS RUN WILL RESTRICT THE MO VARIATION SPACE TO SPHERICAL HARMONICS.
 THE NUMBER OF ORBITALS KEPT IN THE VARIATIONAL SPACE WILL BE PRINTED LATER.
 NUMBER OF ELECTRONS                          =  272
 CHARGE OF MOLECULE                           =    0
 SPIN MULTIPLICITY                            =    1
 NUMBER OF OCCUPIED ORBITALS (ALPHA)          =  136
 NUMBER OF OCCUPIED ORBITALS (BETA )          =  136
 TOTAL NUMBER OF ATOMS                        =    9
 THE NUCLEAR REPULSION ENERGY IS     4471.1758130933
 NOTE THIS RUN IS USING CORE POTENTIALS, AND THE NUMBER OF ELECTRONS,
 OCCUPIED ORBITALS, AND NUCLEAR REPULSION ENERGY WILL BE ADJUSTED BELOW
 AFTER REMOVAL OF THE CORE CHARGES.

     $CONTRL OPTIONS
     ---------------
 SCFTYP=RHF          RUNTYP=HESSIAN      EXETYP=RUN     
 MPLEVL=       0     CITYP =NONE         CCTYP =NONE         VBTYP =NONE    
 DFTTYP=NONE         TDDFT =NONE    
 MULT  =       1     ICHARG=       0     NZVAR =      21     COORD =UNIQUE  
 PP    =SBKJC        RELWFN=NONE         LOCAL =NONE         NUMGRD=       F
 ISPHER=       1     NOSYM =       0     MAXIT =      30     UNITS =ANGS    
 PLTORB=       F     MOLPLT=       F     AIMPAC=       F     FRIEND=        
 NPRINT=       7     IREST =       0     GEOM  =INPUT   
 NORMF =       0     NORMP =       0     ITOL  =      20     ICUT  =       9
 INTTYP=BEST         GRDTYP=BEST         QMTTOL= 1.0E-06

     $SYSTEM OPTIONS
     ---------------
  REPLICATED MEMORY=    10000000 WORDS (ON EVERY NODE).
 DISTRIBUTED MEMDDI=           0 MILLION WORDS IN AGGREGATE,
 MEMDDI DISTRIBUTED OVER   1 PROCESSORS IS           0 WORDS/PROCESSOR.
 TOTAL MEMORY REQUESTED ON EACH PROCESSOR=    10000000 WORDS.
 TIMLIM=         999.00 MINUTES, OR       0.7 DAYS.
 PARALL= F  BALTYP=  DLB     KDIAG=    0  COREFL= F
 MXSEQ2=     300 MXSEQ3=     150  mem10=         0

          --------------
          ECP POTENTIALS
          --------------

 PARAMETERS FOR "SBKJC-83" ON ATOM    1 WITH ZCORE  78 AND LMAX  4 ARE
 FOR L= 4      COEFF    N           ZETA
    1       -5.34991    1        0.77941
 FOR L= 0      COEFF    N           ZETA
    1        5.91224    0        0.58082
    2      -46.52354    2        0.86480
    3       58.30673    2        0.95682
 FOR L= 1      COEFF    N           ZETA
    1        7.58772    0        2.41860
    2       -1.55133    2        0.51229
    3       17.65062    2        0.98429
 FOR L= 2      COEFF    N           ZETA
    1        8.20935    0        4.10212
    2        8.38970    2        0.63052
 FOR L= 3      COEFF    N           ZETA
    1      -31.22481    0        0.57108
    2       31.99918    0        1.17643
    3       16.82287    2        0.78832

 PARAMETERS FOR "SBKJC-50" ON ATOM    2 WITH ZCORE  46 AND LMAX  3 ARE
 FOR L= 3      COEFF    N           ZETA
    1       -5.60682    1        0.82050
 FOR L= 0      COEFF    N           ZETA
    1        7.18487    0        2.60504
    2      -73.06581    2        0.95780
    3       91.84771    2        1.01356
 FOR L= 1      COEFF    N           ZETA
    1        5.07311    0        0.67947
    2      -87.03674    2        0.74276
    3       95.37048    2        0.76292
 FOR L= 2      COEFF    N           ZETA
    1        5.10243    0        1.65430
    2        5.27466    2        0.60301

 PARAMETERS FOR "SBKJC-34" ON ATOM    6 WITH ZCORE  28 AND LMAX  3 ARE
 FOR L= 3      COEFF    N           ZETA
    1       -5.58498    1        2.09356
 FOR L= 0      COEFF    N           ZETA
    1       13.28081    0       20.55644
    2       51.00011    2        3.15490
 FOR L= 1      COEFF    N           ZETA
    1        1.79640    0        2.58495
    2       30.43787    2        2.58526
 FOR L= 2      COEFF    N           ZETA
    1        2.40001    0        1.38290
    2        6.59948    2        1.42671

 PARAMETERS FOR "SBKJC-85" ON ATOM    8 WITH ZCORE  78 AND LMAX  4 ARE
 FOR L= 4      COEFF    N           ZETA
    1       -8.22821    1        1.18142
 FOR L= 0      COEFF    N           ZETA
    1        6.65302    0        0.49276
    2      -15.98654    2        0.85421
    3       33.10060    2        1.27555
 FOR L= 1      COEFF    N           ZETA
    1       10.73147    0        3.37381
    2     -128.82729    2        0.93728
    3      150.80821    2        0.97488
 FOR L= 2      COEFF    N           ZETA
    1       15.83166    0        3.88638
    2       14.55150    2        0.87679
 FOR L= 3      COEFF    N           ZETA
    1        4.27097    0        1.12284
    2       -3.39500    2        1.15530

 PARAMETERS FOR "SBKJC-16" ON ATOM    9 WITH ZCORE  10 AND LMAX  2 ARE
 FOR L= 2      COEFF    N           ZETA
    1       -3.29839    1        3.98930
 FOR L= 0      COEFF    N           ZETA
    1        6.44496    0       15.58064
    2       35.62708    2        3.50176
 FOR L= 1      COEFF    N           ZETA
    1        3.35704    0        6.88540
    2       17.54237    2        2.90690

 THE ECP RUN REMOVES  240 CORE ELECTRONS, AND THE SAME NUMBER OF PROTONS.
 NUMBER OF ELECTRONS KEPT IN THE CALCULATION IS =   32
 NUMBER OF OCCUPIED ORBITALS (ALPHA) KEPT IS    =   16
 NUMBER OF OCCUPIED ORBITALS (BETA ) KEPT IS    =   16
 THE ADJUSTED NUCLEAR REPULSION ENERGY=       64.5588259563
          ECP ANGULAR INTS.........     0.01 SECONDS

          ----------------
          PROPERTIES INPUT
          ----------------

     MOMENTS            FIELD           POTENTIAL          DENSITY
 IEMOM =       1   IEFLD =       0   IEPOT =       0   IEDEN =       0
 WHERE =COMASS     WHERE =NUCLEI     WHERE =NUCLEI     WHERE =NUCLEI  
 OUTPUT=BOTH       OUTPUT=BOTH       OUTPUT=BOTH       OUTPUT=BOTH    
 IEMINT=       0   IEFINT=       0                     IEDINT=       0
                                                       MORB  =       0
          EXTRAPOLATION IN EFFECT
          SOSCF IN EFFECT
 ORBITAL PRINTING OPTION: NPREO=     1    90     2     1

     -------------------------------
     INTEGRAL TRANSFORMATION OPTIONS
     -------------------------------
     NWORD  =            0
     CUTOFF = 1.0E-09     MPTRAN =       0
     DIRTRF =       F     AOINTS =DUP     

          ----------------------
          INTEGRAL INPUT OPTIONS
          ----------------------
 NOPK  =       1 NORDER=       0 SCHWRZ=       T

     ------------------------------------------
     THE POINT GROUP IS C1 , NAXIS= 0, ORDER= 1
     ------------------------------------------

 -- VARIATIONAL SPACE WILL BE RESTRICTED TO PURE SPHERICAL HARMONICS ONLY --
 AFTER EXCLUDING CONTAMINANT COMBINATIONS FROM THE CARTESIAN GAUSSIAN BASIS
 SET, THE NUMBER OF SPHERICAL HARMONICS KEPT IN THE VARIATION SPACE IS   85

     DIMENSIONS OF THE SYMMETRY SUBSPACES ARE
 A   =   85

 ..... DONE SETTING UP THE RUN .....
 STEP CPU TIME =     0.02 TOTAL CPU TIME =        0.0 (    0.0 MIN)
 TOTAL WALL CLOCK TIME=        0.0 SECONDS, CPU UTILIZATION IS  66.67%

     ---------------------------------
     HESSIAN MATRIX CONTROL PARAMETERS
     ---------------------------------
     METHOD=ANALYTIC   NVIB  =       2   VIBSIZ= 0.01000
     RDHESS=       F   PURIFY=       F   PRTIFC=       F
     VIBANL=       T   DECOMP=       F   PROJCT=       F
     SCLFAC= 1.00000   PRTSCN=       F   NPRT  =       0
     PULCOR=       F   NPUN  =       0   REDOVB=       T
     HSSTYP=GENERAL 
     THERMOCHEMISTRY WILL BE PRINTED FOR    1 TEMPERATURES:
      298.15000

   --- ENCODED Z MATRIX ---
 COORD  TYPE   I   J   K   L   M   N
    1      1    1   2
    2      1    2   3
    3      1    2   4
    4      1    2   5
    5      1    1   6
    6      1    6   7
    7      1    1   8
    8      1    1   9
    9      2    2   1   6
   10      2    8   1   6
   11      2    9   1   6
   12      3    2   1   6   7
   13      3    8   1   6   7
   14      3    9   1   6   7
   15      2    3   2   1
   16      2    4   2   1
   17      2    5   2   1
   18      2    7   6   1
   19      3    3   2   1   6
   20      3    4   2   1   6
   21      3    5   2   1   6

 THE DETERMINANT OF THE G MATRIX IS 10**(   -30)

 THE DETERMINANT OF THE G MATRIX IS 10**(   -30)
 * * * WARNING * * *
 YOUR B MATRIX HAS A SMALL DETERMINANT.
 THIS SUGGESTS YOU MAY HAVE BADLY CHOSEN COORDINATES.


                     --------------------
                     INTERNAL COORDINATES
                     --------------------

                 - - ATOMS - -         COORDINATE      COORDINATE
 NO.   TYPE    I  J  K  L  M  N        (BOHR,RAD)       (ANG,DEG)
 ----------------------------------------------------------------
   1 STRETCH   1  2                     5.4871689       2.9036850
   2 STRETCH   2  3                     3.1904185       1.6882969
   3 STRETCH   2  4                     3.1892637       1.6876858
   4 STRETCH   2  5                     3.1865046       1.6862257
   5 STRETCH   1  6                     4.9523706       2.6206818
   6 STRETCH   6  7                     2.7581837       1.4595681
   7 STRETCH   1  8                     5.4806049       2.9002114
   8 STRETCH   1  9                     4.4085989       2.3329302
   9 BEND      2  1  6                  1.8368082     105.2413595
  10 BEND      8  1  6                  1.7896655     102.5402799
  11 BEND      9  1  6                  1.9428339     111.3161804
  12 TORSION   2  1  6  7              -2.4193614    -138.6191947
  13 TORSION   8  1  6  7               2.0177322     115.6075373
  14 TORSION   9  1  6  7              -0.1142770      -6.5475870
  15 BEND      3  2  1                  1.8323630     104.9866686
  16 BEND      4  2  1                  1.8336338     105.0594754
  17 BEND      5  2  1                  1.8274419     104.7047069
  18 BEND      7  6  1                  1.5916939      91.1973442
  19 TORSION   3  2  1  6              -0.8168880     -46.8042321
  20 TORSION   4  2  1  6               1.2747304      73.0366695
  21 TORSION   5  2  1  6              -2.9097227    -166.7148319
 Old integral subroutine is used

     ------------------------------
     CPHF RESPONSE SOLUTION OPTIONS
     ------------------------------
     POLAR  =       F     NWORD  =       0
     CPHF   =AO      

          ********************
          1 ELECTRON INTEGRALS
          ********************
 TIME TO DO ORDINARY INTEGRALS=      0.01
 TIME TO DO      ECP INTEGRALS=      0.06
 ...... END OF ONE-ELECTRON INTEGRALS ......
 STEP CPU TIME =     0.07 TOTAL CPU TIME =        0.1 (    0.0 MIN)
 TOTAL WALL CLOCK TIME=        0.1 SECONDS, CPU UTILIZATION IS  90.00%

          -------------
          GUESS OPTIONS
          -------------
          GUESS =HUCKEL            NORB  =       0          NORDER=       0
          MIX   =       F          PRTMO =       F          PUNMO =       F
          TOLZ  = 1.0E-08          TOLE  = 1.0E-05
          SYMDEN=       F          PURIFY=       F

 INITIAL GUESS ORBITALS GENERATED BY HUCKEL   ROUTINE.
 HUCKEL GUESS REQUIRES     84978 WORDS.

 STATISTICS FOR GENERATION OF SYMMETRY ORBITAL -Q- MATRIX
 NUMBER OF CARTESIAN ATOMIC ORBITALS=         90
 NUMBER OF SPHERICAL CONTAMINANTS DROPPED=     5
 NUMBER OF LINEARLY DEPENDENT MOS DROPPED=     0
 TOTAL NUMBER OF MOS IN VARIATION SPACE=      85

 SYMMETRIES FOR INITIAL GUESS ORBITALS FOLLOW.   BOTH SET(S).
    16 ORBITALS ARE OCCUPIED (    0 CORE ORBITALS).
     1=A        2=A        3=A        4=A        5=A        6=A        7=A   
     8=A        9=A       10=A       11=A       12=A       13=A       14=A   
    15=A       16=A       17=A       18=A       19=A       20=A       21=A   
    22=A       23=A       24=A       25=A       26=A   
 ...... END OF INITIAL ORBITAL SELECTION ......
 STEP CPU TIME =     0.01 TOTAL CPU TIME =        0.1 (    0.0 MIN)
 TOTAL WALL CLOCK TIME=        0.1 SECONDS, CPU UTILIZATION IS  90.91%

                    ----------------------
                    AO INTEGRAL TECHNOLOGY
                    ----------------------
     S,P,L SHELL ROTATED AXIS INTEGRALS, REPROGRAMMED BY
        KAZUYA ISHIMURA (IMS) AND JOSE SIERRA (SYNSTAR).
     S,P,D,L SHELL ROTATED AXIS INTEGRALS PROGRAMMED BY
        KAZUYA ISHIMURA (INSTITUTE FOR MOLECULAR SCIENCE).
     S,P,D,F,G SHELL TO TOTAL QUARTET ANGULAR MOMENTUM SUM 5,
        ERIC PROGRAM BY GRAHAM FLETCHER (ELORET AND NASA ADVANCED
        SUPERCOMPUTING DIVISION, AMES RESEARCH CENTER).
     S,P,D,F,G,L SHELL GENERAL RYS QUADRATURE PROGRAMMED BY
        MICHEL DUPUIS (PACIFIC NORTHWEST NATIONAL LABORATORY).

          --------------------
          2 ELECTRON INTEGRALS
          --------------------

 THE -PK- OPTION IS OFF, THE INTEGRALS ARE NOT IN SUPERMATRIX FORM.
 STORING   15000 INTEGRALS/RECORD ON DISK, USING 12 BYTES/INTEGRAL.
 TWO ELECTRON INTEGRAL EVALUATION REQUIRES   90774 WORDS OF MEMORY.
 SCHWARZ INEQUALITY OVERHEAD:      4044 INTEGRALS, T=        0.00
 II,JST,KST,LST =  1  1  1  1 NREC =         1 INTLOC =    1
 II,JST,KST,LST =  2  1  1  1 NREC =         1 INTLOC =   17
 II,JST,KST,LST =  3  1  1  1 NREC =         1 INTLOC =  139
 II,JST,KST,LST =  4  1  1  1 NREC =         1 INTLOC =  880
 II,JST,KST,LST =  5  1  1  1 NREC =         1 INTLOC = 9982
 II,JST,KST,LST =  6  1  1  1 NREC =         2 INTLOC =11918
 II,JST,KST,LST =  7  1  1  1 NREC =         5 INTLOC =13250
 II,JST,KST,LST =  8  1  1  1 NREC =         6 INTLOC =10458
 II,JST,KST,LST =  9  1  1  1 NREC =         7 INTLOC = 8973
 II,JST,KST,LST = 10  1  1  1 NREC =        10 INTLOC =13178
 II,JST,KST,LST = 11  1  1  1 NREC =        12 INTLOC = 2846
 II,JST,KST,LST = 12  1  1  1 NREC =        13 INTLOC = 9301
 II,JST,KST,LST = 13  1  1  1 NREC =        18 INTLOC = 9209
 II,JST,KST,LST = 14  1  1  1 NREC =        20 INTLOC = 8696
 II,JST,KST,LST = 15  1  1  1 NREC =        22 INTLOC =10693
 II,JST,KST,LST = 16  1  1  1 NREC =        29 INTLOC = 9865
 II,JST,KST,LST = 17  1  1  1 NREC =        40 INTLOC = 9631
 II,JST,KST,LST = 18  1  1  1 NREC =        56 INTLOC = 5672
 II,JST,KST,LST = 19  1  1  1 NREC =        81 INTLOC =13533
 II,JST,KST,LST = 20  1  1  1 NREC =        86 INTLOC = 9375
 II,JST,KST,LST = 21  1  1  1 NREC =        92 INTLOC = 9166
 II,JST,KST,LST = 22  1  1  1 NREC =       108 INTLOC = 1339
 II,JST,KST,LST = 23  1  1  1 NREC =       139 INTLOC =  955
 II,JST,KST,LST = 24  1  1  1 NREC =       178 INTLOC =13274
 II,JST,KST,LST = 25  1  1  1 NREC =       244 INTLOC =13943
 II,JST,KST,LST = 26  1  1  1 NREC =       295 INTLOC = 2044
 II,JST,KST,LST = 27  1  1  1 NREC =       363 INTLOC =10526
 SCHWARZ INEQUALITY TEST SKIPPED       10662 INTEGRAL BLOCKS.
 TOTAL NUMBER OF NONZERO TWO-ELECTRON INTEGRALS =             6919028
        462 INTEGRAL RECORDS WERE STORED ON DISK FILE  8.
  ...... END OF TWO-ELECTRON INTEGRALS .....
 STEP CPU TIME =     0.34 TOTAL CPU TIME =        0.4 (    0.0 MIN)
 TOTAL WALL CLOCK TIME=        0.5 SECONDS, CPU UTILIZATION IS  97.78%

          --------------------------
                 RHF SCF CALCULATION
          --------------------------

     NUCLEAR ENERGY =        64.5588259563
     MAXIT =   30     NPUNCH=    2
     EXTRAP=T  DAMP=F  SHIFT=F  RSTRCT=F  DIIS=F  DEM=F  SOSCF=T
     DENSITY MATRIX CONV=  1.00E-05
     SOSCF WILL OPTIMIZE    1104 ORBITAL ROTATIONS, SOGTOL=   0.250
     MEMORY REQUIRED FOR RHF ITERS=     92376 WORDS.

 ITER EX DEM     TOTAL ENERGY        E CHANGE  DENSITY CHANGE     ORB. GRAD
   1  0  0      -40.0849392072   -40.0849392072   1.093478643   0.000000000
          ---------------START SECOND ORDER SCF---------------
   2  1  0      -40.7155879028    -0.6306486956   0.464212044   0.080947759
   3  2  0      -40.7602561402    -0.0446682374   0.181281266   0.056481736
   4  3  0      -40.9135110193    -0.1532548792   0.179455726   0.024272620
   5  4  0      -40.9208912205    -0.0073802011   0.059422143   0.017518320
   6  5  0      -40.9266954624    -0.0058042419   0.010234018   0.003092910
   7  6  0      -40.9269570555    -0.0002615931   0.006512530   0.000629077
   8  7  0      -40.9269944275    -0.0000373720   0.002164068   0.000314866
   9  8  0      -40.9270004666    -0.0000060392   0.001126748   0.000113841
  10  9  0      -40.9270014067    -0.0000009401   0.000199979   0.000024684
  11 10  0      -40.9270014498    -0.0000000430   0.000087914   0.000008086
  12 11  0      -40.9270014567    -0.0000000069   0.000021177   0.000003446
  13 12  0      -40.9270014573    -0.0000000007   0.000009653   0.000001264
  14 13  0      -40.9270014574    -0.0000000001   0.000003479   0.000000336

          -----------------
          DENSITY CONVERGED
          -----------------
     TIME TO FORM FOCK OPERATORS=       1.0 SECONDS (       0.1 SEC/ITER)
     TIME TO SOLVE SCF EQUATIONS=       0.0 SECONDS (       0.0 SEC/ITER)

 FINAL RHF ENERGY IS      -40.9270014574 AFTER  14 ITERATIONS

          ------------
          EIGENVECTORS
          ------------

                      1          2          3          4          5
                   -0.9747    -0.9416    -0.8992    -0.7562    -0.6879
                     A          A          A          A          A   
    1  BI 1  S    0.410751  -0.039118   0.314958   0.500483  -0.486927
    2  BI 1  X    0.000746  -0.084815  -0.007586   0.022278   0.009923
    3  BI 1  Y   -0.025792   0.007700   0.140471  -0.046407   0.053625
    4  BI 1  Z   -0.035703   0.029801  -0.063521   0.137983   0.027403
    5  BI 1  S   -0.024127  -0.016097   0.011668   0.068198  -0.065465
    6  BI 1  X    0.008283   0.002421  -0.003561  -0.003108   0.010829
    7  BI 1  Y    0.008928   0.004604   0.008720  -0.009669   0.020743
    8  BI 1  Z   -0.020626   0.006409  -0.007994   0.013786  -0.013720
    9  BI 1 XX    0.001271   0.008700  -0.017715  -0.004145  -0.004819
   10  BI 1 YY    0.005781  -0.006556   0.008455  -0.012243  -0.004733
   11  BI 1 ZZ   -0.007052  -0.002144   0.009260   0.016388   0.009552
   12  BI 1 XY   -0.002852   0.021087   0.003174   0.000790   0.001268
   13  BI 1 XZ   -0.005942   0.002850   0.004132   0.007050   0.004400
   14  BI 1 YZ   -0.003971  -0.004469  -0.026530   0.008300   0.001537
   15  SN 2  S    0.039865  -0.002651   0.038363   0.446675   0.494470
   16  SN 2  X   -0.006448  -0.000199  -0.004886  -0.010296   0.022237
   17  SN 2  Y   -0.004057   0.000155  -0.002333  -0.007692   0.012217
   18  SN 2  Z   -0.024972   0.002328  -0.020191  -0.042440   0.090455
   19  SN 2  S    0.018771  -0.001226  -0.001474  -0.060866   0.010193
   20  SN 2  X   -0.003612  -0.000962   0.000185   0.008159  -0.000429
   21  SN 2  Y   -0.002367  -0.001174  -0.003534   0.006820  -0.003387
   22  SN 2  Z   -0.005916   0.000647   0.002184   0.028679  -0.003104
   23  SN 2 XX   -0.003996  -0.000430  -0.002753  -0.002539   0.011730
   24  SN 2 YY   -0.004870   0.000694  -0.002995  -0.003222   0.013464
   25  SN 2 ZZ    0.008866  -0.000264   0.005748   0.005761  -0.025194
   26  SN 2 XY    0.000316  -0.000523   0.000635  -0.000058  -0.001270
   27  SN 2 XZ    0.004480  -0.001481   0.002496   0.002171  -0.010501
   28  SN 2 YZ    0.002332   0.000155   0.003537   0.000862  -0.004423
   29  H  3  S    0.006704  -0.000365   0.005148   0.105538   0.150485
   30  H  3  S   -0.000498  -0.000629   0.002469   0.045227   0.056947
   31  H  3  X   -0.000071  -0.000016  -0.000030  -0.000456  -0.000359
   32  H  3  Y    0.000614  -0.000054   0.000601   0.007283   0.009300
   33  H  3  Z   -0.000358   0.000044  -0.000227  -0.003359  -0.003320
   34  H  4  S    0.006319  -0.000956   0.006359   0.103618   0.151475
   35  H  4  S   -0.000262   0.001354   0.003734   0.042747   0.055289
   36  H  4  X   -0.000591   0.000035  -0.000634  -0.006962  -0.008739
   37  H  4  Y   -0.000305   0.000020  -0.000298  -0.003768  -0.004712
   38  H  4  Z   -0.000056   0.000060  -0.000113  -0.000194   0.000517
   39  H  5  S    0.006153   0.000397   0.006364   0.103968   0.151108
   40  H  5  S   -0.000294  -0.001180   0.002967   0.043201   0.056991
   41  H  5  X    0.000472  -0.000068   0.000466   0.005840   0.007664
   42  H  5  Y   -0.000362   0.000004  -0.000328  -0.004345  -0.005455
   43  H  5  Z   -0.000293  -0.000036  -0.000349  -0.003185  -0.003308
   44  SE 6  S    0.487212  -0.512732  -0.348979  -0.146823   0.113146
   45  SE 6  X   -0.028415   0.006311  -0.013828  -0.053932   0.078496
   46  SE 6  Y    0.056988  -0.040305  -0.003998   0.035414  -0.050615
   47  SE 6  Z   -0.012036   0.028728   0.031951   0.067071  -0.076419
   48  SE 6  S    0.031995  -0.034334  -0.033197  -0.037781   0.041635
   49  SE 6  X    0.005070  -0.008045  -0.006937   0.000575  -0.000268
   50  SE 6  Y   -0.012631   0.012985   0.003841   0.001744  -0.004207
   51  SE 6  Z    0.007314  -0.001127   0.006222   0.001108   0.005592
   52  SE 6 XX   -0.002462   0.004319   0.004389   0.004839  -0.006028
   53  SE 6 YY    0.002746  -0.000458   0.001561   0.004541  -0.005789
   54  SE 6 ZZ   -0.000284  -0.003861  -0.005950  -0.009380   0.011817
   55  SE 6 XY   -0.009517   0.003086  -0.003180  -0.010886   0.013423
   56  SE 6 XZ   -0.006147   0.003832   0.000494  -0.002541   0.002954
   57  SE 6 YZ    0.000665   0.004616   0.007438   0.012422  -0.012554
   58  H  7  S    0.102015  -0.114647  -0.081113  -0.061610   0.060427
   59  H  7  S    0.017103  -0.015443  -0.008969  -0.014301   0.023530
   60  H  7  X   -0.001781   0.001738   0.001032   0.000245   0.000135
   61  H  7  Y   -0.005165   0.005551   0.003922   0.002742  -0.002840
   62  H  7  Z    0.009424  -0.009846  -0.006472  -0.003617   0.003209
   63  AT 8  S    0.499830   0.718776  -0.258281  -0.160906   0.122876
   64  AT 8  X    0.038228   0.013824   0.015067   0.064796  -0.084564
   65  AT 8  Y    0.019541   0.007487   0.011094   0.033077  -0.042509
   66  AT 8  Z   -0.000922   0.002480  -0.003252   0.000623   0.010382
   67  AT 8  S    0.038808   0.046538  -0.018549  -0.035662   0.050588
   68  AT 8  X    0.002180  -0.001214   0.000949  -0.010534   0.018591
   69  AT 8  Y    0.000169  -0.002073  -0.003445  -0.003661   0.007272
   70  AT 8  Z    0.003483  -0.000132   0.002418   0.002607   0.003011
   71  AT 8 XX    0.007698   0.003380   0.003298   0.005335  -0.006405
   72  AT 8 YY   -0.001941  -0.001568  -0.001457  -0.001521   0.000996
   73  AT 8 ZZ   -0.005757  -0.001812  -0.001841  -0.003814   0.005409
   74  AT 8 XY    0.008198   0.002929   0.001697   0.006941  -0.007273
   75  AT 8 XZ    0.000141  -0.000036   0.000054  -0.000677   0.002037
   76  AT 8 YZ    0.000417   0.000107   0.000307  -0.000392   0.001024
   77  S  9  S    0.218590  -0.040932   0.597127  -0.348975   0.257483
   78  S  9  X    0.002010  -0.004088   0.002366   0.000516   0.001828
   79  S  9  Y   -0.041196   0.006770  -0.057044  -0.034879   0.067782
   80  S  9  Z    0.030829  -0.003305   0.049807   0.034139  -0.048030
   81  S  9  S    0.025867  -0.001344   0.088455  -0.103828   0.102245
   82  S  9  X   -0.000985   0.001909   0.001309  -0.000586  -0.000555
   83  S  9  Y    0.009352  -0.003729   0.023035  -0.010446   0.007838
   84  S  9  Z   -0.002914   0.000515  -0.018056   0.008423  -0.006062
   85  S  9 XX   -0.005920   0.000726  -0.008722  -0.002945   0.005445
   86  S  9 YY    0.005197  -0.000829   0.006607   0.001660  -0.005516
   87  S  9 ZZ    0.000722   0.000103   0.002115   0.001286   0.000071
   88  S  9 XY   -0.000245   0.000803  -0.000568   0.000022  -0.000287
   89  S  9 XZ    0.000125  -0.000686   0.000336   0.000226   0.000071
   90  S  9 YZ   -0.009913   0.001303  -0.014751  -0.005531   0.009337

                      6          7          8          9         10
                   -0.5311    -0.5029    -0.5019    -0.4405    -0.4351
                     A          A          A          A          A   
    1  BI 1  S   -0.103090   0.009788  -0.004899  -0.019634  -0.047769
    2  BI 1  X    0.065991   0.073861  -0.004785   0.373027  -0.278590
    3  BI 1  Y   -0.137652   0.018764   0.039928  -0.175432  -0.290333
    4  BI 1  Z    0.043378  -0.028251   0.010782  -0.268393  -0.267596
    5  BI 1  S   -0.083980   0.007726  -0.009838   0.001154  -0.002849
    6  BI 1  X   -0.017782   0.002925  -0.002338   0.021113  -0.012749
    7  BI 1  Y    0.030992  -0.002671  -0.001246  -0.000106  -0.008388
    8  BI 1  Z    0.005119   0.001067   0.003622  -0.005492   0.000192
    9  BI 1 XX    0.003104  -0.002139  -0.001188  -0.007854   0.018360
   10  BI 1 YY    0.011199   0.001328   0.002813   0.012439   0.005654
   11  BI 1 ZZ   -0.014303   0.000811  -0.001625  -0.004585  -0.024014
   12  BI 1 XY   -0.011925  -0.004633  -0.000192  -0.036238   0.011460
   13  BI 1 XZ    0.008003   0.000632   0.002929  -0.017883  -0.006546
   14  BI 1 YZ    0.006087   0.000516  -0.000197   0.013258   0.008044
   15  SN 2  S   -0.002456   0.000885   0.001448   0.001895   0.000917
   16  SN 2  X    0.035988   0.432923  -0.093937  -0.041092   0.072695
   17  SN 2  Y   -0.063844   0.084154   0.440106   0.032525   0.054328
   18  SN 2  Z    0.008235  -0.113918  -0.039731   0.109287   0.173759
   19  SN 2  S    0.017333  -0.003959   0.000151  -0.002819   0.009909
   20  SN 2  X    0.004945   0.012244  -0.001569   0.000096  -0.000786
   21  SN 2  Y   -0.007742   0.002477   0.010602   0.002893   0.000523
   22  SN 2  Z   -0.009019  -0.000953  -0.000587   0.005726   0.003585
   23  SN 2 XX   -0.005970   0.024385   0.050915   0.004724   0.018843
   24  SN 2 YY    0.008432  -0.017006  -0.049160   0.006742   0.009839
   25  SN 2 ZZ   -0.002462  -0.007379  -0.001755  -0.011466  -0.028681
   26  SN 2 XY    0.004513   0.065622  -0.012170  -0.013747   0.004973
   27  SN 2 XZ    0.001608   0.010718  -0.017936  -0.013404  -0.009459
   28  SN 2 YZ   -0.004601  -0.008197   0.037405   0.001369  -0.004204
   29  H  3  S    0.048061  -0.079720  -0.339600   0.012412   0.023474
   30  H  3  S    0.021554  -0.043055  -0.185420   0.008819   0.010062
   31  H  3  X    0.000118   0.002899   0.000145  -0.000293   0.000460
   32  H  3  Y    0.001840  -0.003299  -0.013615   0.000739   0.001313
   33  H  3  Z   -0.000961   0.000810   0.006260   0.000544   0.000902
   34  H  4  S    0.000570   0.333517   0.101077  -0.017564   0.089197
   35  H  4  S   -0.003605   0.178543   0.055147  -0.013858   0.055457
   36  H  4  X    0.000271  -0.012630  -0.005249   0.000501  -0.003179
   37  H  4  Y   -0.000386  -0.007805   0.000282   0.000606  -0.001635
   38  H  4  Z    0.000026  -0.000287  -0.000126   0.000747   0.001615
   39  H  5  S   -0.043861  -0.252655   0.234721   0.087149   0.042078
   40  H  5  S   -0.022137  -0.132682   0.125931   0.056481   0.021325
   41  H  5  X   -0.001652  -0.007289   0.008764   0.003020   0.002049
   42  H  5  Y    0.000947   0.007806  -0.003907  -0.002109  -0.000694
   43  H  5  Z    0.000991   0.003998  -0.004652  -0.000550   0.000692
   44  SE 6  S    0.250111  -0.028958   0.065760  -0.127931  -0.026636
   45  SE 6  X   -0.095884   0.001459   0.002379  -0.216964  -0.280159
   46  SE 6  Y   -0.239066   0.051139  -0.075032   0.363338  -0.054721
   47  SE 6  Z    0.476716  -0.002152   0.077234   0.109612  -0.090646
   48  SE 6  S    0.178511  -0.021534   0.049287  -0.123284  -0.026975
   49  SE 6  X   -0.019636   0.006046  -0.001138  -0.031613  -0.080866
   50  SE 6  Y   -0.019852   0.007910  -0.003268   0.059295  -0.029162
   51  SE 6  Z    0.066719  -0.002508   0.006229   0.025042  -0.031941
   52  SE 6 XX    0.030214  -0.002604   0.005459   0.000247   0.014694
   53  SE 6 YY    0.002497   0.002532   0.000238   0.018057  -0.007645
   54  SE 6 ZZ   -0.032711   0.000072  -0.005697  -0.018304  -0.007049
   55  SE 6 XY   -0.012723  -0.000979  -0.000212  -0.026660  -0.014142
   56  SE 6 XZ    0.003197  -0.000229   0.001606  -0.005826   0.000435
   57  SE 6 YZ    0.054648  -0.000264   0.008240   0.013209  -0.003985
   58  H  7  S   -0.338682   0.012945  -0.060913  -0.005193  -0.003511
   59  H  7  S   -0.180940   0.006227  -0.043235   0.017088   0.005371
   60  H  7  X    0.002594  -0.000142   0.000743  -0.003349  -0.004269
   61  H  7  Y    0.008634   0.000284   0.001117   0.005145  -0.000941
   62  H  7  Z   -0.014836   0.000804  -0.002803   0.002278  -0.001332
   63  AT 8  S    0.010570   0.028006   0.006376   0.075268  -0.092218
   64  AT 8  X   -0.008770  -0.049906  -0.018815  -0.196114   0.344655
   65  AT 8  Y   -0.040960  -0.032917   0.003239  -0.236116   0.115688
   66  AT 8  Z    0.005481  -0.022335  -0.003975  -0.068814  -0.161695
   67  AT 8  S    0.018227   0.011383   0.002763   0.047890  -0.058846
   68  AT 8  X    0.010775   0.001486  -0.002124  -0.004147   0.020824
   69  AT 8  Y   -0.004310  -0.000394   0.004503  -0.020620  -0.000304
   70  AT 8  Z   -0.002336  -0.003555  -0.001362  -0.013090  -0.025201
   71  AT 8 XX    0.000188  -0.001349  -0.001573  -0.007221   0.017121
   72  AT 8 YY   -0.001206   0.000621   0.001377  -0.000718  -0.005704
   73  AT 8 ZZ    0.001018   0.000728   0.000196   0.007938  -0.011417
   74  AT 8 XY   -0.003766  -0.002256  -0.000000  -0.014582   0.012893
   75  AT 8 XZ    0.000413  -0.001611  -0.000839  -0.003884  -0.007221
   76  AT 8 YZ   -0.000112  -0.001183   0.000718  -0.002292  -0.003468
   77  S  9  S    0.096569  -0.016533  -0.008803  -0.004731   0.030616
   78  S  9  X   -0.000941   0.025243  -0.002805   0.165097  -0.135849
   79  S  9  Y    0.068691  -0.014547   0.003472  -0.089724  -0.071295
   80  S  9  Z   -0.050567   0.010112   0.022495  -0.102784  -0.172806
   81  S  9  S    0.079944  -0.014261  -0.005259  -0.007858   0.033314
   82  S  9  X    0.001043   0.008823  -0.000729   0.058887  -0.050743
   83  S  9  Y    0.001095  -0.000666   0.004225  -0.031349  -0.035892
   84  S  9  Z   -0.002576   0.000827   0.006361  -0.040288  -0.060068
   85  S  9 XX    0.004661  -0.000770  -0.000655   0.000241   0.001634
   86  S  9 YY   -0.003435   0.000800  -0.000854   0.009247   0.010524
   87  S  9 ZZ   -0.001226  -0.000030   0.001509  -0.009488  -0.012159
   88  S  9 XY   -0.000242  -0.001807   0.000245  -0.010580   0.008298
   89  S  9 XZ    0.000839   0.001677   0.000067   0.008324  -0.007268
   90  S  9 YZ    0.007746  -0.001491  -0.001207   0.001763   0.006725

                     11         12         13         14         15
                   -0.4148    -0.3681    -0.3546    -0.3500    -0.3302
                     A          A          A          A          A   
    1  BI 1  S   -0.069963  -0.035324  -0.005240  -0.000416   0.001269
    2  BI 1  X    0.057943  -0.060854  -0.005267   0.090221  -0.006665
    3  BI 1  Y   -0.388042  -0.109042   0.029993  -0.063971   0.005352
    4  BI 1  Z    0.413998  -0.042329  -0.148765   0.116610   0.065305
    5  BI 1  S   -0.094592  -0.035280   0.012852  -0.028054  -0.003986
    6  BI 1  X    0.006421   0.000706  -0.003617  -0.024892   0.067109
    7  BI 1  Y    0.009961   0.010356  -0.005672   0.022911  -0.012018
    8  BI 1  Z   -0.049563  -0.010545   0.012453  -0.010291  -0.030249
    9  BI 1 XX    0.018690   0.046717  -0.005054  -0.002768   0.007718
   10  BI 1 YY   -0.021082  -0.038478  -0.002875  -0.001273  -0.031138
   11  BI 1 ZZ    0.002393  -0.008239   0.007928   0.004041   0.023420
   12  BI 1 XY    0.004269  -0.019489  -0.001756  -0.025193   0.062648
   13  BI 1 XZ   -0.010182   0.000778  -0.029497   0.005092  -0.020317
   14  BI 1 YZ    0.036940  -0.003987  -0.021225   0.031872  -0.007835
   15  SN 2  S    0.013219  -0.014548  -0.029496   0.025995   0.018939
   16  SN 2  X   -0.031355   0.012675   0.034112  -0.017503  -0.017871
   17  SN 2  Y    0.013013   0.012191   0.016803  -0.020616  -0.009277
   18  SN 2  Z   -0.170784   0.055770   0.086865  -0.083844  -0.057898
   19  SN 2  S    0.062256   0.009682  -0.017165   0.024675   0.016378
   20  SN 2  X   -0.014011   0.002446  -0.005882   0.000931  -0.017262
   21  SN 2  Y   -0.009928  -0.008685  -0.003063  -0.003314  -0.000980
   22  SN 2  Z   -0.034093   0.000324   0.016258  -0.018305  -0.008985
   23  SN 2 XX   -0.004992   0.006798   0.010679  -0.008090  -0.003586
   24  SN 2 YY   -0.016249   0.003247   0.005289  -0.005516  -0.004373
   25  SN 2 ZZ    0.021242  -0.010045  -0.015968   0.013606   0.007959
   26  SN 2 XY    0.005638  -0.002021   0.004244   0.000402  -0.000267
   27  SN 2 XZ    0.010255  -0.004044  -0.004691   0.004697   0.004154
   28  SN 2 YZ    0.014731  -0.000035  -0.004335   0.003664   0.001545
   29  H  3  S   -0.080307   0.002783   0.011407  -0.008941  -0.010280
   30  H  3  S   -0.063452  -0.006546   0.002145  -0.006002  -0.008659
   31  H  3  X   -0.000121   0.000147   0.000172  -0.000084  -0.000108
   32  H  3  Y   -0.003485   0.000055   0.000292  -0.000200  -0.000362
   33  H  3  Z    0.000062   0.000429   0.000547  -0.000487  -0.000332
   34  H  4  S   -0.015839   0.014471   0.033695  -0.020181  -0.012785
   35  H  4  S   -0.012576   0.008943   0.032371  -0.018172  -0.004937
   36  H  4  X    0.000464  -0.000327  -0.000774   0.000429   0.000195
   37  H  4  Y    0.000394  -0.000177  -0.000416   0.000214   0.000128
   38  H  4  Z   -0.001324   0.000433   0.000788  -0.000651  -0.000570
   39  H  5  S   -0.030105   0.017481   0.006811  -0.020136  -0.010987
   40  H  5  S   -0.026073   0.015653  -0.001330  -0.013764  -0.011761
   41  H  5  X   -0.001334   0.000523   0.000177  -0.000766  -0.000406
   42  H  5  Y    0.000799  -0.000249   0.000080   0.000246   0.000123
   43  H  5  Z   -0.000790   0.000255   0.000639  -0.000518  -0.000275
   44  SE 6  S   -0.090644  -0.004661   0.014376  -0.005862   0.007373
   45  SE 6  X   -0.065836   0.374284  -0.124662  -0.403686   0.100186
   46  SE 6  Y    0.188479   0.332231  -0.054156  -0.083777  -0.209292
   47  SE 6  Z   -0.048676   0.255183  -0.015598  -0.136557  -0.052941
   48  SE 6  S   -0.077047   0.002552   0.007937   0.004296  -0.017522
   49  SE 6  X   -0.012848   0.150741  -0.044553  -0.157111   0.030884
   50  SE 6  Y    0.033151   0.123838  -0.020836  -0.043388  -0.081115
   51  SE 6  Z    0.001529   0.099796  -0.014153  -0.056790  -0.020278
   52  SE 6 XX   -0.005575  -0.010568   0.004639   0.006525   0.001518
   53  SE 6 YY   -0.000625   0.015353  -0.000042  -0.006187  -0.006920
   54  SE 6 ZZ    0.006200  -0.004785  -0.004597  -0.000338   0.005402
   55  SE 6 XY   -0.004258   0.003845  -0.007052  -0.015386   0.009977
   56  SE 6 XZ   -0.009134  -0.004910   0.001690   0.000520   0.002068
   57  SE 6 YZ   -0.002767   0.009139   0.001005   0.000145  -0.001937
   58  H  7  S    0.075083  -0.004315  -0.021890   0.003485  -0.011425
   59  H  7  S    0.063303  -0.001737  -0.011065   0.001690   0.003988
   60  H  7  X   -0.001356   0.005800  -0.002039  -0.006195   0.001240
   61  H  7  Y   -0.000625   0.005099   0.000306  -0.002064  -0.001300
   62  H  7  Z    0.004054   0.003980  -0.001314  -0.001653  -0.002050
   63  AT 8  S   -0.034213  -0.011465  -0.005511   0.009680  -0.002319
   64  AT 8  X    0.220950  -0.068867  -0.053096  -0.464189   0.110721
   65  AT 8  Y   -0.053609   0.480994   0.192145   0.478369   0.195715
   66  AT 8  Z    0.194506  -0.057947   0.767194  -0.145634  -0.178147
   67  AT 8  S    0.005575  -0.000182   0.000613   0.000397   0.021838
   68  AT 8  X    0.040334  -0.023325  -0.011073  -0.101024   0.026529
   69  AT 8  Y   -0.010907   0.104703   0.047222   0.113964   0.053149
   70  AT 8  Z    0.041002  -0.012157   0.182951  -0.034683  -0.041956
   71  AT 8 XX    0.011393   0.000160  -0.005583  -0.014918   0.003843
   72  AT 8 YY   -0.006909   0.004597   0.002101   0.011062   0.000496
   73  AT 8 ZZ   -0.004484  -0.004757   0.003482   0.003856  -0.004339
   74  AT 8 XY    0.002951   0.013886   0.002115   0.000294   0.008751
   75  AT 8 XZ    0.009176  -0.002270   0.013768  -0.003039  -0.003137
   76  AT 8 YZ    0.003820   0.000243   0.007414   0.003261   0.000354
   77  S  9  S    0.182007   0.020447  -0.025048   0.027040   0.004359
   78  S  9  X    0.024512  -0.116523   0.066892  -0.019550   0.567687
   79  S  9  Y    0.311106  -0.042926  -0.169650   0.149578  -0.151063
   80  S  9  Z   -0.231423  -0.169858  -0.056623   0.006109  -0.230306
   81  S  9  S    0.218009   0.027590  -0.038002   0.039560   0.008433
   82  S  9  X    0.009916  -0.054731   0.033807  -0.003832   0.286837
   83  S  9  Y    0.052922  -0.033883  -0.063931   0.049697  -0.083289
   84  S  9  Z   -0.028349  -0.070069  -0.046650   0.021354  -0.113337
   85  S  9 XX    0.018268   0.003449  -0.004092   0.004716   0.002868
   86  S  9 YY   -0.017149   0.004241   0.009763  -0.007969   0.005714
   87  S  9 ZZ   -0.001118  -0.007690  -0.005671   0.003253  -0.008582
   88  S  9 XY   -0.001318   0.004358  -0.002553  -0.000110  -0.016292
   89  S  9 XZ    0.000725  -0.004236   0.001136   0.000328   0.014017
   90  S  9 YZ    0.031011   0.006153  -0.005668   0.007272   0.003802

                     16         17         18         19         20
                   -0.3243    -0.0346     0.0375     0.0543     0.0767
                     A          A          A          A          A   
    1  BI 1  S   -0.075894   0.512986   0.117295   0.007265  -0.105950
    2  BI 1  X   -0.037942  -0.182170   0.669397  -0.049918   0.019548
    3  BI 1  Y   -0.050329  -0.259655   0.025798   0.450392  -0.041212
    4  BI 1  Z   -0.132664   0.020069  -0.002608   0.362958   0.363847
    5  BI 1  S   -0.066386   1.434287   0.476816   0.242390   0.181566
    6  BI 1  X    0.046617  -0.126921   0.946228  -0.074334   0.057206
    7  BI 1  Y    0.070428  -0.276096   0.043302   0.870442  -0.420047
    8  BI 1  Z    0.037793   0.305647   0.151826   0.669190   0.839953
    9  BI 1 XX    0.023891   0.002719   0.026364   0.015360  -0.026254
   10  BI 1 YY    0.046609   0.000828  -0.008639  -0.006242   0.017452
   11  BI 1 ZZ   -0.070501  -0.003547  -0.017725  -0.009118   0.008802
   12  BI 1 XY    0.022324   0.003956   0.015423  -0.008019  -0.017879
   13  BI 1 XZ   -0.031060  -0.005338   0.035844  -0.023831  -0.007040
   14  BI 1 YZ    0.007314   0.005126  -0.000724   0.038470  -0.071361
   15  SN 2  S   -0.063475  -0.212525  -0.116010  -0.144929  -0.023866
   16  SN 2  X    0.043808   0.065510   0.119884  -0.006136  -0.008388
   17  SN 2  Y    0.020579   0.033364   0.011139   0.125043  -0.116218
   18  SN 2  Z    0.191317   0.327664   0.086684   0.114684   0.043654
   19  SN 2  S   -0.058590  -0.647355  -0.408617  -0.490905  -0.222849
   20  SN 2  X    0.004793   0.135681   0.223065   0.137904   0.201556
   21  SN 2  Y    0.006424   0.108826   0.069688   0.268576  -0.385267
   22  SN 2  Z    0.041984   0.558300   0.502369   0.880523   0.897962
   23  SN 2 XX    0.011090   0.011534  -0.028082  -0.014700   0.004197
   24  SN 2 YY    0.013400   0.006346  -0.006142  -0.012052  -0.018575
   25  SN 2 ZZ   -0.024490  -0.017881   0.034224   0.026752   0.014378
   26  SN 2 XY    0.000382   0.003324  -0.015777  -0.004505   0.012988
   27  SN 2 XZ   -0.008523   0.001887  -0.054632   0.034473   0.018275
   28  SN 2 YZ   -0.002665   0.002567   0.000834  -0.049153   0.057568
   29  H  3  S    0.040854   0.026692   0.008326   0.058749  -0.125086
   30  H  3  S    0.041023   0.071141   0.012037   0.191996  -0.609559
   31  H  3  X    0.000337   0.000924   0.002423   0.000547   0.000518
   32  H  3  Y    0.001704   0.001410   0.000506   0.002878  -0.003958
   33  H  3  Z    0.001118   0.004116   0.002607   0.006279   0.002774
   34  H  4  S    0.035692   0.050441  -0.060708  -0.020691   0.014574
   35  H  4  S    0.030720   0.119768  -0.190560  -0.087249   0.054433
   36  H  4  X   -0.000689  -0.000263   0.002813   0.000145   0.001820
   37  H  4  Y   -0.000378  -0.000178   0.000428   0.003330  -0.003485
   38  H  4  Z    0.001440   0.005052   0.000659   0.004293   0.005327
   39  H  5  S    0.034880   0.034186   0.059734  -0.070016   0.002370
   40  H  5  S    0.026704   0.077033   0.194737  -0.267965   0.030604
   41  H  5  X    0.001256   0.001919   0.003083  -0.000331   0.000002
   42  H  5  Y   -0.000489  -0.000050   0.000187   0.003302  -0.003391
   43  H  5  Z    0.001110   0.004288   0.003647   0.003143   0.005275
   44  SE 6  S    0.003900  -0.089832  -0.123498   0.176126  -0.036140
   45  SE 6  X   -0.025254   0.218855   0.055212  -0.147684  -0.072947
   46  SE 6  Y    0.157834  -0.162590  -0.205249   0.131154   0.021089
   47  SE 6  Z    0.070962  -0.083978  -0.147755   0.056700   0.049785
   48  SE 6  S    0.025299  -0.268223  -0.360622   0.577254  -0.240009
   49  SE 6  X   -0.018265   0.262684   0.131957  -0.357400  -0.091085
   50  SE 6  Y    0.055303  -0.172644  -0.348032   0.309982  -0.026806
   51  SE 6  Z    0.030893  -0.143927  -0.248707   0.089191   0.142768
   52  SE 6 XX    0.001609   0.010015  -0.018419  -0.011937  -0.019417
   53  SE 6 YY    0.006369  -0.007944   0.022554   0.014911  -0.023660
   54  SE 6 ZZ   -0.007978  -0.002071  -0.004135  -0.002973   0.043077
   55  SE 6 XY   -0.006151  -0.007969  -0.003538   0.015400   0.018683
   56  SE 6 XZ   -0.001794  -0.010791  -0.001819   0.006466  -0.025585
   57  SE 6 YZ    0.002284   0.001396   0.028107  -0.001342  -0.008882
   58  H  7  S   -0.004206   0.003800  -0.018757  -0.019492   0.092748
   59  H  7  S   -0.004446  -0.016463  -0.079172  -0.076833   0.412373
   60  H  7  X    0.000084   0.004301   0.001652  -0.002558   0.000169
   61  H  7  Y    0.001902  -0.002911  -0.002739   0.001721  -0.002378
   62  H  7  Z    0.001624  -0.002030  -0.003874   0.003482   0.001863
   63  AT 8  S   -0.001671  -0.126591   0.154660   0.053998   0.003533
   64  AT 8  X    0.230415  -0.362633   0.194558   0.093647  -0.025272
   65  AT 8  Y    0.214354  -0.178882   0.153535  -0.052496   0.045166
   66  AT 8  Z    0.030757   0.038388   0.038347  -0.034819  -0.097537
   67  AT 8  S    0.049541  -0.417468   0.451494   0.188270  -0.085313
   68  AT 8  X    0.073930  -0.446748   0.408072   0.253512  -0.066224
   69  AT 8  Y    0.052673  -0.210444   0.336793  -0.060148   0.076802
   70  AT 8  Z    0.006974   0.043495  -0.041441  -0.096553  -0.141970
   71  AT 8 XX    0.009095   0.011181  -0.003873  -0.021180   0.011736
   72  AT 8 YY   -0.001712  -0.003766  -0.005492   0.027625  -0.007857
   73  AT 8 ZZ   -0.007383  -0.007415   0.009365  -0.006445  -0.003878
   74  AT 8 XY    0.010346   0.011043  -0.024838   0.010250  -0.008697
   75  AT 8 XZ   -0.003225  -0.005856  -0.005437   0.012897   0.037009
   76  AT 8 YZ   -0.000160  -0.002967  -0.005407   0.012338   0.010765
   77  S  9  S   -0.001804  -0.044030  -0.029330  -0.053813   0.155818
   78  S  9  X    0.270545   0.064135  -0.178968   0.012694   0.009955
   79  S  9  Y    0.311179   0.248436   0.058258  -0.022654  -0.194286
   80  S  9  Z    0.435873  -0.127715  -0.050974  -0.189529   0.154299
   81  S  9  S   -0.004729  -0.069803  -0.072667  -0.178641   0.497024
   82  S  9  X    0.134728   0.072374  -0.310867   0.032581   0.009054
   83  S  9  Y    0.163528   0.204468   0.061325  -0.087188  -0.317401
   84  S  9  Z    0.219834  -0.108643  -0.064744  -0.312428   0.161917
   85  S  9 XX    0.000568   0.002028   0.002697   0.000687   0.001744
   86  S  9 YY   -0.014401   0.001355  -0.001605  -0.020602  -0.006245
   87  S  9 ZZ    0.013832  -0.003383  -0.001092   0.019915   0.004501
   88  S  9 XY   -0.007065   0.003621  -0.017355  -0.000114  -0.001497
   89  S  9 XZ    0.006759  -0.003587   0.017927  -0.003334  -0.002592
   90  S  9 YZ   -0.004365   0.003694  -0.002399  -0.005676  -0.004489

                     21         22         23         24         25
                    0.1079     0.1209     0.1301     0.1328     0.1925
                     A          A          A          A          A   
    1  BI 1  S   -0.004529  -0.096303  -0.096054  -0.006718  -0.030896
    2  BI 1  X   -0.250754   0.012580  -0.079310  -0.041177  -0.494797
    3  BI 1  Y    0.099322  -0.282225   0.031652   0.095874  -0.170764
    4  BI 1  Z    0.054592  -0.005931  -0.184157   0.062577  -0.046678
    5  BI 1  S    0.090914  -0.091527  -0.273417   0.331168  -0.260718
    6  BI 1  X   -0.645846  -0.247562  -0.405455   0.703856   1.507214
    7  BI 1  Y    0.164079  -1.289250   0.378093  -0.141130   0.572962
    8  BI 1  Z    0.010557   0.184045  -1.347447  -1.153999   0.045595
    9  BI 1 XX    0.004342  -0.039296  -0.000514  -0.012827  -0.099206
   10  BI 1 YY    0.009290   0.013354  -0.037734   0.031888  -0.001220
   11  BI 1 ZZ   -0.013632   0.025943   0.038247  -0.019061   0.100426
   12  BI 1 XY   -0.018564   0.011126   0.013205  -0.026395  -0.072465
   13  BI 1 XZ    0.005818   0.020404   0.025126  -0.009449  -0.038270
   14  BI 1 YZ    0.008727  -0.019656   0.047186  -0.003457  -0.001624
   15  SN 2  S   -0.036825   0.217592   0.456081  -0.005066  -0.080251
   16  SN 2  X    0.139118  -0.006817  -0.025916   0.017817  -0.835951
   17  SN 2  Y    0.060992  -0.002372  -0.025121   0.168236  -0.339771
   18  SN 2  Z   -0.013926  -0.112850  -0.150095   0.034610  -0.105037
   19  SN 2  S   -0.012038   0.729320   2.304629   0.629754  -0.366296
   20  SN 2  X    1.562170   0.239204   0.125277  -0.809576   0.383927
   21  SN 2  Y   -0.060219   1.685109  -0.667978   0.325086   0.169106
   22  SN 2  Z   -0.425520   0.000188   0.100880  -0.041187   0.426552
   23  SN 2 XX    0.003173  -0.035007  -0.004757  -0.035830   0.080866
   24  SN 2 YY    0.012968   0.029363  -0.041735   0.025264  -0.004027
   25  SN 2 ZZ   -0.016141   0.005643   0.046492   0.010566  -0.076840
   26  SN 2 XY   -0.043667   0.015339  -0.009916   0.004066   0.082353
   27  SN 2 XZ    0.024562   0.014216   0.014037  -0.015037   0.027637
   28  SN 2 YZ   -0.000213   0.062644  -0.025366   0.004986  -0.005233
   29  H  3  S    0.017366  -0.000266  -0.164249   0.016063  -0.008607
   30  H  3  S    0.100528   0.484937  -1.109769   0.202064  -0.063003
   31  H  3  X    0.010720   0.000780   0.001469  -0.003292  -0.006781
   32  H  3  Y   -0.000651   0.005125  -0.002190   0.000389  -0.000921
   33  H  3  Z   -0.002305  -0.002362   0.003837   0.001484  -0.000227
   34  H  4  S   -0.089710  -0.116669  -0.140004   0.006479   0.027243
   35  H  4  S   -0.836872  -0.850708  -0.668867   0.077044   0.370757
   36  H  4  X    0.007205   0.000184   0.002142  -0.003831   0.006334
   37  H  4  Y   -0.001230   0.008630  -0.002966   0.004003   0.004085
   38  H  4  Z   -0.001056   0.001647   0.001650  -0.000294  -0.003313
   39  H  5  S    0.097994  -0.098978  -0.125940  -0.043561  -0.015421
   40  H  5  S    0.838178  -0.703804  -0.548458  -0.542577  -0.115342
   41  H  5  X    0.007379   0.002424  -0.000446  -0.001337  -0.003176
   42  H  5  Y    0.002246   0.008939  -0.002597   0.002910  -0.005128
   43  H  5  Z   -0.002857   0.000595   0.002038   0.002864  -0.000598
   44  SE 6  S   -0.041641  -0.015136   0.027420  -0.231996  -0.014208
   45  SE 6  X   -0.102887   0.074642   0.013700  -0.077753  -0.114582
   46  SE 6  Y   -0.004960   0.021553   0.022420  -0.090940  -0.018142
   47  SE 6  Z    0.066917  -0.018284   0.014658   0.334005   0.055499
   48  SE 6  S   -0.099351  -0.217546   0.235826  -1.303312  -0.137072
   49  SE 6  X   -0.123581   0.231678   0.075700   0.004763   0.023639
   50  SE 6  Y   -0.060961   0.061689   0.086003  -0.822895  -0.094951
   51  SE 6  Z    0.392222  -0.128003  -0.046536   0.971966  -0.121485
   52  SE 6 XX   -0.012878   0.022731   0.016186  -0.026129   0.025962
   53  SE 6 YY   -0.023704  -0.015844   0.005790  -0.009840  -0.006314
   54  SE 6 ZZ    0.036581  -0.006887  -0.021976   0.035968  -0.019648
   55  SE 6 XY    0.020751  -0.011308  -0.011404   0.025265   0.015394
   56  SE 6 XZ    0.008030  -0.012760   0.039152  -0.004621   0.013041
   57  SE 6 YZ   -0.019654   0.007285  -0.003201  -0.056620  -0.012601
   58  H  7  S    0.081023  -0.012438  -0.058291   0.171930  -0.022213
   59  H  7  S    0.541625  -0.096571  -0.341107   1.433640  -0.074197
   60  H  7  X   -0.002394   0.002088  -0.002662  -0.001634  -0.000280
   61  H  7  Y   -0.000403  -0.002143   0.003691   0.006861   0.004231
   62  H  7  Z    0.000682   0.000496  -0.001911  -0.003004  -0.000965
   63  AT 8  S    0.000119   0.000325  -0.045750  -0.022401   0.117369
   64  AT 8  X   -0.029086  -0.020467   0.058964  -0.026109  -0.453404
   65  AT 8  Y   -0.020371   0.047761  -0.002481   0.060280  -0.204664
   66  AT 8  Z    0.098333   0.070758   0.081986  -0.025069  -0.057272
   67  AT 8  S   -0.211803  -0.354301  -0.046549   0.201947   0.847572
   68  AT 8  X   -0.092131  -0.263720  -0.070684   0.059902   1.000561
   69  AT 8  Y   -0.149926   0.042810  -0.140321   0.045289   0.540127
   70  AT 8  Z    0.107654   0.024869   0.163993   0.159014   0.080472
   71  AT 8 XX    0.011944   0.028644  -0.026385  -0.003802   0.047195
   72  AT 8 YY    0.019736  -0.021306  -0.003038  -0.000256  -0.016994
   73  AT 8 ZZ   -0.031680  -0.007338   0.029423   0.004058  -0.030201
   74  AT 8 XY    0.015224  -0.008675   0.004036  -0.007609   0.059441
   75  AT 8 XZ   -0.014258  -0.012298  -0.030043   0.003873  -0.001435
   76  AT 8 YZ   -0.015023   0.000237  -0.015610  -0.003379  -0.001744
   77  S  9  S   -0.025933   0.117392  -0.095128  -0.085012  -0.019244
   78  S  9  X    0.039349   0.002122   0.035923  -0.043798  -0.043245
   79  S  9  Y    0.001207  -0.100004   0.085580   0.029097  -0.011929
   80  S  9  Z   -0.027594   0.087669   0.034976   0.012015   0.031810
   81  S  9  S   -0.090225   0.582478  -0.500274  -0.376593  -0.125902
   82  S  9  X    0.159106   0.035189   0.082828  -0.108393  -0.168182
   83  S  9  Y    0.011714  -0.154271   0.269280   0.217316  -0.000147
   84  S  9  Z   -0.082722   0.277379   0.048418  -0.003129  -0.021098
   85  S  9 XX    0.000369  -0.003323   0.001250   0.001140   0.006944
   86  S  9 YY   -0.005466   0.008556   0.011549  -0.002707   0.002427
   87  S  9 ZZ    0.005097  -0.005233  -0.012799   0.001567  -0.009372
   88  S  9 XY    0.010925   0.002582   0.006297  -0.001718   0.007899
   89  S  9 XZ   -0.007036   0.002159  -0.002521   0.000443  -0.004751
   90  S  9 YZ   -0.000673   0.008259   0.008922   0.008287   0.007766

                     26         27         28         29         30
                    0.2065     0.2080     0.2176     0.2359     0.2382
                     A          A          A          A          A   
    1  BI 1  S    0.029472  -0.024961  -0.055413   0.025268   0.068326
    2  BI 1  X    0.175753  -0.143376  -0.924857   0.106301  -0.195063
    3  BI 1  Y    0.112210  -0.187528  -0.053643  -0.758996   0.292944
    4  BI 1  Z   -0.110681  -0.451441   0.141726  -0.418989   0.250309
    5  BI 1  S    0.280115   0.909106  -0.324697  -0.890404  -1.088946
    6  BI 1  X   -0.310500   0.363490   2.022445   0.081566   0.531228
    7  BI 1  Y   -0.538409   0.598919   0.068499   1.559148  -0.556979
    8  BI 1  Z    0.333245   1.009803   0.158744   0.897971  -0.481217
    9  BI 1 XX   -0.026873  -0.049328   0.076700  -0.065342  -0.081151
   10  BI 1 YY    0.025045  -0.044629   0.021074   0.062436   0.041265
   11  BI 1 ZZ    0.001828   0.093956  -0.097774   0.002906   0.039886
   12  BI 1 XY    0.016526   0.030171   0.054992  -0.025782  -0.129467
   13  BI 1 XZ   -0.060615   0.107417   0.047833  -0.015559   0.053772
   14  BI 1 YZ    0.109782   0.059762   0.012744  -0.033471   0.052365
   15  SN 2  S    0.016379  -0.227973   0.123067   0.239380   0.015689
   16  SN 2  X   -0.587050   0.259921   0.320838   0.280497   0.638785
   17  SN 2  Y    1.072752   0.163874   0.296848   0.389497   0.234593
   18  SN 2  Z   -0.030749  -1.128010   0.162095   0.507653  -0.057054
   19  SN 2  S   -0.161335  -1.265085   0.027199   0.318770   0.255827
   20  SN 2  X    0.476283   0.008154  -0.817610  -0.076254  -0.529165
   21  SN 2  Y   -0.487397  -0.059077  -0.261853  -0.587453  -0.014799
   22  SN 2  Z    0.026473   1.542350   0.040097  -0.325916  -0.215715
   23  SN 2 XX   -0.054416   0.023198  -0.059229  -0.016267  -0.046963
   24  SN 2 YY    0.059604   0.092472  -0.006144   0.035830  -0.009117
   25  SN 2 ZZ   -0.005188  -0.115670   0.065373  -0.019563   0.056080
   26  SN 2 XY    0.051689  -0.055177  -0.026269  -0.010346  -0.048526
   27  SN 2 XZ    0.065892  -0.091503  -0.089931   0.026125   0.036719
   28  SN 2 YZ   -0.095801  -0.039911  -0.040440  -0.015283   0.037526
   29  H  3  S    0.029520   0.039319  -0.016154  -0.094623   0.000997
   30  H  3  S    0.448149   0.374857  -0.100231  -0.317362   0.199489
   31  H  3  X   -0.003905   0.002536   0.000250   0.002625   0.004699
   32  H  3  Y   -0.005095  -0.009742   0.000197  -0.000336   0.001000
   33  H  3  Z    0.004033  -0.002716   0.002597   0.004909  -0.000756
   34  H  4  S    0.003746   0.017646  -0.076745  -0.088969   0.005994
   35  H  4  S   -0.040403   0.044060  -0.105234  -0.499622  -0.231731
   36  H  4  X   -0.004251   0.001667  -0.005000  -0.003181  -0.005516
   37  H  4  Y    0.008546   0.001195  -0.001273  -0.000474  -0.003611
   38  H  4  Z    0.001038  -0.008683  -0.006070   0.000232   0.000768
   39  H  5  S   -0.034430   0.042375  -0.008068  -0.109139   0.012361
   40  H  5  S   -0.380615   0.342959  -0.250328  -0.328996   0.208145
   41  H  5  X    0.006850  -0.006983   0.002846   0.001824   0.003344
   42  H  5  Y    0.000697   0.007334   0.001315   0.000776   0.004184
   43  H  5  Z   -0.006405  -0.003704   0.005327  -0.002870   0.003462
   44  SE 6  S   -0.044869   0.016258   0.068378  -0.055278   0.014303
   45  SE 6  X    0.012276   0.056848  -0.102343   0.013441   0.045147
   46  SE 6  Y    0.156215  -0.032397   0.031959  -0.117885   0.084302
   47  SE 6  Z   -0.000958  -0.109189  -0.056702  -0.105840   0.022692
   48  SE 6  S   -0.101261   0.036688  -0.000266   0.315484  -0.010085
   49  SE 6  X    0.201531  -0.149271  -0.156319  -0.141797   0.099319
   50  SE 6  Y   -0.155695  -0.049857   0.179855  -0.179391   0.162520
   51  SE 6  Z   -0.240309   0.311039  -0.400317   0.234091  -0.227024
   52  SE 6 XX    0.015288   0.014921   0.013423  -0.006087   0.043328
   53  SE 6 YY   -0.001174   0.003528  -0.016849  -0.006231  -0.043699
   54  SE 6 ZZ   -0.014114  -0.018449   0.003425   0.012318   0.000371
   55  SE 6 XY   -0.008596  -0.027830   0.059476  -0.054297   0.032518
   56  SE 6 XZ    0.000864  -0.009246   0.016642  -0.063753   0.013250
   57  SE 6 YZ   -0.000095  -0.024261   0.005668   0.010017  -0.006779
   58  H  7  S   -0.021247   0.020038  -0.022022   0.049686  -0.026755
   59  H  7  S   -0.098088   0.240815  -0.607402   0.458286  -0.357997
   60  H  7  X    0.000182   0.001220   0.000729   0.003651   0.001365
   61  H  7  Y   -0.000023  -0.001130   0.001505  -0.005539   0.001074
   62  H  7  Z    0.001070   0.003686  -0.000102   0.001075  -0.000434
   63  AT 8  S    0.000970   0.018962  -0.036158   0.058073   0.109799
   64  AT 8  X   -0.100151  -0.041307   0.141790  -0.234570  -0.692643
   65  AT 8  Y    0.264749  -0.029195   0.225146  -0.302576  -0.256081
   66  AT 8  Z    0.013159  -0.191386   0.047989  -0.148709   0.328393
   67  AT 8  S   -0.276793   0.170081   0.758680   0.443027   0.255830
   68  AT 8  X    0.002881   0.128564  -0.241127   0.613306   1.141918
   69  AT 8  Y   -0.276602   0.025325  -0.106272   0.326151   0.604426
   70  AT 8  Z   -0.044533   0.200964  -0.226672  -0.117929  -0.413646
   71  AT 8 XX   -0.000575   0.022138   0.086937   0.045253  -0.017508
   72  AT 8 YY   -0.012913  -0.005037  -0.030271  -0.010860   0.000452
   73  AT 8 ZZ    0.013488  -0.017101  -0.056667  -0.034392   0.017056
   74  AT 8 XY   -0.031323   0.010194   0.093946   0.001868   0.001592
   75  AT 8 XZ    0.008543  -0.054807  -0.006938   0.029653  -0.007782
   76  AT 8 YZ   -0.007651  -0.031884  -0.002132   0.005427   0.001278
   77  S  9  S    0.047655   0.002407   0.054682   0.006575   0.016239
   78  S  9  X   -0.025985   0.022097  -0.064247  -0.001082   0.081846
   79  S  9  Y    0.052785   0.025766  -0.058997  -0.079177   0.089225
   80  S  9  Z   -0.024178   0.010777  -0.019768  -0.045821  -0.011877
   81  S  9  S    0.244707  -0.051648   0.152458  -0.060538   0.213153
   82  S  9  X    0.031495  -0.019564  -0.287258   0.011046   0.000971
   83  S  9  Y   -0.051655  -0.004085  -0.153283  -0.245002  -0.009054
   84  S  9  Z    0.067069  -0.088251   0.072188  -0.074884   0.118448
   85  S  9 XX   -0.008709  -0.002876   0.005030   0.012756  -0.003552
   86  S  9 YY    0.006751   0.018611  -0.011860  -0.005085   0.000206
   87  S  9 ZZ    0.001958  -0.015735   0.006830  -0.007671   0.003346
   88  S  9 XY   -0.005447   0.004607   0.007454  -0.000944   0.019775
   89  S  9 XZ    0.005326  -0.006335  -0.001593  -0.001997  -0.012116
   90  S  9 YZ   -0.011232  -0.004664   0.000064   0.019058  -0.006241

                     31         32         33         34         35
                    0.2507     0.2726     0.2804     0.2851     0.3313
                     A          A          A          A          A   
    1  BI 1  S   -0.146786  -0.077120   0.042102  -0.079810   0.084901
    2  BI 1  X    0.051601   0.160849  -0.048298   0.031704   0.071547
    3  BI 1  Y   -0.738305  -0.525327   0.088657  -0.075602  -0.009327
    4  BI 1  Z    0.729075   0.096476  -0.644034  -0.029156  -0.242219
    5  BI 1  S   -0.227789   0.144397   0.858395   1.378520  -0.423995
    6  BI 1  X    0.004558  -0.455747   0.507080   0.264473  -0.318373
    7  BI 1  Y    1.069558   1.525504  -0.044274  -0.691665  -0.184670
    8  BI 1  Z   -1.014793  -0.038556   1.747435   0.173795   1.229628
    9  BI 1 XX   -0.093484   0.035298   0.012471   0.035574   0.016235
   10  BI 1 YY    0.103205  -0.047575  -0.060812   0.073653  -0.027671
   11  BI 1 ZZ   -0.009721   0.012277   0.048342  -0.109227   0.011436
   12  BI 1 XY    0.039726  -0.065021  -0.007884  -0.238913   0.053644
   13  BI 1 XZ    0.004585  -0.019803  -0.109520  -0.137649   0.022569
   14  BI 1 YZ   -0.081967  -0.102529   0.027567   0.126232   0.080027
   15  SN 2  S   -0.161310  -0.043979   0.082226  -0.011261   0.105389
   16  SN 2  X   -0.107137   0.102155  -0.130265   0.289439   0.086188
   17  SN 2  Y    0.333419  -0.234404  -0.151528  -0.088946  -0.006046
   18  SN 2  Z   -0.316239  -0.081546  -0.095972  -0.129108  -0.012913
   19  SN 2  S   -0.019113  -0.093936  -0.899849  -0.274361  -0.505970
   20  SN 2  X   -0.027204   0.018669  -0.216663   0.070882   0.272692
   21  SN 2  Y   -0.576169  -0.274771  -0.021983   0.150777  -0.063537
   22  SN 2  Z    0.147062   0.168919   0.714036   0.207759   0.107241
   23  SN 2 XX   -0.057158   0.003965   0.052855   0.088952   0.094379
   24  SN 2 YY    0.004961   0.017404   0.009398  -0.015966  -0.086599
   25  SN 2 ZZ    0.052198  -0.021369  -0.062253  -0.072986  -0.007780
   26  SN 2 XY   -0.002009  -0.007643  -0.015200  -0.063283  -0.079006
   27  SN 2 XZ    0.031406  -0.012805  -0.079488   0.114624   0.105835
   28  SN 2 YZ   -0.026445   0.037640  -0.085807  -0.073114  -0.149059
   29  H  3  S    0.087196  -0.013126  -0.017933   0.028576  -0.001254
   30  H  3  S    0.311919  -0.151441  -0.276213  -0.083866  -0.105721
   31  H  3  X    0.001445   0.000994  -0.002875   0.004703   0.003737
   32  H  3  Y   -0.001438  -0.000216  -0.001584  -0.000853   0.001976
   33  H  3  Z    0.006505   0.001165  -0.001350  -0.001966   0.000730
   34  H  4  S    0.059798   0.022655   0.000470   0.007511  -0.041456
   35  H  4  S    0.263462   0.071636   0.202424  -0.244855  -0.086365
   36  H  4  X   -0.002907   0.001475   0.000663   0.001894   0.000901
   37  H  4  Y    0.000901  -0.002547  -0.000719  -0.003414  -0.005083
   38  H  4  Z   -0.001989  -0.001047  -0.004333  -0.000813   0.000826
   39  H  5  S    0.066372   0.035576  -0.038061  -0.014345  -0.019688
   40  H  5  S    0.200784   0.156522  -0.205489   0.253424   0.164989
   41  H  5  X    0.002226  -0.002165  -0.004569  -0.002089  -0.000346
   42  H  5  Y    0.000261   0.000346  -0.002012   0.002669  -0.001476
   43  H  5  Z   -0.002360  -0.000390  -0.000809  -0.001563  -0.005223
   44  SE 6  S    0.027510  -0.019170  -0.065826  -0.144520   0.025911
   45  SE 6  X    0.002398   0.090598  -0.070248  -0.589420   0.102042
   46  SE 6  Y   -0.092972   0.111972   0.075649   0.459620  -0.634313
   47  SE 6  Z    0.155013   0.014265   0.056904   0.357319   0.770248
   48  SE 6  S    0.244204   0.383794  -0.291884  -0.617459   0.081486
   49  SE 6  X   -0.024959  -0.077692   0.026038   1.078874  -0.215038
   50  SE 6  Y    0.071567  -0.216855  -0.354407  -0.903043   0.846164
   51  SE 6  Z   -0.119926   0.093481   0.047077  -0.761866  -0.871770
   52  SE 6 XX    0.022677   0.015274  -0.019632   0.020248   0.002412
   53  SE 6 YY   -0.022323   0.008209   0.025853   0.013877  -0.016015
   54  SE 6 ZZ   -0.000354  -0.023484  -0.006221  -0.034125   0.013604
   55  SE 6 XY   -0.023030  -0.019414  -0.016608  -0.025701  -0.009864
   56  SE 6 XZ   -0.024905  -0.039568  -0.000367  -0.004235  -0.040025
   57  SE 6 YZ    0.038875   0.028312  -0.033705   0.052028   0.004466
   58  H  7  S   -0.040281  -0.015905   0.045245  -0.106337  -0.044690
   59  H  7  S   -0.075537   0.159431   0.445773   0.043887   0.380677
   60  H  7  X    0.000994   0.002583   0.000850  -0.002683   0.008403
   61  H  7  Y    0.001067  -0.000704   0.001139   0.006656   0.005527
   62  H  7  Z   -0.003192   0.003253   0.001229  -0.004561  -0.018865
   63  AT 8  S   -0.007536  -0.015629   0.007541   0.001802   0.056032
   64  AT 8  X    0.227018  -0.383930   0.188940   0.129603  -0.046944
   65  AT 8  Y   -0.263597   0.818236  -0.106334  -0.056197   0.140779
   66  AT 8  Z    0.334475   0.198673   0.885278  -0.206235  -0.024637
   67  AT 8  S    0.283247   0.138513   0.019727  -0.243030  -0.150291
   68  AT 8  X   -0.174864   0.682598  -0.284261  -0.257696   0.053115
   69  AT 8  Y    0.279191  -1.335055   0.159789   0.042000  -0.197226
   70  AT 8  Z   -0.294848  -0.289280  -1.518636   0.218923  -0.139940
   71  AT 8 XX    0.069947  -0.045792   0.006238  -0.053529  -0.004666
   72  AT 8 YY   -0.055919   0.062186   0.015320   0.050650   0.000042
   73  AT 8 ZZ   -0.014028  -0.016394  -0.021558   0.002880   0.004624
   74  AT 8 XY    0.005275   0.046637   0.012212   0.040927   0.025478
   75  AT 8 XZ    0.022882   0.037087   0.081250   0.037714  -0.004971
   76  AT 8 YZ    0.003631   0.007966   0.049917   0.022633   0.027557
   77  S  9  S    0.034802  -0.018983  -0.013762   0.037109   0.063344
   78  S  9  X    0.020257  -0.017002   0.021724   0.000380  -0.121706
   79  S  9  Y   -0.185289  -0.154229   0.084563  -0.055478   0.230074
   80  S  9  Z    0.204738   0.068640  -0.071591   0.015202  -0.067983
   81  S  9  S   -0.357915  -0.434413   0.234866   0.090872   0.487356
   82  S  9  X   -0.008730   0.067796  -0.066664   0.015895   0.096482
   83  S  9  Y   -0.203019  -0.075207   0.022199  -0.037071  -0.324307
   84  S  9  Z    0.176656  -0.070955  -0.208977   0.010858   0.074421
   85  S  9 XX    0.038017   0.015372  -0.013362   0.000608  -0.011458
   86  S  9 YY   -0.030539  -0.011604   0.020860  -0.014188   0.018172
   87  S  9 ZZ   -0.007479  -0.003768  -0.007498   0.013580  -0.006714
   88  S  9 XY   -0.000174  -0.001011  -0.001355   0.006158  -0.018293
   89  S  9 XZ    0.000732  -0.001403   0.001736  -0.011227  -0.000826
   90  S  9 YZ    0.058512   0.033359  -0.030926  -0.002532  -0.008647

[...]
                   Y-64.56388535-37.41575581-18.82334538 40.92742276 25.32989031
                   Z-37.30565895 14.19917556 10.61687399  0.94940096-46.99556050
               TOTAL 74.56871160 49.55869234 22.45994985 41.55008574 71.57486243

                            6           7           8           9          10
       FREQUENCY:         0.41       36.04       43.58       58.23       71.61  
        SYMMETRY:         A           A           A           A           A   
    REDUCED MASS:     31.79685    28.81326    20.05566    37.55075     1.05330
    IR INTENSITY:      0.01737     0.00077     0.00258     0.01498     0.00060

  1   BI           X -0.01077583 -0.01680920 -0.00985811  0.00649162  0.00404413
                   Y  0.00470596 -0.00283138  0.01192340 -0.03431878 -0.00063189
                   Z -0.00421843  0.01804326 -0.01378577  0.00441973  0.00223590
  2   SN           X -0.03303704  0.05902164  0.01012841 -0.00288386 -0.00100936
                   Y  0.06055613  0.01917732 -0.04260378  0.01465930  0.00489978
                   Z -0.00623716 -0.00222223 -0.01338126  0.00054141  0.00528894
  3   H            X -0.01654135  0.08127922  0.07400369  0.03375872  0.54007939
                   Y  0.07237678  0.02729777 -0.06846550  0.03150815 -0.01948902
                   Z  0.02044674  0.01514045 -0.08435396  0.03762698 -0.12250981
  4   H            X -0.04345003  0.05985155 -0.01694910 -0.02231624 -0.26620970
                   Y  0.07987079  0.01601037  0.00809809  0.05030646  0.49734023
                   Z -0.01040560 -0.07363843 -0.00208505 -0.01287591  0.00788589
  5   H            X -0.04903028  0.08600793 -0.00969251 -0.02866374 -0.28137790
                   Y  0.05450025  0.02909366 -0.11346569 -0.00295459 -0.46560981
                   Z -0.02955065  0.03800295  0.05063791 -0.02620742  0.12991886
  6   SE           X  0.01932093 -0.00308931  0.03993346  0.06352176 -0.01250596
                   Y  0.01157953  0.00202768  0.02183291  0.03001085 -0.01056346
                   Z  0.03732855  0.03034395  0.05794581 -0.02792439 -0.00466550
  7   H            X  0.01766044 -0.00713240 -0.02329387 -0.06576725 -0.07772559
                   Y -0.00652716 -0.00799174 -0.05812172  0.00157272 -0.05435750
                   Z  0.02669373  0.02391524  0.00121138 -0.06679789 -0.04121089
  8   AT           X  0.00624384 -0.01521245 -0.00682472 -0.02495073  0.00330135
                   Y -0.02536181 -0.00965490  0.00872845  0.01696801  0.00233547
                   Z  0.00327159 -0.03200809  0.00815175  0.00275400 -0.00349992
  9   S            X -0.02565884 -0.01077889 -0.02932300 -0.02391456 -0.01043068
                   Y -0.02016882  0.00289533 -0.02273318 -0.01966321 -0.00185074
                   Z -0.03488827  0.02468087 -0.05699569  0.02293402  0.00101982

 TRANS. SAYVETZ    X -4.27040587 -0.00016909 -0.00075387 -0.00029005 -0.00146390
                   Y  3.40095685 -0.00017592  0.00054566 -0.00045584  0.00004708
                   Z  0.93253040  0.00047786  0.00006043 -0.00030280  0.00011330
               TOTAL  5.53827470  0.00053655  0.00093258  0.00061936  0.00146903

   ROT. SAYVETZ    X-51.34865387  0.00164831  0.00787342  0.00008708  0.00359920
                   Y-23.94246242  0.00233421 -0.01014414 -0.00663272 -0.00916633
                   Z 60.13071437 -0.00479439  0.00897508 -0.00213019  0.01823881
               TOTAL 82.61736241  0.00558136  0.01566673  0.00696694  0.02072752

                           11          12          13          14          15
       FREQUENCY:        85.58       93.26      131.99      140.23      162.95  
        SYMMETRY:         A           A           A           A           A   
    REDUCED MASS:     13.55499    18.77152     1.64385     3.16195    39.89239
    IR INTENSITY:      0.19764     0.27901     0.02632     0.50944     0.22714

  1   BI           X -0.00901003 -0.00676913 -0.01976619  0.02089107 -0.03399605
                   Y -0.00107236  0.00707273 -0.01373092  0.01396467 -0.01478791
                   Z -0.01153463  0.00933289  0.01192991 -0.02098199 -0.03214837
  2   SN           X -0.00300738  0.00877589 -0.00392274  0.00880983  0.01169591
                   Y -0.00027922  0.00060326 -0.00311049  0.00421304  0.00664964
                   Z -0.03079651  0.02438776 -0.01832305  0.03270824  0.05032545
  3   H            X  0.08601793  0.03980017  0.04448975  0.02235107  0.00967616
                   Y  0.00182502 -0.00928483 -0.00316601 -0.00717538  0.00860480
                   Z -0.03500977 -0.00562093 -0.02365762  0.00067766  0.05581859
  4   H            X -0.04255393 -0.00557919 -0.02156434  0.00049641  0.01282948
                   Y  0.07347420  0.02590321  0.03025979  0.01982600  0.00280458
                   Z -0.04685252  0.01050999 -0.04222846  0.03926344  0.03022146
  5   H            X -0.03526750 -0.00065588 -0.00640709 -0.00312870  0.01537736
                   Y -0.06738581 -0.02943345 -0.03415288 -0.01622231  0.01201136
                   Z  0.00450962  0.04917013  0.02551485  0.03781188  0.05018278
  6   SE           X  0.01551005 -0.00327777 -0.00085931  0.01368952  0.01216638
                   Y  0.00827295  0.03131683  0.00093620 -0.02556970 -0.00725696
                   Z  0.01492481 -0.02885902 -0.00353870 -0.00258455  0.00054049
  7   H            X  0.13348310  0.06684524  0.57665069  0.45609624 -0.05634477
                   Y  0.06965049  0.13334340  0.39929460  0.22495150 -0.07315440
                   Z  0.07062814  0.04228444  0.32552686  0.21771270 -0.04933323
  8   AT           X -0.01294194 -0.01179980  0.02217805 -0.02768614  0.01982135
                   Y -0.01151985 -0.00973276  0.01696774 -0.01161508  0.01009073
                   Z  0.01393095  0.00028992 -0.00159031  0.00210248  0.00155360
  9   S            X  0.11193534  0.09386003 -0.01830876 -0.03697172  0.01833648
                   Y  0.06058985 -0.06664461 -0.02472999  0.02614400  0.02515401
                   Z  0.06228307 -0.08527544  0.00103783 -0.00217923  0.00710592

 TRANS. SAYVETZ    X -0.00005077 -0.00002506 -0.00021855 -0.00009572  0.00002847
                   Y -0.00010197  0.00007771  0.00001275  0.00002666 -0.00000371
                   Z -0.00048153 -0.00022923 -0.00003535  0.00001324 -0.00005799
               TOTAL  0.00049483  0.00024334  0.00022176  0.00010024  0.00006471

   ROT. SAYVETZ    X -0.00133041 -0.00264548 -0.00500883 -0.00259265  0.00045179
                   Y  0.00600397  0.00276199  0.00730980  0.00478784 -0.00002655
                   Z -0.00001024  0.00031372  0.00146006  0.00101361 -0.00034503
               TOTAL  0.00614962  0.00383740  0.00898072  0.00553829  0.00056910

                           16          17          18          19          20
       FREQUENCY:       219.45      388.04      428.49      431.77      698.07  
        SYMMETRY:         A           A           A           A           A   
    REDUCED MASS:     38.06232    26.59864     1.03574     1.04710     1.02909
    IR INTENSITY:      0.42979     0.65065     0.01264     0.02063     5.63916

  1   BI           X  0.02143603  0.00126779 -0.00435289 -0.00129506  0.00059935
                   Y -0.02530790 -0.01844877 -0.00095237  0.00662044  0.00181060
                   Z -0.01904381  0.01662529  0.00164159 -0.00177006 -0.00337546
  2   SN           X  0.00267590 -0.00040805  0.01282831  0.00250866 -0.00092430
                   Y  0.00070894 -0.00150168  0.00206640 -0.01318906 -0.00197302
                   Z  0.00798413 -0.00136856 -0.00369515  0.00136416 -0.00609452
  3   H            X  0.00684199  0.01701841 -0.24639241  0.12795229  0.07463759
                   Y  0.00904031  0.02916385 -0.04789476  0.28196154  0.12200367
                   Z  0.02957169  0.07018471 -0.08539651  0.67324683  0.31402364
  4   H            X  0.00122705 -0.00965694 -0.02938374 -0.10623879 -0.00014787
                   Y  0.00478752  0.01551704  0.06975962  0.19213295  0.02571947
                   Z  0.01378834 -0.03607553  0.73440852 -0.25008889  0.30835230
  5   H            X -0.00385463 -0.00990224 -0.32282206 -0.14257471  0.11919541
                   Y  0.00287668  0.01282137 -0.11873167  0.14203561  0.01632158
                   Z -0.00895116 -0.04042259 -0.47970006 -0.49962685  0.24161382
  6   SE           X -0.05638240  0.00001622 -0.00008313 -0.00009539  0.00515324
                   Y  0.06387016 -0.00073942  0.00093186  0.00048225 -0.01088481
                   Z  0.03265294 -0.00008417  0.00117142  0.00147489  0.00336698
  7   H            X  0.03439761  0.00211307  0.03784568  0.05700449 -0.52159149
                   Y  0.09599229  0.01852987 -0.00159465 -0.03563345  0.59025923
                   Z  0.06760366  0.01132074  0.00650099 -0.00887699  0.25177377
  8   AT           X -0.00061320 -0.00049233 -0.00055528  0.00021788 -0.00018587
                   Y  0.00022299 -0.00023575 -0.00033896 -0.00006903 -0.00027456
                   Z  0.00011397 -0.00000595 -0.00072097  0.00028542 -0.00003619
  9   S            X -0.00640696 -0.00355045  0.00187424 -0.00012326 -0.00177512
                   Y -0.00190217  0.12721965  0.00147605 -0.01286313  0.00079776
                   Z  0.00895210 -0.10344569 -0.00060837  0.00358227  0.00156967

 TRANS. SAYVETZ    X -0.00002312 -0.00001498  0.00001173 -0.00001809 -0.00000063
                   Y  0.00001334  0.00001994 -0.00000726 -0.00003265 -0.00000698
                   Z  0.00000211 -0.00003579 -0.00003834 -0.00002146  0.00000617
               TOTAL  0.00002677  0.00004362  0.00004074  0.00004305  0.00000933

   ROT. SAYVETZ    X -0.00015527  0.00002201 -0.00005167 -0.00004395 -0.00030466
                   Y  0.00041870  0.00012656  0.00029597  0.00016313 -0.00020675
                   Z  0.00016625  0.00015185 -0.00015986 -0.00003569 -0.00011331
               TOTAL  0.00047650  0.00019890  0.00034033  0.00017268  0.00038523

                           21          22          23          24          25
       FREQUENCY:       721.85      797.11      798.14     2038.84     2042.41  
        SYMMETRY:         A           A           A           A           A   
    REDUCED MASS:      1.02687     1.01706     1.01710     1.01810     1.01639
    IR INTENSITY:     12.12864     1.69651     1.69227     2.70401     2.91508

  1   BI           X -0.00015901  0.00003495 -0.00046516 -0.00003470 -0.00008186
                   Y -0.00041570 -0.00049194 -0.00006866 -0.00010681  0.00002927
                   Z  0.00169327  0.00011839  0.00016049  0.00001446  0.00002549
  2   SN           X -0.00280007  0.00102120 -0.00845313 -0.00235276 -0.00827845
                   Y -0.00084852 -0.00859657 -0.00079047 -0.00859135  0.00151376
                   Z -0.01008083  0.00088388  0.00203337  0.00234211  0.00019307
  3   H            X  0.10199286 -0.15546699  0.74127502 -0.04910303 -0.00564074
                   Y  0.16577987 -0.07046859 -0.04010877  0.80847583 -0.36297260
                   Z  0.42558331 -0.19766232 -0.19908628 -0.32927407  0.14569291
  4   H            X  0.01649554 -0.33271354  0.15311309  0.41118196  0.71682310
                   Y  0.00200313  0.63347510 -0.24809056  0.19981526  0.40278386
                   Z  0.46652078  0.08677297  0.22449665  0.00302837 -0.01290808
  5   H            X  0.20535539  0.36001454  0.16428868 -0.07789767  0.28565069
                   Y -0.00836412  0.51534749  0.39079728  0.02650223 -0.22132075
                   Z  0.46005649 -0.00356031 -0.27775210  0.04354627 -0.15485013
  6   SE           X -0.00284066 -0.00012794  0.00006959  0.00000140  0.00002801
                   Y  0.00625147  0.00036618  0.00007369  0.00003969 -0.00002287
                   Z -0.00306101 -0.00008362 -0.00005997  0.00000370 -0.00001468
  7   H            X  0.33211637  0.00662988  0.00861988 -0.00074890  0.00098333
                   Y -0.38135790 -0.01194368 -0.00653286 -0.00050918 -0.00023488
                   Z -0.16462548 -0.00558162 -0.00236525  0.00065098 -0.00042895
  8   AT           X -0.00042081  0.00000479  0.00006525  0.00000936 -0.00000134
                   Y -0.00013473  0.00005046  0.00001994  0.00001326 -0.00000674
                   Z -0.00009246 -0.00002647 -0.00005955 -0.00000997 -0.00001368
  9   S            X  0.00072721  0.00006128  0.00049560  0.00005086  0.00006663
                   Y -0.00184562  0.00059232  0.00006988  0.00012853 -0.00003785
                   Z -0.00243772  0.00007789 -0.00010476  0.00006903 -0.00005507

 TRANS. SAYVETZ    X -0.00000144  0.00000083 -0.00000122 -0.00000003  0.00000014
                   Y  0.00000800 -0.00000086 -0.00000059  0.00000013 -0.00000011
                   Z -0.00000445 -0.00000137 -0.00000137 -0.00000079  0.00000003
               TOTAL  0.00000926  0.00000182  0.00000193  0.00000080  0.00000018

   ROT. SAYVETZ    X  0.00016129  0.00002794  0.00001496 -0.00000440  0.00000197
                   Y  0.00008120  0.00001756  0.00003170  0.00000216  0.00000240
                   Z  0.00012338 -0.00001310  0.00002527 -0.00000230 -0.00000641
               TOTAL  0.00021871  0.00003551  0.00004321  0.00000541  0.00000712

                           26          27
       FREQUENCY:      2048.70     2584.04  
        SYMMETRY:         A           A   
    REDUCED MASS:      1.01152     1.02029
    IR INTENSITY:      2.50343     0.06588

  1   BI           X -0.00005680 -0.00000266
                   Y  0.00000968  0.00002096
                   Z -0.00000446 -0.00001849
  2   SN           X -0.00318372 -0.00000180
                   Y  0.00321695  0.00001280
                   Z  0.00319781 -0.00000045
  3   H            X -0.01990476  0.00020215
                   Y  0.24588855 -0.00089304
                   Z -0.08031015  0.00058295
  4   H            X -0.28307394  0.00007765
                   Y -0.13828461 -0.00015591
                   Z  0.01902497  0.00020759
  5   H            X  0.68671812  0.00001730
                   Y -0.49458602 -0.00011785
                   Z -0.32473955  0.00025631
  6   SE           X  0.00001357  0.00193133
                   Y -0.00002080  0.00602679
                   Z  0.00004131 -0.01071233
  7   H            X -0.00058336 -0.15054117
                   Y  0.00184422 -0.48384525
                   Z  0.00131927  0.85040555
  8   AT           X  0.00002377 -0.00000296
                   Y  0.00000837 -0.00000292
                   Z  0.00000193  0.00000186
  9   S            X  0.00004300 -0.00004794
                   Y  0.00000985  0.00005837
                   Z  0.00004739  0.00004705

 TRANS. SAYVETZ    X  0.00000063  0.00000032
                   Y  0.00000020  0.00000168
                   Z -0.00000033  0.00000024
               TOTAL  0.00000073  0.00000173

   ROT. SAYVETZ    X  0.00000486  0.00001219
                   Y  0.00001134  0.00000248
                   Z -0.00000961  0.00000991
               TOTAL  0.00001564  0.00001590

 REFERENCE ON SAYVETZ CONDITIONS - A. SAYVETZ, J.CHEM.PHYS., 7, 383-389(1939).

 NOTE - THE MODES J,K ARE ORTHONORMALIZED ACCORDING TO
 SUM ON I   M(I) * (X(I,J)*X(I,K) + Y(I,J)*Y(I,K) + Z(I,J)*Z(I,K)) = DELTA(J,K)

  MODE FREQ(CM**-1)  SYMMETRY  RED. MASS  IR INTENS.
     1       0.241    A       37.739421    0.013183
     2       0.133    A       64.709668    0.002676
     3       0.078    A       80.135458    0.001030
     4       0.092    A       87.155368    0.003182
     5       0.264    A       38.421129    0.004753
     6       0.406    A       31.796845    0.017365
     7      36.038    A       28.813260    0.000770
     8      43.580    A       20.055664    0.002578
     9      58.226    A       37.550746    0.014979
    10      71.608    A        1.053300    0.000602
    11      85.579    A       13.554989    0.197639
    12      93.264    A       18.771524    0.279012
    13     131.986    A        1.643850    0.026324
    14     140.228    A        3.161948    0.509441
    15     162.953    A       39.892394    0.227142
    16     219.453    A       38.062323    0.429793
    17     388.037    A       26.598641    0.650655
    18     428.491    A        1.035737    0.012641
    19     431.771    A        1.047099    0.020631
    20     698.067    A        1.029089    5.639155
    21     721.847    A        1.026869   12.128641
    22     797.112    A        1.017061    1.696507
    23     798.142    A        1.017105    1.692265
    24    2038.836    A        1.018097    2.704010
    25    2042.412    A        1.016390    2.915077
    26    2048.701    A        1.011520    2.503427
    27    2584.037    A        1.020289    0.065884

     -------------------------------
     THERMOCHEMISTRY AT T=  298.15 K
     -------------------------------

 USING IDEAL GAS, RIGID ROTOR, HARMONIC NORMAL MODE APPROXIMATIONS.
 P=  1.01325E+05 PASCAL.
 ALL FREQUENCIES ARE SCALED BY   1.00000
 THE MOMENTS OF INERTIA ARE (IN AMU*BOHR**2)
   5092.70779  7567.33830  9535.96005
 THE ROTATIONAL SYMMETRY NUMBER IS  1.0
 THE ROTATIONAL CONSTANTS ARE (IN GHZ)
      0.35405     0.23827     0.18908
      7 -     27 VIBRATIONAL MODES ARE USED IN THERMOCHEMISTRY.
 THE HARMONIC ZERO POINT ENERGY IS (SCALED BY   1.000)
        0.031941 HARTREE/MOLECULE     7010.184408 CM**-1/MOLECULE 
       20.043143 KCAL/MOL               83.860511 KJ/MOL

               Q               LN Q
 ELEC.     1.00000E+00       0.000000
 TRANS.    6.58577E+08      20.305592
 ROT.      6.86230E+06      15.741553
 VIB.      7.87518E+04      11.274056
 TOT.      3.55907E+20      47.321201

              E         H         G         CV        CP        S
           KJ/MOL    KJ/MOL    KJ/MOL   J/MOL-K   J/MOL-K   J/MOL-K
 ELEC.      0.000     0.000     0.000     0.000     0.000     0.000
 TRANS.     3.718     6.197   -50.336    12.472    20.786   189.615
 ROT.       3.718     3.718   -39.022    12.472    12.472   143.353
 VIB.     106.386   106.386    55.913   111.367   111.367   169.289
 TOTAL    113.823   116.302   -33.446   136.310   144.624   502.257
 VIB. THERMAL CORRECTION E(T)-E(0) = H(T)-H(0) = 22525.837 J/MOL

              E         H         G         CV        CP        S
         KCAL/MOL  KCAL/MOL  KCAL/MOL CAL/MOL-K CAL/MOL-K CAL/MOL-K
 ELEC.      0.000     0.000     0.000     0.000     0.000     0.000
 TRANS.     0.889     1.481   -12.031     2.981     4.968    45.319
 ROT.       0.889     0.889    -9.327     2.981     2.981    34.262
 VIB.      25.427    25.427    13.363    26.617    26.617    40.461
 TOTAL     27.204    27.797    -7.994    32.579    34.566   120.042
 VIB. THERMAL CORRECTION E(T)-E(0) = H(T)-H(0) =  5383.804 CAL/MOL
 ......END OF NORMAL COORDINATE ANALYSIS......
 STEP CPU TIME =     0.00 TOTAL CPU TIME =       22.0 (    0.4 MIN)
 TOTAL WALL CLOCK TIME=       22.1 SECONDS, CPU UTILIZATION IS  99.64%
               809762  WORDS OF DYNAMIC MEMORY USED
 EXECUTION OF GAMESS TERMINATED NORMALLY Fri Jun  2 00:57:20 2017
 DDI: 263640 bytes (0.3 MB / 0 MWords) used by master data server.

 ----------------------------------------
 CPU timing information for all processes
 ========================================
 0: 21.738 + 0.320 = 22.59
 ----------------------------------------
 ddikick.x: exited gracefully.
unset echo
----- accounting info -----
Files used on the master node compute-0-8.local were:
-rw-rw-r-- 1 sarom sarom     2328 Jun  2 00:56 /scratch/ecp-bisn-hess.F05
-rw-rw-r-- 1 sarom sarom 83167392 Jun  2 00:56 /scratch/ecp-bisn-hess.F08
-rw-rw-r-- 1 sarom sarom  4940720 Jun  2 00:57 /scratch/ecp-bisn-hess.F10
-rw-rw-r-- 1 sarom sarom   884736 Jun  2 00:57 /scratch/ecp-bisn-hess.F18
rm: cannot remove `/scratch/sarom': Is a directory
rm: cannot remove `/scratch/tmp': Is a directory
ls: No match.
ls: No match.
ls: No match.
Fri Jun  2 00:57:23 CDT 2017
0.256u 0.238s 0:25.71 1.8%	0+0k 8+368io 0pf+0w
Deleting shmid=2785280.
Deleting shmid=2818049.
/opt/gridengine/default/spool/compute-0-8/active_jobs/23506.1/pe_hostfile compute-0-8.local
