----- GAMESS execution script 'rungms' -----
This job is running on host compute-3-0
under operating system Linux at Mon Nov 28 18:12:14 CST 2016
Available scratch disk space (Kbyte units) at beginning of the job is
Filesystem            1K-blocks       Used  Available Use% Mounted on
bolt.local:/export/home/sarom
                     9590469632 1552095232 7551207424  18% /home/sarom
Copying input file c32h16.inp to your run's scratch directory...
cp c32h16.inp .//c32h16.F05
unset echo
/home/sarom/gamessGH/ddikick.x /home/sarom/gamessGH/gamess.00.x c32h16 -ddi 1 1 localhost -scr ./

 Distributed Data Interface kickoff program.
 Initiating 1 compute processes on 1 nodes to run the following command:
 /home/sarom/gamessGH/gamess.00.x c32h16 

          ******************************************************
          *         GAMESS VERSION = 18 AUG 2016 (R1)          *
          *             FROM IOWA STATE UNIVERSITY             *
          * M.W.SCHMIDT, K.K.BALDRIDGE, J.A.BOATZ, S.T.ELBERT, *
          *   M.S.GORDON, J.H.JENSEN, S.KOSEKI, N.MATSUNAGA,   *
          *          K.A.NGUYEN, S.J.SU, T.L.WINDUS,           *
          *       TOGETHER WITH M.DUPUIS, J.A.MONTGOMERY       *
          *         J.COMPUT.CHEM.  14, 1347-1363(1993)        *
          **************** 64 BIT LINUX VERSION ****************

  SINCE 1993, STUDENTS AND POSTDOCS WORKING AT IOWA STATE UNIVERSITY
  AND ALSO IN THEIR VARIOUS JOBS AFTER LEAVING ISU HAVE MADE IMPORTANT
  CONTRIBUTIONS TO THE CODE:
     IVANA ADAMOVIC, CHRISTINE AIKENS, YURI ALEXEEV, POOJA ARORA,
     ANDREY ASADCHEV, ROB BELL, PRADIPTA BANDYOPADHYAY, JONATHAN BENTZ,
     BRETT BODE, KURT BRORSEN, CALEB CARLIN, GALINA CHABAN, WEI CHEN,
     CHEOL HO CHOI, PAUL DAY, ALBERT DEFUSCO, NUWAN DESILVA, TIM DUDLEY,
     DMITRI FEDOROV, GRAHAM FLETCHER, MARK FREITAG, KURT GLAESEMANN,
     DAN KEMP, GRANT MERRILL, NORIYUKI MINEZAWA, JONATHAN MULLIN,
     TAKESHI NAGATA, SEAN NEDD, HEATHER NETZLOFF, BOSILJKA NJEGIC, RYAN OLSON,
     MIKE PAK, SPENCER PRUITT, LUKE ROSKOP, JIM SHOEMAKER, LYUDMILA SLIPCHENKO,
     TONY SMITH, SAROM SOK LEANG, JIE SONG, TETSUYA TAKETSUGU, SIMON WEBB,
     PENG XU, SOOHAENG YOO, FEDERICO ZAHARIEV

  ADDITIONAL CODE HAS BEEN PROVIDED BY COLLABORATORS IN OTHER GROUPS:
     IOWA STATE UNIVERSITY:
          JOE IVANIC, AARON WEST, LAIMUTIS BYTAUTAS, KLAUS RUEDENBERG
     UNIVERSITY OF TOKYO: KIMIHIKO HIRAO, TAKAHITO NAKAJIMA,
          TAKAO TSUNEDA, MUNEAKI KAMIYA, SUSUMU YANAGISAWA,
          KIYOSHI YAGI, MAHITO CHIBA, SEIKEN TOKURA, NAOAKI KAWAKAMI
     UNIVERSITY OF AARHUS: FRANK JENSEN
     UNIVERSITY OF IOWA: VISVALDAS KAIRYS, HUI LI
     NATIONAL INST. OF STANDARDS AND TECHNOLOGY: WALT STEVENS, DAVID GARMER
     UNIVERSITY OF PISA: BENEDETTA MENNUCCI, JACOPO TOMASI
     UNIVERSITY OF MEMPHIS: HENRY KURTZ, PRAKASHAN KORAMBATH
     UNIVERSITY OF ALBERTA: TOBY ZENG, MARIUSZ KLOBUKOWSKI
     UNIVERSITY OF NEW ENGLAND: MARK SPACKMAN
     MIE UNIVERSITY: HIROAKI UMEDA
     NAT. INST. OF ADVANCED INDUSTRIAL SCIENCE AND TECHNOLOGY: KAZUO KITAURA
     MICHIGAN STATE UNIVERSITY:
          KAROL KOWALSKI, MARTA WLOCH, JEFFREY GOUR, JESSE LUTZ,
          WEI LI, PIOTR PIECUCH
     UNIVERSITY OF SILESIA: MONIKA MUSIAL, STANISLAW KUCHARSKI
     FACULTES UNIVERSITAIRES NOTRE-DAME DE LA PAIX:
          OLIVIER QUINET, BENOIT CHAMPAGNE
     UNIVERSITY OF CALIFORNIA - SANTA BARBARA: BERNARD KIRTMAN
     INSTITUTE FOR MOLECULAR SCIENCE:
          KAZUYA ISHIMURA, MICHIO KATOUDA, AND SHIGERU NAGASE
     UNIVERSITY OF NOTRE DAME: ANNA POMOGAEVA, DAN CHIPMAN
     KYUSHU UNIVERSITY:
          HARUYUKI NAKANO,
          FENG LONG GU, JACEK KORCHOWIEC, MARCIN MAKOWSKI, AND YURIKO AOKI,
          HIROTOSHI MORI AND EISAKU MIYOSHI
     PENNSYLVANIA STATE UNIVERSITY:
          TZVETELIN IORDANOV, CHET SWALINA, JONATHAN SKONE,
          SHARON HAMMES-SCHIFFER
     WASEDA UNIVERSITY:
          MASATO KOBAYASHI, TOMOKO AKAMA, TSUGUKI TOUMA,
          TAKESHI YOSHIKAWA, YASUHIRO IKABATA, JUNJI SEINO,
          YUYA NAKAJIMA, HIROMI NAKAI
     NANJING UNIVERSITY: SHUHUA LI
     UNIVERSITY OF NEBRASKA:
          PEIFENG SU, DEJUN SI, NANDUN THELLAMUREGE, YALI WANG, HUI LI
     UNIVERSITY OF ZURICH: ROBERTO PEVERATI, KIM BALDRIDGE
     N. COPERNICUS UNIVERSITY AND JACKSON STATE UNIVERSITY:
          MARIA BARYSZ
     UNIVERSITY OF COPENHAGEN: Jimmy Kromann, CASPER STEINMANN
     TOKYO INSTITUTE OF TECHNOLOGY: HIROYA NAKATA
     NAGOYA UNIVERSITY: YOSHIO NISHIMOTO, STEPHAN IRLE
     MOSCOW STATE UNIVERSITY: VLADIMIR MIRONOV

 EXECUTION OF GAMESS BEGUN Mon Nov 28 18:12:14 2016

            ECHO OF THE FIRST FEW INPUT CARDS -
 INPUT CARD>!   AO integral direct DFT test case from Shiro Koseki (B3LYP)                  
 INPUT CARD>!   C32H16, 48 atoms, 104 occupied MOs, 6-31G(d) has 512 AOs/MOs                
 INPUT CARD>!                                                                               
 INPUT CARD>!   This beautiful molecule has a central octagon of carbon atoms,              
 INPUT CARD>!   surrounded by 8 fused hexagons, each having two external H's,               
 INPUT CARD>!   so the entire molecule is curved into the shape of a saddle.                
 INPUT CARD>!   Koseki-san did a tight geometry optimization with the original              
 INPUT CARD>!   polar coordinate grid, whose gradient error is considerably                 
 INPUT CARD>!   larger than the OPTTOL=1d-5 he used!                                        
 INPUT CARD>!                                                                               
 INPUT CARD>!   FINAL E= -1228.2508186127, 19 iters, RMS grad=0.000115680                   
 INPUT CARD>!                                                                               
 INPUT CARD>!   This run takes 577 seconds on a 2.66 GHz Cloverton (31 Mar 2015)            
 INPUT CARD>!   results have been stationary since 2008.                                    
 INPUT CARD>!                                                                               
 INPUT CARD>!   ----------------------------------------------------------------------      
 INPUT CARD>!                            E            r.m.s     t(CPU)                      
 INPUT CARD>!   Hartree-Fock     -1221.0591267538  0.007924131   361   (13 iters)           
 INPUT CARD>!   standard grid 1  -1228.2525831189  0.000229903   497   (15 iters)           
 INPUT CARD>!   nthe=12/nphi=24  -1228.2512605457  0.000001366   861   old default          
 INPUT CARD>!      nleb= 194     -1228.2523511590  0.000227133   781                        
 INPUT CARD>!      nleb= 302     -1228.2508186128  0.000115680   871   new default          
 INPUT CARD>!      nleb= 350     -1228.2512093981  0.000127478   958                        
 INPUT CARD>!      nleb= 434     -1228.2511523758  0.000121979  1053                        
 INPUT CARD>!      nleb= 590     -1228.2510845745  0.000111761  1237                        
 INPUT CARD>!      nleb=1202     -1228.2510928592  0.000112757  1920, i.e. "army grade"     
 INPUT CARD>!                                                                               
 INPUT CARD>!   accuracy assessment, taking nleb=1202 as the "exact result".                
 INPUT CARD>!                   E error   avg.abs(g-g0)   N(electron)                       
 INPUT CARD>!   standard grid 1   +31       0.0001040     208.009485                        
 INPUT CARD>!   nthe=12/nphi=24    +4       0.0000893     208.001418   old default          
 INPUT CARD>!      nleb= 194      -26       0.0001150     208.007815                        
 INPUT CARD>!      nleb= 302       +6       0.0000403     207.998328   new default          
 INPUT CARD>!      nleb= 350       +2       0.0000383     208.000974                        
 INPUT CARD>!      nleb= 434       -1       0.0000163     208.000326                        
 INPUT CARD>!      nleb= 590        0       0.0000081     207.999973                        
 INPUT CARD>!      nleb=1202        0       0.0000000     207.999994   almost 208           
 INPUT CARD>!                                                                               
 INPUT CARD>!   E error means (E0 - E)/48 where 48=number of atoms, in microHartree         
 INPUT CARD>!   Average absolute error in gradient means                                    
 INPUT CARD>!                48  3                                                          
 INPUT CARD>!   1/(3*48) *  sum sum  abs(grad0(j,i)-grad(j,i))      in Hartree/Bohr         
 INPUT CARD>!               i=1 j=1                                                         
 INPUT CARD>!                                                                               
 INPUT CARD>!   time on DFT grid points in the SCF cannot be separated from AO              
 INPUT CARD>!   integrals, etc.  However the grid point time for the nuclear                
 INPUT CARD>!   gradient is measured separately, and is                                     
 INPUT CARD>!     SG1  =  15.5             (SG1 is a pruned (50,194) grid)                  
 INPUT CARD>!     12/24=        122        (12*24=288 is most comparable to 302)            
 INPUT CARD>!     NLEB =  77.2  121  140  175  238  489 s.conds for                         
   15000000 WORDS OF MEMORY AVAILABLE

     BASIS OPTIONS
     -------------
     GBASIS=N31          IGAUSS=       6      POLAR=POPN31  
     NDFUNC=       1     NFFUNC=       0     DIFFSP=       F
     NPFUNC=       0      DIFFS=       F     BASNAM=        


     RUN TITLE
     ---------
 C32H16 DFT test case from Shiro...optimized using old polar coord grid          

 THE POINT GROUP OF THE MOLECULE IS DND     
 THE ORDER OF THE PRINCIPAL AXIS IS     2

 ATOM      ATOMIC                      COORDINATES (BOHR)
           CHARGE         X                   Y                   Z
 C           6.0    -1.1691793160       -3.1000600093        0.7566225760
 C           6.0     1.1691793160       -3.1000600093       -0.7566225760
 C           6.0    -1.1691793160        3.1000600093       -0.7566225760
 C           6.0     3.1000600093        1.1691793160        0.7566225760
 C           6.0    -3.1000600093       -1.1691793160        0.7566225760
 C           6.0     3.1000600093       -1.1691793160       -0.7566225760
 C           6.0    -3.1000600093        1.1691793160       -0.7566225760
 C           6.0     1.1691793160        3.1000600093        0.7566225760
 C           6.0    -1.7883964087       -5.4584004121        1.9271825319
 C           6.0     1.7883964087       -5.4584004121       -1.9271825319
 C           6.0    -1.7883964087        5.4584004121       -1.9271825319
 C           6.0     5.4584004121        1.7883964087        1.9271825319
 C           6.0    -5.4584004121       -1.7883964087        1.9271825319
 C           6.0     5.4584004121       -1.7883964087       -1.9271825319
 C           6.0    -5.4584004121        1.7883964087       -1.9271825319
 C           6.0     1.7883964087        5.4584004121        1.9271825319
 C           6.0    -0.7266652366       -7.7855924880        1.0564560680
 C           6.0     0.7266652366       -7.7855924880       -1.0564560680
 C           6.0    -0.7266652366        7.7855924880       -1.0564560680
 C           6.0     7.7855924880        0.7266652366        1.0564560680
 C           6.0    -7.7855924880       -0.7266652366        1.0564560680
 C           6.0     7.7855924880       -0.7266652366       -1.0564560680
 C           6.0    -7.7855924880        0.7266652366       -1.0564560680
 C           6.0     0.7266652366        7.7855924880        1.0564560680
 C           6.0    -3.8258957771       -5.6459606009        3.6630092729
 C           6.0     3.8258957771       -5.6459606009       -3.6630092729
 C           6.0    -3.8258957771        5.6459606009       -3.6630092729
 C           6.0     5.6459606009        3.8258957771        3.6630092729
 C           6.0    -5.6459606009       -3.8258957771        3.6630092729
 C           6.0     5.6459606009       -3.8258957771       -3.6630092729
 C           6.0    -5.6459606009        3.8258957771       -3.6630092729
 C           6.0     3.8258957771        5.6459606009        3.6630092729
 H           1.0    -1.3342076441       -9.5354264936        1.9440739984
 H           1.0     1.3342076441       -9.5354264936       -1.9440739984
 H           1.0    -1.3342076441        9.5354264936       -1.9440739984
 H           1.0     9.5354264936        1.3342076441        1.9440739984
 H           1.0    -9.5354264936       -1.3342076441        1.9440739984
 H           1.0     9.5354264936       -1.3342076441       -1.9440739984
 H           1.0    -9.5354264936        1.3342076441       -1.9440739984
 H           1.0     1.3342076441        9.5354264936        1.9440739984
 H           1.0    -4.0536547245       -7.3808712064        4.7396845703
 H           1.0     4.0536547245       -7.3808712064       -4.7396845703
 H           1.0    -4.0536547245        7.3808712064       -4.7396845703
 H           1.0     7.3808712064        4.0536547245        4.7396845703
 H           1.0    -7.3808712064       -4.0536547245        4.7396845703
 H           1.0     7.3808712064       -4.0536547245       -4.7396845703
 H           1.0    -7.3808712064        4.0536547245       -4.7396845703
 H           1.0     4.0536547245        7.3808712064        4.7396845703

          INTERNUCLEAR DISTANCES (ANGS.)
          ------------------------------

                1 C          2 C          3 C          4 C          5 C     

   1 C       0.0000000    1.4739113 *  3.3772704    3.1949691    1.4450125 *
   2 C       1.4739113 *  0.0000000    3.5065494    2.6056064 *  2.6056064 *
   3 C       3.3772704    3.5065494    0.0000000    2.6056064 *  2.6056064 *
   4 C       3.1949691    2.6056064 *  2.6056064 *  0.0000000    3.5065494  
   5 C       1.4450125 *  2.6056064 *  2.6056064 *  3.5065494    0.0000000  
   6 C       2.6056064 *  1.4450125 *  3.1949691    1.4739113 *  3.3772704  
   7 C       2.6056064 *  3.1949691    1.4450125 *  3.3772704    1.4739113 *
   8 C       3.5065494    3.3772704    1.4739113 *  1.4450125 *  3.1949691  
   9 C       1.4312665 *  2.4543691 *  4.7576974    4.4017888    2.4530142 *
  10 C       2.4543691 *  1.4312665 *  4.8316146    3.8469433    3.7229879  
  11 C       4.7576974    4.8316146    1.4312665 *  3.7229879    3.8469433  
  12 C       4.4017888    3.7229879    3.8469433    1.4312665 *  4.8316146  
  13 C       2.4530142 *  3.8469433    3.7229879    4.8316146    1.4312665 *
  14 C       3.8469433    2.4530142 *  4.4017888    2.4543691 *  4.7576974  
  15 C       3.7229879    4.4017888    2.4530142 *  4.7576974    2.4543691 *
  16 C       4.8316146    4.7576974    2.4543691 *  2.4530142 *  4.4017888  
  17 C       2.4955594 *  2.8416225 *  5.8444867    5.1556549    3.7230854  
  18 C       2.8416225 *  2.4955594 *  5.8493013    4.9952817    4.1569224  
  19 C       5.8444867    5.8493013    2.4955594 *  4.1569224    4.9952817  
  20 C       5.1556549    4.1569224    4.9952817    2.4955594 *  5.8493013  
  21 C       3.7230854    4.9952817    4.1569224    5.8493013    2.4955594 *
  22 C       4.9952817    3.7230854    5.1556549    2.8416225 *  5.8444867  
  23 C       4.1569224    5.1556549    3.7230854    5.8444867    2.8416225 *
  24 C       5.8493013    5.8444867    2.8416225 *  3.7230854    5.1556549  
  25 C       2.4813186 *  3.7778042    5.3727563    5.3669656    2.8504678 *
  26 C       3.7778042    2.4813186 *  5.5473006    4.3155083    4.9512324  
  27 C       5.3727563    5.5473006    2.4813186 *  4.9512324    4.3155083  
  28 C       5.3669656    4.9512324    4.3155083    2.4813186 *  5.5473006  
  29 C       2.8504678 *  4.3155083    4.9512324    5.5473006    2.4813186 *
  30 C       4.3155083    2.8504678 *  5.3669656    3.7778042    5.3727563  
  31 C       4.9512324    5.3669656    2.8504678 *  5.3727563    3.7778042  
  32 C       5.5473006    5.3727563    3.7778042    2.8504678 *  5.3669656  
  33 H       3.4640388    3.9235790    6.8379963    6.1635261    4.5681934  
  34 H       3.9235790    3.4640388    6.8452817    5.9163953    5.2104637  
  35 H       6.8379963    6.8452817    3.4640388    5.2104637    5.9163953  
  36 H       6.1635261    5.2104637    5.9163953    3.4640388    6.8452817  
  37 H       4.5681934    5.9163953    5.2104637    6.8452817    3.4640388  
  38 H       5.9163953    4.5681934    6.1635261    3.9235790    6.8379963  
  39 H       5.2104637    6.1635261    4.5681934    6.8379963    3.9235790  
  40 H       6.8452817    6.8379963    3.9235790    4.5681934    6.1635261  
  41 H       3.4502327    4.6075731    6.4459678    6.2645240    3.9372794  
  42 H       4.6075731    3.4502327    6.5454049    5.4023295    5.7961251  
  43 H       6.4459678    6.5454049    3.4502327    5.7961251    5.4023295  
  44 H       6.2645240    5.7961251    5.4023295    3.4502327    6.5454049  
  45 H       3.9372794    5.4023295    5.7961251    6.5454049    3.4502327  
  46 H       5.4023295    3.9372794    6.2645240    4.6075731    6.4459678  
  47 H       5.7961251    6.2645240    3.9372794    6.4459678    4.6075731  
  48 H       6.5454049    6.4459678    4.6075731    3.9372794    6.2645240  

                6 C          7 C          8 C          9 C         10 C     

   1 C       2.6056064 *  2.6056064 *  3.5065494    1.4312665 *  2.4543691 *
   2 C       1.4450125 *  3.1949691    3.3772704    2.4543691 *  1.4312665 *
   3 C       3.1949691    1.4450125 *  1.4739113 *  4.7576974    4.8316146  
   4 C       1.4739113 *  3.3772704    1.4450125 *  4.4017888    3.8469433  
   5 C       3.3772704    1.4739113 *  3.1949691    2.4530142 *  3.7229879  
   6 C       0.0000000    3.5065494    2.6056064 *  3.7229879    2.4530142 *
   7 C       3.5065494    0.0000000    2.6056064 *  3.8469433    4.4017888  
   8 C       2.6056064 *  2.6056064 *  0.0000000    4.8316146    4.7576974  
   9 C       3.7229879    3.8469433    4.8316146    0.0000000    2.7825656 *
  10 C       2.4530142 *  4.4017888    4.7576974    2.7825656 *  0.0000000  
  11 C       4.4017888    2.4530142 *  2.4543691 *  6.1264162    6.0790925  
  12 C       2.4543691 *  4.7576974    2.4530142 *  5.4232827    4.7579222  
  13 C       4.7576974    2.4543691 *  4.4017888    2.7465196 *  4.7579222  
  14 C       1.4312665 *  4.8316146    3.7229879    4.7579222    2.7465196 *
  15 C       4.8316146    1.4312665 *  3.8469433    4.7579222    5.4232827  
  16 C       3.8469433    3.7229879    1.4312665 *  6.0790925    6.1264162  
  17 C       4.1569224    4.9952817    5.8493013    1.4298816 *  2.4043206 *
  18 C       3.7230854    5.1556549    5.8444867    2.4043206 *  1.4298816 *
  19 C       5.1556549    3.7230854    2.8416225 *  7.2060015    7.1485373  
  20 C       2.8416225 *  5.8444867    3.7230854    6.0491803    4.8246195  
  21 C       5.8444867    2.8416225 *  5.1556549    4.0686072    5.8677306  
  22 C       2.4955594 *  5.8493013    4.1569224    5.8677306    4.0686072  
  23 C       5.8493013    2.4955594 *  4.9952817    4.8246195    6.0491803  
  24 C       4.9952817    4.1569224    2.4955594 *  7.1485373    7.2060015  
  25 C       4.9512324    4.3155083    5.5473006    1.4198997 *  4.1937322  
  26 C       2.8504678 *  5.3669656    5.3727563    4.1937322    1.4198997 *
  27 C       5.3669656    2.8504678 *  3.7778042    6.6665514    6.6482904  
  28 C       3.7778042    5.3727563    2.8504678 *  6.3607219    6.0873603  
  29 C       5.3727563    3.7778042    5.3669656    2.3993954 *  4.9974335  
  30 C       2.4813186 *  5.5473006    4.9512324    4.9974335    2.3993954 *
  31 C       5.5473006    2.4813186 *  4.3155083    6.0873603    6.3607219  
  32 C       4.3155083    4.9512324    2.4813186 *  6.6482904    6.6665514  
  33 H       5.2104637    5.9163953    6.8452817    2.1708341 *  3.4032073  
  34 H       4.5681934    6.1635261    6.8379963    3.4032073    2.1708341 *
  35 H       6.1635261    4.5681934    3.9235790    8.1981112    8.1046357  
  36 H       3.9235790    6.8379963    4.5681934    6.9877204    5.8243794  
  37 H       6.8379963    3.9235790    6.1635261    4.6442872    6.6983171  
  38 H       3.4640388    6.8452817    5.2104637    6.6983171    4.6442872  
  39 H       6.8452817    3.4640388    5.9163953    5.8243794    6.9877204  
  40 H       5.9163953    5.2104637    3.4640388    8.1046357    8.1981112  
  41 H       5.7961251    5.4023295    6.5454049    2.1649402 *  4.7998615  
  42 H       3.9372794    6.2645240    6.4459678    4.7998615    2.1649402 *
  43 H       6.2645240    3.9372794    4.6075731    7.7488863    7.6114495  
  44 H       4.6075731    6.4459678    3.9372794    7.1481021    6.8221207  
  45 H       6.4459678    4.6075731    6.2645240    3.3949619    6.0450457  
  46 H       3.4502327    6.5454049    5.7961251    6.0450457    3.3949619  
  47 H       6.5454049    3.4502327    5.4023295    6.8221207    7.1481021  
  48 H       5.4023295    5.7961251    3.4502327    7.6114495    7.7488863  

               11 C         12 C         13 C         14 C         15 C     

   1 C       4.7576974    4.4017888    2.4530142 *  3.8469433    3.7229879  
   2 C       4.8316146    3.7229879    3.8469433    2.4530142 *  4.4017888  
   3 C       1.4312665 *  3.8469433    3.7229879    4.4017888    2.4530142 *
   4 C       3.7229879    1.4312665 *  4.8316146    2.4543691 *  4.7576974  
   5 C       3.8469433    4.8316146    1.4312665 *  4.7576974    2.4543691 *
   6 C       4.4017888    2.4543691 *  4.7576974    1.4312665 *  4.8316146  
   7 C       2.4530142 *  4.7576974    2.4543691 *  4.8316146    1.4312665 *
   8 C       2.4543691 *  2.4530142 *  4.4017888    3.7229879    3.8469433  
   9 C       6.1264162    5.4232827    2.7465196 *  4.7579222    4.7579222  
  10 C       6.0790925    4.7579222    4.7579222    2.7465196 *  5.4232827  
  11 C       0.0000000    4.7579222    4.7579222    5.4232827    2.7465196 *
  12 C       4.7579222    0.0000000    6.0790925    2.7825656 *  6.1264162  
  13 C       4.7579222    6.0790925    0.0000000    6.1264162    2.7825656 *
  14 C       5.4232827    2.7825656 *  6.1264162    0.0000000    6.0790925  
  15 C       2.7465196 *  6.1264162    2.7825656 *  6.0790925    0.0000000  
  16 C       2.7825656 *  2.7465196 *  5.4232827    4.7579222    4.7579222  
  17 C       7.2060015    6.0491803    4.0686072    4.8246195    5.8677306  
  18 C       7.1485373    5.8677306    4.8246195    4.0686072    6.0491803  
  19 C       1.4298816 *  4.8246195    5.8677306    6.0491803    4.0686072  
  20 C       5.8677306    1.4298816 *  7.1485373    2.4043206 *  7.2060015  
  21 C       4.8246195    7.1485373    1.4298816 *  7.2060015    2.4043206 *
  22 C       6.0491803    2.4043206 *  7.2060015    1.4298816 *  7.1485373  
  23 C       4.0686072    7.2060015    2.4043206 *  7.1485373    1.4298816 *
  24 C       2.4043206 *  4.0686072    6.0491803    5.8677306    4.8246195  
  25 C       6.6665514    6.3607219    2.3993954 *  6.0873603    4.9974335  
  26 C       6.6482904    4.9974335    6.0873603    2.3993954 *  6.3607219  
  27 C       1.4198997 *  6.0873603    4.9974335    6.3607219    2.3993954 *
  28 C       4.9974335    1.4198997 *  6.6482904    4.1937322    6.6665514  
  29 C       6.0873603    6.6482904    1.4198997 *  6.6665514    4.1937322  
  30 C       6.3607219    4.1937322    6.6665514    1.4198997 *  6.6482904  
  31 C       2.3993954 *  6.6665514    4.1937322    6.6482904    1.4198997 *
  32 C       4.1937322    2.3993954 *  6.3607219    4.9974335    6.0873603  
  33 H       8.1981112    6.9877204    4.6442872    5.8243794    6.6983171  
  34 H       8.1046357    6.6983171    5.8243794    4.6442872    6.9877204  
  35 H       2.1708341 *  5.8243794    6.6983171    6.9877204    4.6442872  
  36 H       6.6983171    2.1708341 *  8.1046357    3.4032073    8.1981112  
  37 H       5.8243794    8.1046357    2.1708341 *  8.1981112    3.4032073  
  38 H       6.9877204    3.4032073    8.1981112    2.1708341 *  8.1046357  
  39 H       4.6442872    8.1981112    3.4032073    8.1046357    2.1708341 *
  40 H       3.4032073    4.6442872    6.9877204    6.6983171    5.8243794  
  41 H       7.7488863    7.1481021    3.3949619    6.8221207    6.0450457  
  42 H       7.6114495    6.0450457    6.8221207    3.3949619    7.1481021  
  43 H       2.1649402 *  6.8221207    6.0450457    7.1481021    3.3949619  
  44 H       6.0450457    2.1649402 *  7.6114495    4.7998615    7.7488863  
  45 H       6.8221207    7.6114495    2.1649402 *  7.7488863    4.7998615  
  46 H       7.1481021    4.7998615    7.7488863    2.1649402 *  7.6114495  
  47 H       3.3949619    7.7488863    4.7998615    7.6114495    2.1649402 *
  48 H       4.7998615    3.3949619    7.1481021    6.0450457    6.8221207  

               16 C         17 C         18 C         19 C         20 C     

   1 C       4.8316146    2.4955594 *  2.8416225 *  5.8444867    5.1556549  
   2 C       4.7576974    2.8416225 *  2.4955594 *  5.8493013    4.1569224  
   3 C       2.4543691 *  5.8444867    5.8493013    2.4955594 *  4.9952817  
   4 C       2.4530142 *  5.1556549    4.9952817    4.1569224    2.4955594 *
   5 C       4.4017888    3.7230854    4.1569224    4.9952817    5.8493013  
   6 C       3.8469433    4.1569224    3.7230854    5.1556549    2.8416225 *
   7 C       3.7229879    4.9952817    5.1556549    3.7230854    5.8444867  
   8 C       1.4312665 *  5.8493013    5.8444867    2.8416225 *  3.7230854  
   9 C       6.0790925    1.4298816 *  2.4043206 *  7.2060015    6.0491803  
  10 C       6.1264162    2.4043206 *  1.4298816 *  7.1485373    4.8246195  
  11 C       2.7825656 *  7.2060015    7.1485373    1.4298816 *  5.8677306  
  12 C       2.7465196 *  6.0491803    5.8677306    4.8246195    1.4298816 *
  13 C       5.4232827    4.0686072    4.8246195    5.8677306    7.1485373  
  14 C       4.7579222    4.8246195    4.0686072    6.0491803    2.4043206 *
  15 C       4.7579222    5.8677306    6.0491803    4.0686072    7.2060015  
  16 C       0.0000000    7.1485373    7.2060015    2.4043206 *  4.0686072  
  17 C       7.1485373    0.0000000    1.3570655 *  8.3154307    6.3703153  
  18 C       7.2060015    1.3570655 *  0.0000000    8.2757294    5.9576847  
  19 C       2.4043206 *  8.3154307    8.2757294    0.0000000    5.9576847  
  20 C       4.0686072    6.3703153    5.9576847    5.9576847    0.0000000  
  21 C       6.0491803    5.2826869    5.9576847    5.9576847    8.2757294  
  22 C       4.8246195    5.9576847    5.2826869    6.3703153    1.3570655 *
  23 C       5.8677306    5.9576847    6.3703153    5.2826869    8.3154307  
  24 C       1.4298816 *  8.2757294    8.3154307    1.3570655 *  5.2826869  
  25 C       6.6482904    2.4236881 *  3.6500646    7.7101180    7.1435232  
  26 C       6.6665514    3.6500646    2.4236881 *  7.6305552    4.6904007  
  27 C       4.1937322    7.7101180    7.6305552    2.4236881 *  7.1252391  
  28 C       2.3993954 *  7.1435232    7.1252391    4.6904007    2.4236881 *
  29 C       6.3607219    3.6152058    4.6904007    7.1252391    7.6305552  
  30 C       6.0873603    4.6904007    3.6152058    7.1435232    3.6500646  
  31 C       4.9974335    7.1252391    7.1435232    3.6152058    7.7101180  
  32 C       1.4198997 *  7.6305552    7.7101180    3.6500646    3.6152058  
  33 H       8.1046357    1.0869270 *  2.1372667 *  9.3079554    7.2801626  
  34 H       8.1981112    2.1372667 *  1.0869270 *  9.2424827    6.6080250  
  35 H       3.4032073    9.3079554    9.2424827    1.0869270 *  6.8949219  
  36 H       4.6442872    7.2801626    6.8949219    6.6080250    1.0869270 *
  37 H       6.9877204    5.7969069    6.6080250    6.8949219    9.2424827  
  38 H       5.8243794    6.6080250    5.7969069    7.2801626    2.1372667 *
  39 H       6.6983171    6.8949219    7.2801626    5.7969069    9.3079554  
  40 H       2.1708341 *  9.2424827    9.3079554    2.1372667 *  5.7969069  
  41 H       7.6114495    2.6352193 *  3.9815271    8.7703962    7.8394371  
  42 H       7.7488863    3.9815271    2.6352193 *  8.6377428    5.6315687  
  43 H       4.7998615    8.7703962    8.6377428    2.6352193 *  7.8139517  
  44 H       3.3949619    7.8394371    7.8139517    5.6315687    2.6352193 *
  45 H       7.1481021    4.4831024    5.6315687    7.8139517    8.6377428  
  46 H       6.8221207    5.6315687    4.4831024    7.8394371    3.9815271  
  47 H       6.0450457    7.8139517    7.8394371    4.4831024    8.7703962  
  48 H       2.1649402 *  8.6377428    8.7703962    3.9815271    4.4831024  

               21 C         22 C         23 C         24 C         25 C     

   1 C       3.7230854    4.9952817    4.1569224    5.8493013    2.4813186 *
   2 C       4.9952817    3.7230854    5.1556549    5.8444867    3.7778042  
   3 C       4.1569224    5.1556549    3.7230854    2.8416225 *  5.3727563  
   4 C       5.8493013    2.8416225 *  5.8444867    3.7230854    5.3669656  
   5 C       2.4955594 *  5.8444867    2.8416225 *  5.1556549    2.8504678 *
   6 C       5.8444867    2.4955594 *  5.8493013    4.9952817    4.9512324  
   7 C       2.8416225 *  5.8493013    2.4955594 *  4.1569224    4.3155083  
   8 C       5.1556549    4.1569224    4.9952817    2.4955594 *  5.5473006  
   9 C       4.0686072    5.8677306    4.8246195    7.1485373    1.4198997 *
  10 C       5.8677306    4.0686072    6.0491803    7.2060015    4.1937322  
  11 C       4.8246195    6.0491803    4.0686072    2.4043206 *  6.6665514  
  12 C       7.1485373    2.4043206 *  7.2060015    4.0686072    6.3607219  
  13 C       1.4298816 *  7.2060015    2.4043206 *  6.0491803    2.3993954 *
  14 C       7.2060015    1.4298816 *  7.1485373    5.8677306    6.0873603  
  15 C       2.4043206 *  7.1485373    1.4298816 *  4.8246195    4.9974335  
  16 C       6.0491803    4.8246195    5.8677306    1.4298816 *  6.6482904  
  17 C       5.2826869    5.9576847    5.9576847    8.2757294    2.4236881 *
  18 C       5.9576847    5.2826869    6.3703153    8.3154307    3.6500646  
  19 C       5.9576847    6.3703153    5.2826869    1.3570655 *  7.7101180  
  20 C       8.2757294    1.3570655 *  8.3154307    5.2826869    7.1435232  
  21 C       0.0000000    8.3154307    1.3570655 *  6.3703153    3.6152058  
  22 C       8.3154307    0.0000000    8.2757294    5.9576847    7.1252391  
  23 C       1.3570655 *  8.2757294    0.0000000    5.9576847    4.6904007  
  24 C       6.3703153    5.9576847    5.9576847    0.0000000    7.6305552  
  25 C       3.6152058    7.1252391    4.6904007    7.6305552    0.0000000  
  26 C       7.1252391    3.6152058    7.1435232    7.7101180    5.6057947  
  27 C       4.6904007    7.1435232    3.6152058    3.6500646    7.1228522  
  28 C       7.6305552    3.6500646    7.7101180    3.6152058    7.0884498  
  29 C       2.4236881 *  7.7101180    3.6500646    7.1435232    1.3620813 *
  30 C       7.7101180    2.4236881 *  7.6305552    7.1252391    6.4093665  
  31 C       3.6500646    7.6305552    2.4236881 *  4.6904007    6.4093665  
  32 C       7.1435232    4.6904007    7.1252391    2.4236881 *  7.2181290  
  33 H       5.7969069    6.8949219    6.6080250    9.2424827    2.6081081 *
  34 H       6.8949219    5.7969069    7.2801626    9.3079554    4.5272960  
  35 H       6.6080250    7.2801626    5.7969069    2.1372667 *  8.6649831  
  36 H       9.2424827    2.1372667 *  9.3079554    5.7969069    8.0289011  
  37 H       1.0869270 *  9.3079554    2.1372667 *  7.2801626    3.8938491  
  38 H       9.3079554    1.0869270 *  9.2424827    6.8949219    8.0001297  
  39 H       2.1372667 *  9.2424827    1.0869270 *  6.6080250    5.6192762  
  40 H       7.2801626    6.6080250    6.8949219    1.0869270 *  8.5336443  
  41 H       4.4831024    7.8139517    5.6315687    8.6377428    1.0872009 *
  42 H       7.8139517    4.4831024    7.8394371    8.7703962    6.1644606  
  43 H       5.6315687    7.8394371    4.4831024    3.9815271    8.2040478  
  44 H       8.6377428    3.9815271    8.7703962    4.4831024    7.8638195  
  45 H       2.6352193 *  8.7703962    3.9815271    7.8394371    2.1385910 *
  46 H       8.7703962    2.6352193 *  8.6377428    7.8139517    7.4599415  
  47 H       3.9815271    8.6377428    2.6352193 *  5.6315687    7.0467189  
  48 H       7.8394371    5.6315687    7.8139517    2.6352193 *  8.0765849  

               26 C         27 C         28 C         29 C         30 C     

   1 C       3.7778042    5.3727563    5.3669656    2.8504678 *  4.3155083  
   2 C       2.4813186 *  5.5473006    4.9512324    4.3155083    2.8504678 *
   3 C       5.5473006    2.4813186 *  4.3155083    4.9512324    5.3669656  
   4 C       4.3155083    4.9512324    2.4813186 *  5.5473006    3.7778042  
   5 C       4.9512324    4.3155083    5.5473006    2.4813186 *  5.3727563  
   6 C       2.8504678 *  5.3669656    3.7778042    5.3727563    2.4813186 *
   7 C       5.3669656    2.8504678 *  5.3727563    3.7778042    5.5473006  
   8 C       5.3727563    3.7778042    2.8504678 *  5.3669656    4.9512324  
   9 C       4.1937322    6.6665514    6.3607219    2.3993954 *  4.9974335  
  10 C       1.4198997 *  6.6482904    6.0873603    4.9974335    2.3993954 *
  11 C       6.6482904    1.4198997 *  4.9974335    6.0873603    6.3607219  
  12 C       4.9974335    6.0873603    1.4198997 *  6.6482904    4.1937322  
  13 C       6.0873603    4.9974335    6.6482904    1.4198997 *  6.6665514  
  14 C       2.3993954 *  6.3607219    4.1937322    6.6665514    1.4198997 *
  15 C       6.3607219    2.3993954 *  6.6665514    4.1937322    6.6482904  
  16 C       6.6665514    4.1937322    2.3993954 *  6.3607219    6.0873603  
  17 C       3.6500646    7.7101180    7.1435232    3.6152058    4.6904007  
  18 C       2.4236881 *  7.6305552    7.1252391    4.6904007    3.6152058  
  19 C       7.6305552    2.4236881 *  4.6904007    7.1252391    7.1435232  
  20 C       4.6904007    7.1252391    2.4236881 *  7.6305552    3.6500646  
  21 C       7.1252391    4.6904007    7.6305552    2.4236881 *  7.7101180  
  22 C       3.6152058    7.1435232    3.6500646    7.7101180    2.4236881 *
  23 C       7.1435232    3.6152058    7.7101180    3.6500646    7.6305552  
  24 C       7.7101180    3.6500646    3.6152058    7.1435232    7.1252391  
  25 C       5.6057947    7.1228522    7.0884498    1.3620813 *  6.4093665  
  26 C       0.0000000    7.2181290    6.4093665    6.4093665    1.3620813 *
  27 C       7.2181290    0.0000000    6.4093665    6.4093665    7.0884498  
  28 C       6.4093665    6.4093665    0.0000000    7.2181290    5.6057947  
  29 C       6.4093665    6.4093665    7.2181290    0.0000000    7.1228522  
  30 C       1.3620813 *  7.0884498    5.6057947    7.1228522    0.0000000  
  31 C       7.0884498    1.3620813 *  7.1228522    5.6057947    7.2181290  
  32 C       7.1228522    5.6057947    1.3620813 *  7.0884498    6.4093665  
  33 H       4.5272960    8.6649831    8.0289011    3.8938491    5.6192762  
  34 H       2.6081081 *  8.5336443    8.0001297    5.6192762    3.8938491  
  35 H       8.5336443    2.6081081 *  5.6192762    8.0001297    8.0289011  
  36 H       5.6192762    8.0001297    2.6081081 *  8.5336443    4.5272960  
  37 H       8.0001297    5.6192762    8.5336443    2.6081081 *  8.6649831  
  38 H       3.8938491    8.0289011    4.5272960    8.6649831    2.6081081 *
  39 H       8.0289011    3.8938491    8.6649831    4.5272960    8.5336443  
  40 H       8.6649831    4.5272960    3.8938491    8.0289011    8.0001297  
  41 H       6.1644606    8.2040478    7.8638195    2.1385910 *  7.0467189  
  42 H       1.0872009 *  8.0765849    7.4599415    7.0467189    2.1385910 *
  43 H       8.0765849    1.0872009 *  7.0467189    7.4599415    7.8638195  
  44 H       7.0467189    7.4599415    1.0872009 *  8.0765849    6.1644606  
  45 H       7.4599415    7.0467189    8.0765849    1.0872009 *  8.2040478  
  46 H       2.1385910 *  7.8638195    6.1644606    8.2040478    1.0872009 *
  47 H       7.8638195    2.1385910 *  8.2040478    6.1644606    8.0765849  
  48 H       8.2040478    6.1644606    2.1385910 *  7.8638195    7.4599415  

               31 C         32 C         33 H         34 H         35 H     

   1 C       4.9512324    5.5473006    3.4640388    3.9235790    6.8379963  
   2 C       5.3669656    5.3727563    3.9235790    3.4640388    6.8452817  
   3 C       2.8504678 *  3.7778042    6.8379963    6.8452817    3.4640388  
   4 C       5.3727563    2.8504678 *  6.1635261    5.9163953    5.2104637  
   5 C       3.7778042    5.3669656    4.5681934    5.2104637    5.9163953  
   6 C       5.5473006    4.3155083    5.2104637    4.5681934    6.1635261  
   7 C       2.4813186 *  4.9512324    5.9163953    6.1635261    4.5681934  
   8 C       4.3155083    2.4813186 *  6.8452817    6.8379963    3.9235790  
   9 C       6.0873603    6.6482904    2.1708341 *  3.4032073    8.1981112  
  10 C       6.3607219    6.6665514    3.4032073    2.1708341 *  8.1046357  
  11 C       2.3993954 *  4.1937322    8.1981112    8.1046357    2.1708341 *
  12 C       6.6665514    2.3993954 *  6.9877204    6.6983171    5.8243794  
  13 C       4.1937322    6.3607219    4.6442872    5.8243794    6.6983171  
  14 C       6.6482904    4.9974335    5.8243794    4.6442872    6.9877204  
  15 C       1.4198997 *  6.0873603    6.6983171    6.9877204    4.6442872  
  16 C       4.9974335    1.4198997 *  8.1046357    8.1981112    3.4032073  
  17 C       7.1252391    7.6305552    1.0869270 *  2.1372667 *  9.3079554  
  18 C       7.1435232    7.7101180    2.1372667 *  1.0869270 *  9.2424827  
  19 C       3.6152058    3.6500646    9.3079554    9.2424827    1.0869270 *
  20 C       7.7101180    3.6152058    7.2801626    6.6080250    6.8949219  
  21 C       3.6500646    7.1435232    5.7969069    6.8949219    6.6080250  
  22 C       7.6305552    4.6904007    6.8949219    5.7969069    7.2801626  
  23 C       2.4236881 *  7.1252391    6.6080250    7.2801626    5.7969069  
  24 C       4.6904007    2.4236881 *  9.2424827    9.3079554    2.1372667 *
  25 C       6.4093665    7.2181290    2.6081081 *  4.5272960    8.6649831  
  26 C       7.0884498    7.1228522    4.5272960    2.6081081 *  8.5336443  
  27 C       1.3620813 *  5.6057947    8.6649831    8.5336443    2.6081081 *
  28 C       7.1228522    1.3620813 *  8.0289011    8.0001297    5.6192762  
  29 C       5.6057947    7.0884498    3.8938491    5.6192762    8.0001297  
  30 C       7.2181290    6.4093665    5.6192762    3.8938491    8.0289011  
  31 C       0.0000000    6.4093665    8.0001297    8.0289011    3.8938491  
  32 C       6.4093665    0.0000000    8.5336443    8.6649831    4.5272960  
  33 H       8.0001297    8.5336443    0.0000000    2.4954585 * 10.2994687  
  34 H       8.0289011    8.6649831    2.4954585 *  0.0000000   10.1901715  
  35 H       3.8938491    4.5272960   10.2994687   10.1901715    0.0000000  
  36 H       8.6649831    3.8938491    8.1345042    7.4935428    7.4935428  
  37 H       4.5272960    8.0289011    6.1375432    7.4935428    7.4935428  
  38 H       8.5336443    5.6192762    7.4935428    6.1375432    8.1345042  
  39 H       2.6081081 *  8.0001297    7.4935428    8.1345042    6.1375432  
  40 H       5.6192762    2.6081081 * 10.1901715   10.2994687    2.4954585 *
  41 H       7.4599415    8.0765849    2.3578359 *  4.6838554    9.7321026  
  42 H       7.8638195    8.2040478    4.6838554    2.3578359 *  9.5105626  
  43 H       2.1385910 *  6.1644606    9.7321026    9.5105626    2.3578359 *
  44 H       8.2040478    2.1385910 *  8.6699708    8.6289632    6.4956383  
  45 H       6.1644606    7.8638195    4.5652818    6.4956383    8.6289632  
  46 H       8.0765849    7.0467189    6.4956383    4.5652818    8.6699708  
  47 H       1.0872009 *  7.4599415    8.6289632    8.6699708    4.5652818  
  48 H       7.0467189    1.0872009 *  9.5105626    9.7321026    4.6838554  

               36 H         37 H         38 H         39 H         40 H     

   1 C       6.1635261    4.5681934    5.9163953    5.2104637    6.8452817  
   2 C       5.2104637    5.9163953    4.5681934    6.1635261    6.8379963  
   3 C       5.9163953    5.2104637    6.1635261    4.5681934    3.9235790  
   4 C       3.4640388    6.8452817    3.9235790    6.8379963    4.5681934  
   5 C       6.8452817    3.4640388    6.8379963    3.9235790    6.1635261  
   6 C       3.9235790    6.8379963    3.4640388    6.8452817    5.9163953  
   7 C       6.8379963    3.9235790    6.8452817    3.4640388    5.2104637  
   8 C       4.5681934    6.1635261    5.2104637    5.9163953    3.4640388  
   9 C       6.9877204    4.6442872    6.6983171    5.8243794    8.1046357  
  10 C       5.8243794    6.6983171    4.6442872    6.9877204    8.1981112  
  11 C       6.6983171    5.8243794    6.9877204    4.6442872    3.4032073  
  12 C       2.1708341 *  8.1046357    3.4032073    8.1981112    4.6442872  
  13 C       8.1046357    2.1708341 *  8.1981112    3.4032073    6.9877204  
  14 C       3.4032073    8.1981112    2.1708341 *  8.1046357    6.6983171  
  15 C       8.1981112    3.4032073    8.1046357    2.1708341 *  5.8243794  
  16 C       4.6442872    6.9877204    5.8243794    6.6983171    2.1708341 *
  17 C       7.2801626    5.7969069    6.6080250    6.8949219    9.2424827  
  18 C       6.8949219    6.6080250    5.7969069    7.2801626    9.3079554  
  19 C       6.6080250    6.8949219    7.2801626    5.7969069    2.1372667 *
  20 C       1.0869270 *  9.2424827    2.1372667 *  9.3079554    5.7969069  
  21 C       9.2424827    1.0869270 *  9.3079554    2.1372667 *  7.2801626  
  22 C       2.1372667 *  9.3079554    1.0869270 *  9.2424827    6.6080250  
  23 C       9.3079554    2.1372667 *  9.2424827    1.0869270 *  6.8949219  
  24 C       5.7969069    7.2801626    6.8949219    6.6080250    1.0869270 *
  25 C       8.0289011    3.8938491    8.0001297    5.6192762    8.5336443  
  26 C       5.6192762    8.0001297    3.8938491    8.0289011    8.6649831  
  27 C       8.0001297    5.6192762    8.0289011    3.8938491    4.5272960  
  28 C       2.6081081 *  8.5336443    4.5272960    8.6649831    3.8938491  
  29 C       8.5336443    2.6081081 *  8.6649831    4.5272960    8.0289011  
  30 C       4.5272960    8.6649831    2.6081081 *  8.5336443    8.0001297  
  31 C       8.6649831    4.5272960    8.5336443    2.6081081 *  5.6192762  
  32 C       3.8938491    8.0289011    5.6192762    8.0001297    2.6081081 *
  33 H       8.1345042    6.1375432    7.4935428    7.4935428   10.1901715  
  34 H       7.4935428    7.4935428    6.1375432    8.1345042   10.2994687  
  35 H       7.4935428    7.4935428    8.1345042    6.1375432    2.4954585 *
  36 H       0.0000000   10.1901715    2.4954585 * 10.2994687    6.1375432  
  37 H      10.1901715    0.0000000   10.2994687    2.4954585 *  8.1345042  
  38 H       2.4954585 * 10.2994687    0.0000000   10.1901715    7.4935428  
  39 H      10.2994687    2.4954585 * 10.1901715    0.0000000    7.4935428  
  40 H       6.1375432    8.1345042    7.4935428    7.4935428    0.0000000  
  41 H       8.6699708    4.5652818    8.6289632    6.4956383    9.5105626  
  42 H       6.4956383    8.6289632    4.5652818    8.6699708    9.7321026  
  43 H       8.6289632    6.4956383    8.6699708    4.5652818    4.6838554  
  44 H       2.3578359 *  9.5105626    4.6838554    9.7321026    4.5652818  
  45 H       9.5105626    2.3578359 *  9.7321026    4.6838554    8.6699708  
  46 H       4.6838554    9.7321026    2.3578359 *  9.5105626    8.6289632  
  47 H       9.7321026    4.6838554    9.5105626    2.3578359 *  6.4956383  
  48 H       4.5652818    8.6699708    6.4956383    8.6289632    2.3578359 *

               41 H         42 H         43 H         44 H         45 H     

   1 C       3.4502327    4.6075731    6.4459678    6.2645240    3.9372794  
   2 C       4.6075731    3.4502327    6.5454049    5.7961251    5.4023295  
   3 C       6.4459678    6.5454049    3.4502327    5.4023295    5.7961251  
   4 C       6.2645240    5.4023295    5.7961251    3.4502327    6.5454049  
   5 C       3.9372794    5.7961251    5.4023295    6.5454049    3.4502327  
   6 C       5.7961251    3.9372794    6.2645240    4.6075731    6.4459678  
   7 C       5.4023295    6.2645240    3.9372794    6.4459678    4.6075731  
   8 C       6.5454049    6.4459678    4.6075731    3.9372794    6.2645240  
   9 C       2.1649402 *  4.7998615    7.7488863    7.1481021    3.3949619  
  10 C       4.7998615    2.1649402 *  7.6114495    6.8221207    6.0450457  
  11 C       7.7488863    7.6114495    2.1649402 *  6.0450457    6.8221207  
  12 C       7.1481021    6.0450457    6.8221207    2.1649402 *  7.6114495  
  13 C       3.3949619    6.8221207    6.0450457    7.6114495    2.1649402 *
  14 C       6.8221207    3.3949619    7.1481021    4.7998615    7.7488863  
  15 C       6.0450457    7.1481021    3.3949619    7.7488863    4.7998615  
  16 C       7.6114495    7.7488863    4.7998615    3.3949619    7.1481021  
  17 C       2.6352193 *  3.9815271    8.7703962    7.8394371    4.4831024  
  18 C       3.9815271    2.6352193 *  8.6377428    7.8139517    5.6315687  
  19 C       8.7703962    8.6377428    2.6352193 *  5.6315687    7.8139517  
  20 C       7.8394371    5.6315687    7.8139517    2.6352193 *  8.6377428  
  21 C       4.4831024    7.8139517    5.6315687    8.6377428    2.6352193 *
  22 C       7.8139517    4.4831024    7.8394371    3.9815271    8.7703962  
  23 C       5.6315687    7.8394371    4.4831024    8.7703962    3.9815271  
  24 C       8.6377428    8.7703962    3.9815271    4.4831024    7.8394371  
  25 C       1.0872009 *  6.1644606    8.2040478    7.8638195    2.1385910 *
  26 C       6.1644606    1.0872009 *  8.0765849    7.0467189    7.4599415  
  27 C       8.2040478    8.0765849    1.0872009 *  7.4599415    7.0467189  
  28 C       7.8638195    7.4599415    7.0467189    1.0872009 *  8.0765849  
  29 C       2.1385910 *  7.0467189    7.4599415    8.0765849    1.0872009 *
  30 C       7.0467189    2.1385910 *  7.8638195    6.1644606    8.2040478  
  31 C       7.4599415    7.8638195    2.1385910 *  8.2040478    6.1644606  
  32 C       8.0765849    8.2040478    6.1644606    2.1385910 *  7.8638195  
  33 H       2.3578359 *  4.6838554    9.7321026    8.6699708    4.5652818  
  34 H       4.6838554    2.3578359 *  9.5105626    8.6289632    6.4956383  
  35 H       9.7321026    9.5105626    2.3578359 *  6.4956383    8.6289632  
  36 H       8.6699708    6.4956383    8.6289632    2.3578359 *  9.5105626  
  37 H       4.5652818    8.6289632    6.4956383    9.5105626    2.3578359 *
  38 H       8.6289632    4.5652818    8.6699708    4.6838554    9.7321026  
  39 H       6.4956383    8.6699708    4.5652818    9.7321026    4.6838554  
  40 H       9.5105626    9.7321026    4.6838554    4.5652818    8.6699708  
  41 H       0.0000000    6.6006649    9.2835168    8.5572521    2.4899878 *
  42 H       6.6006649    0.0000000    8.9121604    8.0545782    8.0545782  
  43 H       9.2835168    8.9121604    0.0000000    8.0545782    8.0545782  
  44 H       8.5572521    8.0545782    8.0545782    0.0000000    8.9121604  
  45 H       2.4899878 *  8.0545782    8.0545782    8.9121604    0.0000000  
  46 H       8.0545782    2.4899878 *  8.5572521    6.6006649    9.2835168  
  47 H       8.0545782    8.5572521    2.4899878 *  9.2835168    6.6006649  
  48 H       8.9121604    9.2835168    6.6006649    2.4899878 *  8.5572521  

               46 H         47 H         48 H     

   1 C       5.4023295    5.7961251    6.5454049  
   2 C       3.9372794    6.2645240    6.4459678  
   3 C       6.2645240    3.9372794    4.6075731  
   4 C       4.6075731    6.4459678    3.9372794  
   5 C       6.4459678    4.6075731    6.2645240  
   6 C       3.4502327    6.5454049    5.4023295  
   7 C       6.5454049    3.4502327    5.7961251  
   8 C       5.7961251    5.4023295    3.4502327  
   9 C       6.0450457    6.8221207    7.6114495  
  10 C       3.3949619    7.1481021    7.7488863  
  11 C       7.1481021    3.3949619    4.7998615  
  12 C       4.7998615    7.7488863    3.3949619  
  13 C       7.7488863    4.7998615    7.1481021  
  14 C       2.1649402 *  7.6114495    6.0450457  
  15 C       7.6114495    2.1649402 *  6.8221207  
  16 C       6.8221207    6.0450457    2.1649402 *
  17 C       5.6315687    7.8139517    8.6377428  
  18 C       4.4831024    7.8394371    8.7703962  
  19 C       7.8394371    4.4831024    3.9815271  
  20 C       3.9815271    8.7703962    4.4831024  
  21 C       8.7703962    3.9815271    7.8394371  
  22 C       2.6352193 *  8.6377428    5.6315687  
  23 C       8.6377428    2.6352193 *  7.8139517  
  24 C       7.8139517    5.6315687    2.6352193 *
  25 C       7.4599415    7.0467189    8.0765849  
  26 C       2.1385910 *  7.8638195    8.2040478  
  27 C       7.8638195    2.1385910 *  6.1644606  
  28 C       6.1644606    8.2040478    2.1385910 *
  29 C       8.2040478    6.1644606    7.8638195  
  30 C       1.0872009 *  8.0765849    7.4599415  
  31 C       8.0765849    1.0872009 *  7.0467189  
  32 C       7.0467189    7.4599415    1.0872009 *
  33 H       6.4956383    8.6289632    9.5105626  
  34 H       4.5652818    8.6699708    9.7321026  
  35 H       8.6699708    4.5652818    4.6838554  
  36 H       4.6838554    9.7321026    4.5652818  
  37 H       9.7321026    4.6838554    8.6699708  
  38 H       2.3578359 *  9.5105626    6.4956383  
  39 H       9.5105626    2.3578359 *  8.6289632  
  40 H       8.6289632    6.4956383    2.3578359 *
  41 H       8.0545782    8.0545782    8.9121604  
  42 H       2.4899878 *  8.5572521    9.2835168  
  43 H       8.5572521    2.4899878 *  6.6006649  
  44 H       6.6006649    9.2835168    2.4899878 *
  45 H       9.2835168    6.6006649    8.5572521  
  46 H       0.0000000    8.9121604    8.0545782  
  47 H       8.9121604    0.0000000    8.0545782  
  48 H       8.0545782    8.0545782    0.0000000  

  * ... LESS THAN  3.000


     ATOMIC BASIS SET
     ----------------
 THE CONTRACTED PRIMITIVE FUNCTIONS HAVE BEEN UNNORMALIZED
 THE CONTRACTED BASIS FUNCTIONS ARE NOW NORMALIZED TO UNITY

  SHELL TYPE  PRIMITIVE        EXPONENT          CONTRACTION COEFFICIENT(S)

 C         

     29   S       1          3047.5248800    0.001834737132
     29   S       2           457.3695180    0.014037322813
     29   S       3           103.9486850    0.068842622264
     29   S       4            29.2101553    0.232184443216
     29   S       5             9.2866630    0.467941348435
     29   S       6             3.1639270    0.362311985337

     30   L       7             7.8682723   -0.119332419775    0.068999066591
     30   L       8             1.8812885   -0.160854151696    0.316423960957
     30   L       9             0.5442493    1.143456437840    0.744308290898

     31   L      10             0.1687145    1.000000000000    1.000000000000

     32   D      11             0.8000000    1.000000000000

 C         

     61   S      12          3047.5248800    0.001834737132
     61   S      13           457.3695180    0.014037322813
     61   S      14           103.9486850    0.068842622264
     61   S      15            29.2101553    0.232184443216
     61   S      16             9.2866630    0.467941348435
     61   S      17             3.1639270    0.362311985337

     62   L      18             7.8682723   -0.119332419775    0.068999066591
     62   L      19             1.8812885   -0.160854151696    0.316423960957
     62   L      20             0.5442493    1.143456437840    0.744308290898

     63   L      21             0.1687145    1.000000000000    1.000000000000

     64   D      22             0.8000000    1.000000000000

 C         

     93   S      23          3047.5248800    0.001834737132
     93   S      24           457.3695180    0.014037322813
     93   S      25           103.9486850    0.068842622264
     93   S      26            29.2101553    0.232184443216
     93   S      27             9.2866630    0.467941348435
     93   S      28             3.1639270    0.362311985337

     94   L      29             7.8682723   -0.119332419775    0.068999066591
     94   L      30             1.8812885   -0.160854151696    0.316423960957
     94   L      31             0.5442493    1.143456437840    0.744308290898

     95   L      32             0.1687145    1.000000000000    1.000000000000

     96   D      33             0.8000000    1.000000000000

 C         

    125   S      34          3047.5248800    0.001834737132
    125   S      35           457.3695180    0.014037322813
    125   S      36           103.9486850    0.068842622264
    125   S      37            29.2101553    0.232184443216
    125   S      38             9.2866630    0.467941348435
    125   S      39             3.1639270    0.362311985337

    126   L      40             7.8682723   -0.119332419775    0.068999066591
    126   L      41             1.8812885   -0.160854151696    0.316423960957
    126   L      42             0.5442493    1.143456437840    0.744308290898

    127   L      43             0.1687145    1.000000000000    1.000000000000

    128   D      44             0.8000000    1.000000000000

 H         

    143   S      45            18.7311370    0.033494604338
    143   S      46             2.8253944    0.234726953484
    143   S      47             0.6401217    0.813757326146

    144   S      48             0.1612778    1.000000000000

 H         

    159   S      49            18.7311370    0.033494604338
    159   S      50             2.8253944    0.234726953484
    159   S      51             0.6401217    0.813757326146

    160   S      52             0.1612778    1.000000000000

 TOTAL NUMBER OF BASIS SET SHELLS             =  160
 NUMBER OF CARTESIAN GAUSSIAN BASIS FUNCTIONS =  512
 NUMBER OF ELECTRONS                          =  208
 CHARGE OF MOLECULE                           =    0
 SPIN MULTIPLICITY                            =    1
 NUMBER OF OCCUPIED ORBITALS (ALPHA)          =  104
 NUMBER OF OCCUPIED ORBITALS (BETA )          =  104
 TOTAL NUMBER OF ATOMS                        =   48
 THE NUCLEAR REPULSION ENERGY IS     2921.1846473517

     LEBEDEV GRID-BASED DFT OPTIONS
     ------------------------------
     DFTTYP=B3LYP   
     NRAD  =      96     NLEB  =     302
     NRAD0 =      24     NLEB0 =     110
     SWOFF =    5.00E-03 (PURE SCF -> DFT)
     SWITCH=    3.00E-04 (COARSE -> TIGHT GRID)
     THRESH=    0.00E+00 GTHRE=    1.00E+00

 GRIMME'S EMPIRICAL DISPERSION CORRECTION= F

     $CONTRL OPTIONS
     ---------------
 SCFTYP=RHF          RUNTYP=GRADIENT     EXETYP=RUN     
 MPLEVL=       0     CITYP =NONE         CCTYP =NONE         VBTYP =NONE    
 DFTTYP=B3LYP        TDDFT =NONE    
 MULT  =       1     ICHARG=       0     NZVAR =       0     COORD =UNIQUE  
 PP    =NONE         RELWFN=NONE         LOCAL =NONE         NUMGRD=       F
 ISPHER=      -1     NOSYM =       0     MAXIT =      30     UNITS =ANGS    
 PLTORB=       F     MOLPLT=       F     AIMPAC=       F     FRIEND=        
 NPRINT=       7     IREST =       0     GEOM  =INPUT   
 NORMF =       0     NORMP =       0     ITOL  =      20     ICUT  =       9
 INTTYP=BEST         GRDTYP=BEST         QMTTOL= 1.0E-06

     $SYSTEM OPTIONS
     ---------------
  REPLICATED MEMORY=    15000000 WORDS (ON EVERY NODE).
 DISTRIBUTED MEMDDI=           0 MILLION WORDS IN AGGREGATE,
 MEMDDI DISTRIBUTED OVER   1 PROCESSORS IS           0 WORDS/PROCESSOR.
 TOTAL MEMORY REQUESTED ON EACH PROCESSOR=    15000000 WORDS.
 TIMLIM=      525600.00 MINUTES, OR     365.0 DAYS.
 PARALL= F  BALTYP=  DLB     KDIAG=    0  COREFL= F
 MXSEQ2=     300 MXSEQ3=     150  mem10=         0

          ----------------
          PROPERTIES INPUT
          ----------------

     MOMENTS            FIELD           POTENTIAL          DENSITY
 IEMOM =       1   IEFLD =       0   IEPOT =       0   IEDEN =       0
 WHERE =COMASS     WHERE =NUCLEI     WHERE =NUCLEI     WHERE =NUCLEI  
 OUTPUT=BOTH       OUTPUT=BOTH       OUTPUT=BOTH       OUTPUT=BOTH    
 IEMINT=       0   IEFINT=       0                     IEDINT=       0
                                                       MORB  =       0
          EXTRAPOLATION IN EFFECT
          DIIS IN EFFECT
 ORBITAL PRINTING OPTION: NPREO=     1   512     2     1

     -------------------------------
     INTEGRAL TRANSFORMATION OPTIONS
     -------------------------------
     NWORD  =            0
     CUTOFF = 1.0E-09     MPTRAN =       0
     DIRTRF =       T     AOINTS =DUP     

          ----------------------
          INTEGRAL INPUT OPTIONS
          ----------------------
 NOPK  =       1 NORDER=       0 SCHWRZ=       T

     ------------------------------------------
     THE POINT GROUP IS DND, NAXIS= 2, ORDER= 8
     ------------------------------------------

     DIMENSIONS OF THE SYMMETRY SUBSPACES ARE
 A1  =   64     B2  =   64     B1  =   64     A2  =   64     E   =  128

 ..... DONE SETTING UP THE RUN .....
 STEP CPU TIME =     0.03 TOTAL CPU TIME =        0.0 (    0.0 MIN)
 TOTAL WALL CLOCK TIME=        0.0 SECONDS, CPU UTILIZATION IS 100.00%

                    --------------------------------
                    SINGLE POINT ENERGY AND GRADIENT
                    --------------------------------

          ********************
          1 ELECTRON INTEGRALS
          ********************
 ...... END OF ONE-ELECTRON INTEGRALS ......
 STEP CPU TIME =     0.28 TOTAL CPU TIME =        0.3 (    0.0 MIN)
 TOTAL WALL CLOCK TIME=        0.3 SECONDS, CPU UTILIZATION IS  96.87%

          -------------
          GUESS OPTIONS
          -------------
          GUESS =HUCKEL            NORB  =       0          NORDER=       0
          MIX   =       F          PRTMO =       F          PUNMO =       F
          TOLZ  = 1.0E-08          TOLE  = 1.0E-05
          SYMDEN=       F          PURIFY=       F

 INITIAL GUESS ORBITALS GENERATED BY HUCKEL   ROUTINE.
 HUCKEL GUESS REQUIRES   2057712 WORDS.

 SYMMETRIES FOR INITIAL GUESS ORBITALS FOLLOW.   BOTH SET(S).
   104 ORBITALS ARE OCCUPIED (   32 CORE ORBITALS).
    33=A1      34=E       35=E       36=B2      37=B1      38=E       39=E   
    40=A1      41=A1      42=A2      43=E       44=E       45=E       46=E   
    47=B2      48=B1      49=B1      50=B2      51=A1      52=E       53=E   
    54=E       55=E       56=A1      57=E       58=E       59=B2      60=A2  
    61=A2      62=A1      63=E       64=E       65=B2      66=B1      67=E   
    68=E       69=A1      70=E       71=E       72=A2      73=B2      74=B1  
    75=E       76=E       77=A1      78=E       79=E       80=B2      81=E   
    82=E       83=A1      84=B1      85=B2      86=E       87=E       88=B2  
    89=A2      90=E       91=E       92=B1      93=A2      94=E       95=E   
    96=E       97=E       98=A1      99=A1     100=B2     101=B1     102=A2  
   103=E      104=E      105=A1     106=A2     107=E      108=E      109=B2  
   110=A1     111=A1     112=A1     113=A1     114=A1  
 ...... END OF INITIAL ORBITAL SELECTION ......
 STEP CPU TIME =     2.51 TOTAL CPU TIME =        2.8 (    0.0 MIN)
 TOTAL WALL CLOCK TIME=        2.8 SECONDS, CPU UTILIZATION IS  99.65%

                    ----------------------
                    AO INTEGRAL TECHNOLOGY
                    ----------------------
     S,P,L SHELL ROTATED AXIS INTEGRALS, REPROGRAMMED BY
        KAZUYA ISHIMURA (IMS) AND JOSE SIERRA (SYNSTAR).
     S,P,D,L SHELL ROTATED AXIS INTEGRALS PROGRAMMED BY
        KAZUYA ISHIMURA (INSTITUTE FOR MOLECULAR SCIENCE).
     S,P,D,F,G SHELL TO TOTAL QUARTET ANGULAR MOMENTUM SUM 5,
        ERIC PROGRAM BY GRAHAM FLETCHER (ELORET AND NASA ADVANCED
        SUPERCOMPUTING DIVISION, AMES RESEARCH CENTER).
     S,P,D,F,G,L SHELL GENERAL RYS QUADRATURE PROGRAMMED BY
        MICHEL DUPUIS (PACIFIC NORTHWEST NATIONAL LABORATORY).

          --------------------
          2 ELECTRON INTEGRALS
          --------------------

 DIRECT SCF METHOD SKIPS INTEGRAL STORAGE ON DISK.
 DIRECT TRANSFORMATION SKIPS AO INTEGRAL STORAGE ON DISK.
  ...... END OF TWO-ELECTRON INTEGRALS .....
 STEP CPU TIME =     0.02 TOTAL CPU TIME =        2.8 (    0.0 MIN)
 TOTAL WALL CLOCK TIME=        3.5 SECONDS, CPU UTILIZATION IS  82.32%

          --------------------------
             R-B3LYP SCF CALCULATION
          --------------------------

     NUCLEAR ENERGY =      2921.1846473517
     MAXIT =   30     NPUNCH=    2
     EXTRAP=T  DAMP=F  SHIFT=F  RSTRCT=F  DIIS=T  DEM=F  SOSCF=F
         DENSITY MATRIX CONVERGENCE THRESHOLD=  2.00E-05
     COARSE -> FINE DFT GRID SWITCH THRESHOLD=  3.00E-04 (SWITCH IN $DFT)
                   HF -> DFT SWITCH THRESHOLD=  5.00E-03 (SWOFF IN $DFT)
     MEMORY REQUIRED FOR RHF ITERS=   3559616 WORDS.

 DIRECT SCF CALCULATION, SCHWRZ=T   FDIFF=T,  DIRTHR=  0.00E+00 NITDIR=10
 SCHWARZ INEQUALITY OVERHEAD:    104560 INTEGRALS, T=        0.04

 DFT CODE IS SWITCHING FROM THE FINE GRID NRAD= 96,  NLEB=  302
                      TO THE COARSE GRID NRAD0= 24, NLEB0=  110

     EXCHANGE FUNCTIONAL   =B88&HFX   
     CORRELATION FUNCTIONAL=LYP88&VWN5
     DFT THRESHOLD         =.287E-08
     GRID CHANGE THRESHOLD =.300E-03
 FOR AN EULER-MACLAURIN QUADRATURE USING  96 RADIAL POINTS:
 SMALLEST GAUSSIAN PRIMITIVE EXPONENT=        0.1612777588 OF TYPE -S-
 ON ATOM NUMBER  33 HAS RADIAL NORMALIZATION=  1.000000
  LARGEST GAUSSIAN PRIMITIVE EXPONENT=     3047.5248800000 OF TYPE -S-
 ON ATOM NUMBER   1 HAS RADIAL NORMALIZATION=  1.000000
 DFT IS SWITCHED OFF, PERFORMING PURE SCF UNTIL SWOFF THRESHOLD IS REACHED.

                                                                                   NONZERO     BLOCKS
 ITER EX DEM     TOTAL ENERGY        E CHANGE  DENSITY CHANGE    DIIS ERROR      INTEGRALS    SKIPPED
          * * *   INITIATING DIIS PROCEDURE   * * *
   1  0  0    -1218.2777298827 -1218.2777298827   0.140186544   0.421049019      310263445    7955090
   2  1  0    -1220.9164625622    -2.6387326795   0.044790551   0.069817391      310503358    8010595
   3  2  0    -1221.0372904141    -0.1208278519   0.015783350   0.025649166      303151691    8188062
   4  3  0    -1221.0561643397    -0.0188739256   0.006849599   0.008292601      293236107    8343504
   5  4  0    -1221.0582847545    -0.0021204148   0.002559597   0.006131606      282509926    8464245
 CONVERGED TO SWOFF, SO DFT CALCULATION IS NOW SWITCHED ON.
          * * *   INITIATING DIIS PROCEDURE   * * *
   6  5  0    -1228.0990434515    -7.0407586970   0.181357970   0.117608433      310554707    7973121
   7  6  0    -1228.2450608629    -0.1460174114   0.031274749   0.017241709      307338197    8066339
   8  7  0    -1228.2485785869    -0.0035177239   0.013506017   0.012997150      292492792    8328357
   9  8  0    -1228.2549788468    -0.0064002599   0.004520743   0.008747464      288191079    8390969
  10  9  0    -1228.2561526911    -0.0011738444   0.001584140   0.002395257      275369522    8541866
  11 10  0    -1228.2562646440    -0.0001119529   0.000436170   0.000444664      255692818    8705257
  12 11  0    -1228.2562719973    -0.0000073532   0.000075719   0.000087229      228647327    8912107
 DFT CODE IS SWITCHING BACK TO THE FINE GRID
          * * *   INITIATING DIIS PROCEDURE   * * *
  13 12  0    -1228.2506903236     0.0055816736   0.003300491   0.002662010      311163040    7932988
  14 13  0    -1228.2508164365    -0.0001261129   0.000320039   0.000281794      274900628    8535934
  15 14  0    -1228.2508164664    -0.0000000299   0.000207665   0.000244514      233719880    8865298
  16 15  0    -1228.2508181082    -0.0000016418   0.000090513   0.000172243      224650104    8933258
  17 16  0    -1228.2508185484    -0.0000004401   0.000032410   0.000052762      208041240    9067958
  18 17  0    -1228.2508186096    -0.0000000612   0.000008905   0.000010284      187017277    9213265
  19 18  0    -1228.2508186123    -0.0000000027   0.000002138   0.000002895      161348549    9373114

          -----------------
          DENSITY CONVERGED
          -----------------
     TIME TO FORM FOCK OPERATORS=     278.2 SECONDS (      14.6 SEC/ITER)
     FOCK TIME ON FIRST ITERATION=      13.0, LAST ITERATION=      16.3
     TIME TO SOLVE SCF EQUATIONS=      17.1 SECONDS (       0.9 SEC/ITER)

 FINAL R-B3LYP ENERGY IS    -1228.2508186123 AFTER  19 ITERATIONS
 DFT EXCHANGE + CORRELATION ENERGY =      -144.5829563415
 TOTAL ELECTRON NUMBER             =       207.9983277107

          ------------
          EIGENVECTORS
          ------------

                      1          2          3          4          5
                  -10.2023   -10.2022   -10.2022   -10.2020   -10.2020
                     A1         E          E          B2         B1  
    1  C  1  S    0.350844  -0.212489   0.448453   0.350929   0.351040
    2  C  1  S    0.017276  -0.010506   0.022281   0.017447   0.017884
    3  C  1  X   -0.000035  -0.000241  -0.000072   0.000152  -0.000163
    4  C  1  Y   -0.000146   0.000082  -0.000030  -0.000150   0.000159
    5  C  1  Z    0.000038  -0.000025   0.000012  -0.000117  -0.000064
    6  C  1  S   -0.003559   0.003149  -0.006551  -0.005839  -0.009859
    7  C  1  X    0.000167   0.002121   0.001168  -0.000743   0.003204
    8  C  1  Y    0.000914  -0.001495   0.000404   0.001153  -0.001448
    9  C  1  Z   -0.000395  -0.000436  -0.000363   0.000316   0.000382
   10  C  1 XX   -0.003463   0.001973  -0.004309  -0.003221  -0.003119
   11  C  1 YY   -0.003465   0.002046  -0.004218  -0.003320  -0.003056
   12  C  1 ZZ   -0.003422   0.002011  -0.004253  -0.003255  -0.003165
   13  C  1 XY    0.000003  -0.000046   0.000042   0.000040   0.000016
   14  C  1 XZ    0.000043   0.000010   0.000082  -0.000080   0.000082
   15  C  1 YZ   -0.000009   0.000020  -0.000041  -0.000017  -0.000060
   16  C  2  S    0.350844   0.212489   0.448453  -0.350929   0.351040
   17  C  2  S    0.017276   0.010506   0.022281  -0.017447   0.017884
   18  C  2  X    0.000035  -0.000241   0.000072   0.000152   0.000163
   19  C  2  Y   -0.000146  -0.000082  -0.000030   0.000150   0.000159
   20  C  2  Z   -0.000038  -0.000025  -0.000012  -0.000117   0.000064
   21  C  2  S   -0.003559  -0.003149  -0.006551   0.005839  -0.009859
   22  C  2  X   -0.000167   0.002121  -0.001168  -0.000743  -0.003204
   23  C  2  Y    0.000914   0.001495   0.000404  -0.001153  -0.001448
   24  C  2  Z    0.000395  -0.000436   0.000363   0.000316  -0.000382
   25  C  2 XX   -0.003463  -0.001973  -0.004309   0.003221  -0.003119
   26  C  2 YY   -0.003465  -0.002046  -0.004218   0.003320  -0.003056
   27  C  2 ZZ   -0.003422  -0.002011  -0.004253   0.003255  -0.003165
   28  C  2 XY   -0.000003  -0.000046  -0.000042   0.000040  -0.000016
   29  C  2 XZ    0.000043  -0.000010   0.000082   0.000080   0.000082
   30  C  2 YZ    0.000009   0.000020   0.000041  -0.000017   0.000060
   31  C  3  S    0.350844  -0.212489  -0.448453  -0.350929   0.351040
   32  C  3  S    0.017276  -0.010506  -0.022281  -0.017447   0.017884
   33  C  3  X   -0.000035  -0.000241   0.000072  -0.000152  -0.000163
   34  C  3  Y    0.000146  -0.000082  -0.000030  -0.000150  -0.000159
   35  C  3  Z   -0.000038   0.000025   0.000012  -0.000117   0.000064
   36  C  3  S   -0.003559   0.003149   0.006551   0.005839  -0.009859
   37  C  3  X    0.000167   0.002121  -0.001168   0.000743   0.003204
   38  C  3  Y   -0.000914   0.001495   0.000404   0.001153   0.001448
   39  C  3  Z    0.000395   0.000436  -0.000363   0.000316  -0.000382
   40  C  3 XX   -0.003463   0.001973   0.004309   0.003221  -0.003119
   41  C  3 YY   -0.003465   0.002046   0.004218   0.003320  -0.003056
   42  C  3 ZZ   -0.003422   0.002011   0.004253   0.003255  -0.003165
   43  C  3 XY   -0.000003   0.000046   0.000042   0.000040  -0.000016
   44  C  3 XZ   -0.000043  -0.000010   0.000082  -0.000080  -0.000082
   45  C  3 YZ   -0.000009   0.000020   0.000041   0.000017  -0.000060
   46  C  4  S    0.350844   0.448453  -0.212489   0.350929  -0.351040
   47  C  4  S    0.017276   0.022281  -0.010506   0.017447  -0.017884
   48  C  4  X    0.000146   0.000030  -0.000082   0.000150   0.000159
   49  C  4  Y    0.000035   0.000072   0.000241  -0.000152  -0.000163
   50  C  4  Z    0.000038   0.000012  -0.000025  -0.000117   0.000064
   51  C  4  S   -0.003559  -0.006551   0.003149  -0.005839   0.009859
   52  C  4  X   -0.000914  -0.000404   0.001495  -0.001153  -0.001448
   53  C  4  Y   -0.000167  -0.001168  -0.002121   0.000743   0.003204
   54  C  4  Z   -0.000395  -0.000363  -0.000436   0.000316  -0.000382
   55  C  4 XX   -0.003465  -0.004218   0.002046  -0.003320   0.003056
   56  C  4 YY   -0.003463  -0.004309   0.001973  -0.003221   0.003119
   57  C  4 ZZ   -0.003422  -0.004253   0.002011  -0.003255   0.003165
   58  C  4 XY    0.000003   0.000042  -0.000046   0.000040  -0.000016
   59  C  4 XZ    0.000009   0.000041  -0.000020   0.000017  -0.000060
   60  C  4 YZ   -0.000043  -0.000082  -0.000010   0.000080   0.000082
   61  C  5  S    0.350844  -0.448453   0.212489   0.350929  -0.351040
   62  C  5  S    0.017276  -0.022281   0.010506   0.017447  -0.017884
   63  C  5  X   -0.000146   0.000030  -0.000082  -0.000150  -0.000159
   64  C  5  Y   -0.000035   0.000072   0.000241   0.000152   0.000163
   65  C  5  Z    0.000038  -0.000012   0.000025  -0.000117   0.000064
   66  C  5  S   -0.003559   0.006551  -0.003149  -0.005839   0.009859
   67  C  5  X    0.000914  -0.000404   0.001495   0.001153   0.001448
   68  C  5  Y    0.000167  -0.001168  -0.002121  -0.000743  -0.003204
   69  C  5  Z   -0.000395   0.000363   0.000436   0.000316  -0.000382
   70  C  5 XX   -0.003465   0.004218  -0.002046  -0.003320   0.003056
   71  C  5 YY   -0.003463   0.004309  -0.001973  -0.003221   0.003119
   72  C  5 ZZ   -0.003422   0.004253  -0.002011  -0.003255   0.003165
   73  C  5 XY    0.000003  -0.000042   0.000046   0.000040  -0.000016
   74  C  5 XZ   -0.000009   0.000041  -0.000020  -0.000017   0.000060
   75  C  5 YZ    0.000043  -0.000082  -0.000010  -0.000080  -0.000082
   76  C  6  S    0.350844   0.448453   0.212489  -0.350929  -0.351040
   77  C  6  S    0.017276   0.022281   0.010506  -0.017447  -0.017884
   78  C  6  X    0.000146   0.000030   0.000082  -0.000150   0.000159
   79  C  6  Y   -0.000035  -0.000072   0.000241  -0.000152   0.000163
   80  C  6  Z   -0.000038  -0.000012  -0.000025  -0.000117  -0.000064
   81  C  6  S   -0.003559  -0.006551  -0.003149   0.005839   0.009859
   82  C  6  X   -0.000914  -0.000404  -0.001495   0.001153  -0.001448
   83  C  6  Y    0.000167   0.001168  -0.002121   0.000743  -0.003204
   84  C  6  Z    0.000395   0.000363  -0.000436   0.000316   0.000382
   85  C  6 XX   -0.003465  -0.004218  -0.002046   0.003320   0.003056
   86  C  6 YY   -0.003463  -0.004309  -0.001973   0.003221   0.003119
   87  C  6 ZZ   -0.003422  -0.004253  -0.002011   0.003255   0.003165
   88  C  6 XY   -0.000003  -0.000042  -0.000046   0.000040   0.000016
   89  C  6 XZ   -0.000009  -0.000041  -0.000020   0.000017   0.000060
   90  C  6 YZ   -0.000043  -0.000082   0.000010  -0.000080   0.000082
   91  C  7  S    0.350844  -0.448453  -0.212489  -0.350929  -0.351040
   92  C  7  S    0.017276  -0.022281  -0.010506  -0.017447  -0.017884
   93  C  7  X   -0.000146   0.000030   0.000082   0.000150  -0.000159
   94  C  7  Y    0.000035  -0.000072   0.000241   0.000152  -0.000163
   95  C  7  Z   -0.000038   0.000012   0.000025  -0.000117  -0.000064
   96  C  7  S   -0.003559   0.006551   0.003149   0.005839   0.009859
   97  C  7  X    0.000914  -0.000404  -0.001495  -0.001153   0.001448
   98  C  7  Y   -0.000167   0.001168  -0.002121  -0.000743   0.003204
   99  C  7  Z    0.000395  -0.000363   0.000436   0.000316   0.000382
  100  C  7 XX   -0.003465   0.004218   0.002046   0.003320   0.003056
  101  C  7 YY   -0.003463   0.004309   0.001973   0.003221   0.003119
  102  C  7 ZZ   -0.003422   0.004253   0.002011   0.003255   0.003165
  103  C  7 XY   -0.000003   0.000042   0.000046   0.000040   0.000016
  104  C  7 XZ    0.000009  -0.000041  -0.000020  -0.000017  -0.000060
  105  C  7 YZ    0.000043  -0.000082   0.000010   0.000080  -0.000082
  106  C  8  S    0.350844   0.212489  -0.448453   0.350929   0.351040
  107  C  8  S    0.017276   0.010506  -0.022281   0.017447   0.017884
  108  C  8  X    0.000035  -0.000241  -0.000072  -0.000152   0.000163
  109  C  8  Y    0.000146   0.000082  -0.000030   0.000150  -0.000159
  110  C  8  Z    0.000038   0.000025  -0.000012  -0.000117  -0.000064
  111  C  8  S   -0.003559  -0.003149   0.006551  -0.005839  -0.009859
  112  C  8  X   -0.000167   0.002121   0.001168   0.000743  -0.003204
  113  C  8  Y   -0.000914  -0.001495   0.000404  -0.001153   0.001448
  114  C  8  Z   -0.000395   0.000436   0.000363   0.000316   0.000382
  115  C  8 XX   -0.003463  -0.001973   0.004309  -0.003221  -0.003119
  116  C  8 YY   -0.003465  -0.002046   0.004218  -0.003320  -0.003056
  117  C  8 ZZ   -0.003422  -0.002011   0.004253  -0.003255  -0.003165
  118  C  8 XY    0.000003   0.000046  -0.000042   0.000040   0.000016
  119  C  8 XZ   -0.000043   0.000010   0.000082   0.000080  -0.000082
  120  C  8 YZ    0.000009   0.000020  -0.000041   0.000017   0.000060
  121  C  9  S    0.007528  -0.004573   0.009710   0.007861   0.007827
  122  C  9  S    0.000167  -0.000100   0.000279   0.000257   0.000273
  123  C  9  X   -0.000059   0.000022  -0.000087   0.000035  -0.000086
  124  C  9  Y   -0.000116   0.000097  -0.000149  -0.000089  -0.000115
  125  C  9  Z    0.000050  -0.000030   0.000071   0.000049   0.000052
  126  C  9  S    0.001540  -0.001410   0.001980   0.002178   0.001877
  127  C  9  X    0.000527  -0.000639   0.000509   0.000013  -0.000293
  128  C  9  Y    0.001112  -0.000653   0.001248   0.000713   0.001158
  129  C  9  Z   -0.000684   0.000549  -0.000807  -0.000505  -0.000509
  130  C  9 XX   -0.000141   0.000093  -0.000199  -0.000143  -0.000208
  131  C  9 YY   -0.000161   0.000127  -0.000254  -0.000213  -0.000253
  132  C  9 ZZ   -0.000144   0.000116  -0.000191  -0.000132  -0.000151
  133  C  9 XY   -0.000016  -0.000003  -0.000033  -0.000027  -0.000063
  134  C  9 XZ    0.000008  -0.000010   0.000029   0.000028   0.000051
  135  C  9 YZ    0.000003  -0.000017   0.000036   0.000042   0.000044
  136  C 10  S    0.007528   0.004573   0.009710  -0.007861   0.007827
  137  C 10  S    0.000167   0.000100   0.000279  -0.000257   0.000273
  138  C 10  X    0.000059   0.000022   0.000087   0.000035   0.000086
  139  C 10  Y   -0.000116  -0.000097  -0.000149   0.000089  -0.000115
  140  C 10  Z   -0.000050  -0.000030  -0.000071   0.000049  -0.000052
  141  C 10  S    0.001540   0.001410   0.001980  -0.002178   0.001877
  142  C 10  X   -0.000527  -0.000639  -0.000509   0.000013   0.000293
  143  C 10  Y    0.001112   0.000653   0.001248  -0.000713   0.001158
  144  C 10  Z    0.000684   0.000549   0.000807  -0.000505   0.000509
  145  C 10 XX   -0.000141  -0.000093  -0.000199   0.000143  -0.000208
  146  C 10 YY   -0.000161  -0.000127  -0.000254   0.000213  -0.000253
  147  C 10 ZZ   -0.000144  -0.000116  -0.000191   0.000132  -0.000151
  148  C 10 XY    0.000016  -0.000003   0.000033  -0.000027   0.000063
  149  C 10 XZ    0.000008   0.000010   0.000029  -0.000028   0.000051
  150  C 10 YZ   -0.000003  -0.000017  -0.000036   0.000042  -0.000044
  151  C 11  S    0.007528  -0.004573  -0.009710  -0.007861   0.007827
  152  C 11  S    0.000167  -0.000100  -0.000279  -0.000257   0.000273
  153  C 11  X   -0.000059   0.000022   0.000087  -0.000035  -0.000086
  154  C 11  Y    0.000116  -0.000097  -0.000149  -0.000089   0.000115
  155  C 11  Z   -0.000050   0.000030   0.000071   0.000049  -0.000052
  156  C 11  S    0.001540  -0.001410  -0.001980  -0.002178   0.001877
  157  C 11  X    0.000527  -0.000639  -0.000509  -0.000013  -0.000293
  158  C 11  Y   -0.001112   0.000653   0.001248   0.000713  -0.001158
  159  C 11  Z    0.000684  -0.000549  -0.000807  -0.000505   0.000509
  160  C 11 XX   -0.000141   0.000093   0.000199   0.000143  -0.000208
  161  C 11 YY   -0.000161   0.000127   0.000254   0.000213  -0.000253
  162  C 11 ZZ   -0.000144   0.000116   0.000191   0.000132  -0.000151
  163  C 11 XY    0.000016   0.000003  -0.000033  -0.000027   0.000063
  164  C 11 XZ   -0.000008   0.000010   0.000029   0.000028  -0.000051
  165  C 11 YZ    0.000003  -0.000017  -0.000036  -0.000042   0.000044
  166  C 12  S    0.007528   0.009710  -0.004573   0.007861  -0.007827
  167  C 12  S    0.000167   0.000279  -0.000100   0.000257  -0.000273
  168  C 12  X    0.000116   0.000149  -0.000097   0.000089  -0.000115
  169  C 12  Y    0.000059   0.000087  -0.000022  -0.000035  -0.000086
  170  C 12  Z    0.000050   0.000071  -0.000030   0.000049  -0.000052
  171  C 12  S    0.001540   0.001980  -0.001410   0.002178  -0.001877
  172  C 12  X   -0.001112  -0.001248   0.000653  -0.000713   0.001158
  173  C 12  Y   -0.000527  -0.000509   0.000639  -0.000013  -0.000293
  174  C 12  Z   -0.000684  -0.000807   0.000549  -0.000505   0.000509
  175  C 12 XX   -0.000161  -0.000254   0.000127  -0.000213   0.000253
  176  C 12 YY   -0.000141  -0.000199   0.000093  -0.000143   0.000208
  177  C 12 ZZ   -0.000144  -0.000191   0.000116  -0.000132   0.000151
  178  C 12 XY   -0.000016  -0.000033  -0.000003  -0.000027   0.000063
  179  C 12 XZ   -0.000003  -0.000036   0.000017  -0.000042   0.000044
  180  C 12 YZ   -0.000008  -0.000029   0.000010  -0.000028   0.000051
  181  C 13  S    0.007528  -0.009710   0.004573   0.007861  -0.007827
  182  C 13  S    0.000167  -0.000279   0.000100   0.000257  -0.000273
  183  C 13  X   -0.000116   0.000149  -0.000097  -0.000089   0.000115
  184  C 13  Y   -0.000059   0.000087  -0.000022   0.000035   0.000086
  185  C 13  Z    0.000050  -0.000071   0.000030   0.000049  -0.000052
  186  C 13  S    0.001540  -0.001980   0.001410   0.002178  -0.001877
  187  C 13  X    0.001112  -0.001248   0.000653   0.000713  -0.001158
  188  C 13  Y    0.000527  -0.000509   0.000639   0.000013   0.000293
  189  C 13  Z   -0.000684   0.000807  -0.000549  -0.000505   0.000509
  190  C 13 XX   -0.000161   0.000254  -0.000127  -0.000213   0.000253
  191  C 13 YY   -0.000141   0.000199  -0.000093  -0.000143   0.000208
  192  C 13 ZZ   -0.000144   0.000191  -0.000116  -0.000132   0.000151
  193  C 13 XY   -0.000016   0.000033   0.000003  -0.000027   0.000063
  194  C 13 XZ    0.000003  -0.000036   0.000017   0.000042  -0.000044
  195  C 13 YZ    0.000008  -0.000029   0.000010   0.000028  -0.000051
  196  C 14  S    0.007528   0.009710   0.004573  -0.007861  -0.007827
  197  C 14  S    0.000167   0.000279   0.000100  -0.000257  -0.000273
  198  C 14  X    0.000116   0.000149   0.000097  -0.000089  -0.000115
  199  C 14  Y   -0.000059  -0.000087  -0.000022  -0.000035   0.000086
  200  C 14  Z   -0.000050  -0.000071  -0.000030   0.000049   0.000052
  201  C 14  S    0.001540   0.001980   0.001410  -0.002178  -0.001877
  202  C 14  X   -0.001112  -0.001248  -0.000653   0.000713   0.001158
  203  C 14  Y    0.000527   0.000509   0.000639  -0.000013   0.000293
  204  C 14  Z    0.000684   0.000807   0.000549  -0.000505  -0.000509
  205  C 14 XX   -0.000161  -0.000254  -0.000127   0.000213   0.000253
  206  C 14 YY   -0.000141  -0.000199  -0.000093   0.000143   0.000208
  207  C 14 ZZ   -0.000144  -0.000191  -0.000116   0.000132   0.000151
  208  C 14 XY    0.000016   0.000033  -0.000003  -0.000027  -0.000063
  209  C 14 XZ    0.000003   0.000036   0.000017  -0.000042  -0.000044
  210  C 14 YZ   -0.000008  -0.000029  -0.000010   0.000028   0.000051
  211  C 15  S    0.007528  -0.009710  -0.004573  -0.007861  -0.007827
  212  C 15  S    0.000167  -0.000279  -0.000100  -0.000257  -0.000273
  213  C 15  X   -0.000116   0.000149   0.000097   0.000089   0.000115
[...]
   43   -0.0000000   0.3539694  -0.0000000  -0.0000000  -0.0000000
   44   -0.0000000  -0.0000000   0.3539694  -0.0000000   0.0000001
   45   -0.0000000  -0.0000000  -0.0000000   0.3539694   0.0000000
   46   -0.0387154  -0.0000000   0.0000001   0.0000000   0.3539694
   47   -0.0000000  -0.0387154   0.0000000   0.0000001  -0.0000000
   48    0.0000000   0.0000001  -0.0387154  -0.0000000  -0.0000000

            31          32          33          34          35

   31    5.0717195
   32    0.0000001   5.0717195
   33    0.0000000  -0.0000000   0.5977180
   34   -0.0000000   0.0000000  -0.0049180   0.5977180
   35    0.0002400  -0.0002036   0.0000000  -0.0000000   0.5977180
   36    0.0000000   0.0002400   0.0000000  -0.0000000  -0.0000000
   37   -0.0002036  -0.0000000  -0.0000000  -0.0000000  -0.0000000
   38   -0.0000000   0.0000036  -0.0000000  -0.0000000   0.0000000
   39   -0.0086811   0.0000000  -0.0000000   0.0000000  -0.0000000
   40    0.0000036  -0.0086811  -0.0000000   0.0000000  -0.0049180
   41   -0.0000000  -0.0000000   0.0067299  -0.0000101   0.0000000
   42   -0.0000000   0.0000000  -0.0000101   0.0067299  -0.0000000
   43   -0.0387154   0.0000001   0.0000000  -0.0000000   0.0067299
   44    0.0000000  -0.0387154   0.0000000  -0.0000000  -0.0000001
   45    0.0000001  -0.0000000  -0.0000181  -0.0000001  -0.0000000
   46   -0.0000000  -0.0000000  -0.0000001  -0.0000181   0.0000000
   47    0.3539694  -0.0000000  -0.0000000   0.0000000  -0.0000181
   48   -0.0000000   0.3539694  -0.0000000   0.0000000  -0.0000101

            36          37          38          39          40

   36    0.5977180
   37   -0.0000000   0.5977180
   38   -0.0049180   0.0000000   0.5977180
   39    0.0000000  -0.0049180  -0.0000000   0.5977180
   40   -0.0000000   0.0000000  -0.0000000  -0.0000000   0.5977180
   41    0.0000000  -0.0000181  -0.0000000  -0.0000001  -0.0000000
   42   -0.0000001  -0.0000000  -0.0000181   0.0000000   0.0000000
   43   -0.0000000  -0.0000001   0.0000000  -0.0000181  -0.0000101
   44    0.0067299  -0.0000000  -0.0000101   0.0000000  -0.0000181
   45   -0.0000000   0.0067299   0.0000000  -0.0000101   0.0000000
   46   -0.0000101   0.0000000   0.0067299  -0.0000000  -0.0000000
   47    0.0000000  -0.0000101  -0.0000000   0.0067299  -0.0000001
   48   -0.0000181   0.0000000  -0.0000001  -0.0000000   0.0067299

            41          42          43          44          45

   41    0.5901275
   42    0.0000000   0.5901275
   43    0.0000000  -0.0000000   0.5901275
   44    0.0000000  -0.0000000  -0.0000000   0.5901275
   45   -0.0052546  -0.0000000  -0.0000000  -0.0000000   0.5901275
   46   -0.0000000  -0.0052546   0.0000000   0.0000000   0.0000000
   47   -0.0000000   0.0000000  -0.0052546   0.0000000   0.0000000
   48   -0.0000000   0.0000000   0.0000000  -0.0052546   0.0000000

            46          47          48

   46    0.5901275
   47   -0.0000000   0.5901275
   48   -0.0000000  -0.0000000   0.5901275

          TOTAL MULLIKEN AND LOWDIN ATOMIC POPULATIONS
       ATOM         MULL.POP.    CHARGE          LOW.POP.     CHARGE
    1 C             6.003005   -0.003005         6.005132   -0.005132
    2 C             6.003005   -0.003005         6.005132   -0.005132
    3 C             6.003005   -0.003005         6.005132   -0.005132
    4 C             6.003005   -0.003005         6.005132   -0.005132
    5 C             6.003005   -0.003005         6.005132   -0.005132
    6 C             6.003005   -0.003005         6.005132   -0.005132
    7 C             6.003005   -0.003005         6.005132   -0.005132
    8 C             6.003005   -0.003005         6.005132   -0.005132
    9 C             5.896733    0.103267         5.997203    0.002797
   10 C             5.896733    0.103267         5.997203    0.002797
   11 C             5.896733    0.103267         5.997203    0.002797
   12 C             5.896733    0.103267         5.997203    0.002797
   13 C             5.896733    0.103267         5.997203    0.002797
   14 C             5.896733    0.103267         5.997203    0.002797
   15 C             5.896733    0.103267         5.997203    0.002797
   16 C             5.896733    0.103267         5.997203    0.002797
   17 C             6.172670   -0.172670         6.159780   -0.159780
   18 C             6.172670   -0.172670         6.159780   -0.159780
   19 C             6.172670   -0.172670         6.159780   -0.159780
   20 C             6.172670   -0.172670         6.159780   -0.159780
   21 C             6.172670   -0.172670         6.159780   -0.159780
   22 C             6.172670   -0.172670         6.159780   -0.159780
   23 C             6.172670   -0.172670         6.159780   -0.159780
   24 C             6.172670   -0.172670         6.159780   -0.159780
   25 C             6.190388   -0.190388         6.157551   -0.157551
   26 C             6.190388   -0.190388         6.157551   -0.157551
   27 C             6.190388   -0.190388         6.157551   -0.157551
   28 C             6.190388   -0.190388         6.157551   -0.157551
   29 C             6.190388   -0.190388         6.157551   -0.157551
   30 C             6.190388   -0.190388         6.157551   -0.157551
   31 C             6.190388   -0.190388         6.157551   -0.157551
   32 C             6.190388   -0.190388         6.157551   -0.157551
   33 H             0.870358    0.129642         0.840620    0.159380
   34 H             0.870358    0.129642         0.840620    0.159380
   35 H             0.870358    0.129642         0.840620    0.159380
   36 H             0.870358    0.129642         0.840620    0.159380
   37 H             0.870358    0.129642         0.840620    0.159380
   38 H             0.870358    0.129642         0.840620    0.159380
   39 H             0.870358    0.129642         0.840620    0.159380
   40 H             0.870358    0.129642         0.840620    0.159380
   41 H             0.866846    0.133154         0.839714    0.160286
   42 H             0.866846    0.133154         0.839714    0.160286
   43 H             0.866846    0.133154         0.839714    0.160286
   44 H             0.866846    0.133154         0.839714    0.160286
   45 H             0.866846    0.133154         0.839714    0.160286
   46 H             0.866846    0.133154         0.839714    0.160286
   47 H             0.866846    0.133154         0.839714    0.160286
   48 H             0.866846    0.133154         0.839714    0.160286

          -------------------------------
          BOND ORDER AND VALENCE ANALYSIS     BOND ORDER THRESHOLD=0.050
          -------------------------------

                   BOND                       BOND                       BOND
  ATOM PAIR DIST  ORDER      ATOM PAIR DIST  ORDER      ATOM PAIR DIST  ORDER
    1   2  1.474  1.101        1   5  1.445  1.264        1   9  1.431  1.328
    1  29  2.850  0.057        2   6  1.445  1.264        2  10  1.431  1.328
    2  30  2.850  0.057        3   7  1.445  1.264        3   8  1.474  1.101
    3  11  1.431  1.328        3  31  2.850  0.057        4   6  1.474  1.101
    4   8  1.445  1.264        4  12  1.431  1.328        4  32  2.850  0.057
    5   7  1.474  1.101        5  13  1.431  1.328        5  25  2.850  0.057
    6  14  1.431  1.328        6  26  2.850  0.057        7  15  1.431  1.328
    7  27  2.850  0.057        8  16  1.431  1.328        8  28  2.850  0.057
    9  17  1.430  1.211        9  25  1.420  1.245       10  18  1.430  1.211
   10  26  1.420  1.245       11  19  1.430  1.211       11  27  1.420  1.245
   12  20  1.430  1.211       12  28  1.420  1.245       13  21  1.430  1.211
   13  29  1.420  1.245       14  22  1.430  1.211       14  30  1.420  1.245
   15  23  1.430  1.211       15  31  1.420  1.245       16  24  1.430  1.211
   16  32  1.420  1.245       17  18  1.357  1.596       17  33  1.087  0.924
   18  34  1.087  0.924       19  24  1.357  1.596       19  35  1.087  0.924
   20  22  1.357  1.596       20  36  1.087  0.924       21  23  1.357  1.596
   21  37  1.087  0.924       22  38  1.087  0.924       23  39  1.087  0.924
   24  40  1.087  0.924       25  29  1.362  1.549       25  41  1.087  0.923
   26  30  1.362  1.549       26  42  1.087  0.923       27  31  1.362  1.549
   27  43  1.087  0.923       28  32  1.362  1.549       28  44  1.087  0.923
   29  45  1.087  0.923       30  46  1.087  0.923       31  47  1.087  0.923
   32  48  1.087  0.923

                       TOTAL       BONDED        FREE
      ATOM            VALENCE     VALENCE     VALENCE
    1 C                 3.883       3.883       0.000
    2 C                 3.883       3.883       0.000
    3 C                 3.883       3.883       0.000
    4 C                 3.883       3.883       0.000
    5 C                 3.883       3.883       0.000
    6 C                 3.883       3.883       0.000
    7 C                 3.883       3.883       0.000
    8 C                 3.883       3.883       0.000
    9 C                 3.949       3.949       0.000
   10 C                 3.949       3.949       0.000
   11 C                 3.949       3.949       0.000
   12 C                 3.949       3.949       0.000
   13 C                 3.949       3.949       0.000
   14 C                 3.949       3.949       0.000
   15 C                 3.949       3.949       0.000
   16 C                 3.949       3.949       0.000
   17 C                 3.902       3.902      -0.000
   18 C                 3.902       3.902      -0.000
   19 C                 3.902       3.902      -0.000
   20 C                 3.902       3.902      -0.000
   21 C                 3.902       3.902      -0.000
   22 C                 3.902       3.902      -0.000
   23 C                 3.902       3.902      -0.000
   24 C                 3.902       3.902      -0.000
   25 C                 3.891       3.891      -0.000
   26 C                 3.891       3.891      -0.000
   27 C                 3.891       3.891      -0.000
   28 C                 3.891       3.891      -0.000
   29 C                 3.891       3.891      -0.000
   30 C                 3.891       3.891      -0.000
   31 C                 3.891       3.891      -0.000
   32 C                 3.891       3.891      -0.000
   33 H                 0.938       0.938      -0.000
   34 H                 0.938       0.938      -0.000
   35 H                 0.938       0.938      -0.000
   36 H                 0.938       0.938      -0.000
   37 H                 0.938       0.938      -0.000
   38 H                 0.938       0.938      -0.000
   39 H                 0.938       0.938      -0.000
   40 H                 0.938       0.938      -0.000
   41 H                 0.939       0.939      -0.000
   42 H                 0.939       0.939      -0.000
   43 H                 0.939       0.939      -0.000
   44 H                 0.939       0.939      -0.000
   45 H                 0.939       0.939      -0.000
   46 H                 0.939       0.939      -0.000
   47 H                 0.939       0.939      -0.000
   48 H                 0.939       0.939      -0.000

          ---------------------
          ELECTROSTATIC MOMENTS
          ---------------------

 POINT   1           X           Y           Z (BOHR)    CHARGE
                -0.000000    0.000000    0.000000        0.00 (A.U.)
         DX          DY          DZ         /D/  (DEBYE)
    -0.000000   -0.000000   -0.000000    0.000000
 ...... END OF PROPERTY EVALUATION ......
 STEP CPU TIME =     1.19 TOTAL CPU TIME =      302.8 (    5.0 MIN)
 TOTAL WALL CLOCK TIME=      455.5 SECONDS, CPU UTILIZATION IS  66.47%

 BEGINNING ONE ELECTRON GRADIENT...
 ..... END OF 1-ELECTRON GRADIENT ......
 STEP CPU TIME =     1.67 TOTAL CPU TIME =      304.5 (    5.1 MIN)
 TOTAL WALL CLOCK TIME=      457.2 SECONDS, CPU UTILIZATION IS  66.59%

          ----------------------
          GRADIENT OF THE ENERGY
          ----------------------
 MEMORY FOR GRID POINT CONTRIBUTIONS TO THE DFT GRADIENT=   2836083 WORDS.
 STEP CPU TIME =    46.10 TOTAL CPU TIME =      350.5 (    5.8 MIN)
 TOTAL WALL CLOCK TIME=      503.7 SECONDS, CPU UTILIZATION IS  69.60%

 THE MINIMUM MEMORY REQUIRED FOR THIS RUN IS    1547819 WORDS.
 USING    2523339 WORDS FOR 2E- DERIVATIVE INTEGRAL CONTRIBUTIONS.
 THE COARSE/FINE SCHWARZ SCREENINGS SKIPPED      6058533/      883455 BLOCKS.
 THE NUMBER OF GRADIENT INTEGRAL BLOCKS COMPUTED WAS   1196856
 ...... END OF 2-ELECTRON GRADIENT ......
 STEP CPU TIME =    22.57 TOTAL CPU TIME =      373.1 (    6.2 MIN)
 TOTAL WALL CLOCK TIME=      526.2 SECONDS, CPU UTILIZATION IS  70.90%

                         ----------------------
                         GRADIENT OF THE ENERGY
                         ----------------------

 UNITS ARE HARTREE/BOHR    E'X               E'Y               E'Z 
    1 C               -0.000183945       0.000098170      -0.000029278
    2 C                0.000183945       0.000098170       0.000029278
    3 C               -0.000183945      -0.000098170       0.000029278
    4 C               -0.000098170       0.000183945      -0.000029278
    5 C                0.000098170      -0.000183945      -0.000029278
    6 C               -0.000098170      -0.000183945       0.000029278
    7 C                0.000098170       0.000183945       0.000029278
    8 C                0.000183945      -0.000098170      -0.000029278
    9 C               -0.000039311      -0.000192585      -0.000067017
   10 C                0.000039311      -0.000192585       0.000067017
   11 C               -0.000039311       0.000192585       0.000067017
   12 C                0.000192585       0.000039311      -0.000067017
   13 C               -0.000192585      -0.000039311      -0.000067017
   14 C                0.000192585      -0.000039311       0.000067017
   15 C               -0.000192585       0.000039311       0.000067017
   16 C                0.000039311       0.000192585      -0.000067017
   17 C               -0.000044836       0.000120006       0.000286960
   18 C                0.000044836       0.000120006      -0.000286960
   19 C               -0.000044836      -0.000120006      -0.000286960
   20 C               -0.000120006       0.000044836       0.000286960
   21 C                0.000120006      -0.000044836       0.000286960
   22 C               -0.000120006      -0.000044836      -0.000286960
   23 C                0.000120006       0.000044836      -0.000286960
   24 C                0.000044836      -0.000120006       0.000286960
   25 C                0.000156542      -0.000078882       0.000100879
   26 C               -0.000156542      -0.000078882      -0.000100879
   27 C                0.000156542       0.000078882      -0.000100879
   28 C                0.000078882      -0.000156542       0.000100879
   29 C               -0.000078882       0.000156542       0.000100879
   30 C                0.000078882       0.000156542      -0.000100879
   31 C               -0.000078882      -0.000156542      -0.000100879
   32 C               -0.000156542       0.000078882       0.000100879
   33 H               -0.000024182      -0.000011310      -0.000053209
   34 H                0.000024182      -0.000011310       0.000053209
   35 H               -0.000024182       0.000011310       0.000053209
   36 H                0.000011310       0.000024182      -0.000053209
   37 H               -0.000011310      -0.000024182      -0.000053209
   38 H                0.000011310      -0.000024182       0.000053209
   39 H               -0.000011310       0.000024182       0.000053209
   40 H                0.000024182       0.000011310      -0.000053209
   41 H                0.000056010       0.000015522      -0.000082681
   42 H               -0.000056010       0.000015522       0.000082681
   43 H                0.000056010      -0.000015522       0.000082681
   44 H               -0.000015522      -0.000056010      -0.000082681
   45 H                0.000015522       0.000056010      -0.000082681
   46 H               -0.000015522       0.000056010       0.000082681
   47 H                0.000015522      -0.000056010       0.000082681
   48 H               -0.000056010      -0.000015522      -0.000082681

                   MAXIMUM GRADIENT =    0.000286960
                       RMS GRADIENT =    0.000115680
  $VIB   
          IVIB=   0 IATOM=   0 ICOORD=   0 E=    -1228.2508186123
 -1.839445500E-04 9.816979505E-05-2.927761150E-05 1.839445500E-04 9.816979505E-05
  2.927761150E-05-1.839445500E-04-9.816979505E-05 2.927761150E-05-9.816979505E-05
  1.839445500E-04-2.927761150E-05 9.816979505E-05-1.839445500E-04-2.927761150E-05
 -9.816979505E-05-1.839445500E-04 2.927761150E-05 9.816979505E-05 1.839445500E-04
  2.927761150E-05 1.839445500E-04-9.816979505E-05-2.927761150E-05-3.931105466E-05
 -1.925848238E-04-6.701740556E-05 3.931105466E-05-1.925848238E-04 6.701740556E-05
 -3.931105466E-05 1.925848238E-04 6.701740556E-05 1.925848238E-04 3.931105466E-05
 -6.701740556E-05-1.925848238E-04-3.931105466E-05-6.701740556E-05 1.925848238E-04
 -3.931105466E-05 6.701740556E-05-1.925848238E-04 3.931105466E-05 6.701740556E-05
  3.931105466E-05 1.925848238E-04-6.701740556E-05-4.483643645E-05 1.200058277E-04
  2.869598461E-04 4.483643645E-05 1.200058277E-04-2.869598461E-04-4.483643645E-05
 -1.200058277E-04-2.869598461E-04-1.200058277E-04 4.483643645E-05 2.869598461E-04
  1.200058277E-04-4.483643645E-05 2.869598461E-04-1.200058277E-04-4.483643645E-05
 -2.869598461E-04 1.200058277E-04 4.483643645E-05-2.869598461E-04 4.483643645E-05
 -1.200058277E-04 2.869598461E-04 1.565417017E-04-7.888183679E-05 1.008785143E-04
 -1.565417017E-04-7.888183679E-05-1.008785143E-04 1.565417017E-04 7.888183679E-05
 -1.008785143E-04 7.888183679E-05-1.565417017E-04 1.008785143E-04-7.888183679E-05
  1.565417017E-04 1.008785143E-04 7.888183679E-05 1.565417017E-04-1.008785143E-04
 -7.888183679E-05-1.565417017E-04-1.008785143E-04-1.565417017E-04 7.888183679E-05
  1.008785143E-04-2.418171588E-05-1.130960873E-05-5.320851072E-05 2.418171588E-05
 -1.130960873E-05 5.320851072E-05-2.418171588E-05 1.130960873E-05 5.320851072E-05
  1.130960873E-05 2.418171588E-05-5.320851072E-05-1.130960873E-05-2.418171588E-05
 -5.320851072E-05 1.130960873E-05-2.418171588E-05 5.320851072E-05-1.130960873E-05
  2.418171588E-05 5.320851072E-05 2.418171588E-05 1.130960873E-05-5.320851072E-05
  5.600999495E-05 1.552199806E-05-8.268103114E-05-5.600999495E-05 1.552199806E-05
  8.268103114E-05 5.600999495E-05-1.552199806E-05 8.268103114E-05-1.552199806E-05
 -5.600999495E-05-8.268103114E-05 1.552199806E-05 5.600999495E-05-8.268103114E-05
 -1.552199806E-05 5.600999495E-05 8.268103114E-05 1.552199806E-05-5.600999495E-05
  8.268103114E-05-5.600999495E-05-1.552199806E-05-8.268103114E-05
 -6.411418454E-13-2.031787538E-13-1.625430031E-13

..... END OF SINGLE POINT GRADIENT .....
 STEP CPU TIME =     0.00 TOTAL CPU TIME =      373.1 (    6.2 MIN)
 TOTAL WALL CLOCK TIME=      526.2 SECONDS, CPU UTILIZATION IS  70.90%
              3603716  WORDS OF DYNAMIC MEMORY USED
 EXECUTION OF GAMESS TERMINATED NORMALLY Mon Nov 28 18:21:01 2016
 DDI: 263640 bytes (0.3 MB / 0 MWords) used by master data server.

 ----------------------------------------
 CPU timing information for all processes
 ========================================
 0: 363.842 + 9.302 = 373.145
 ----------------------------------------
 ddikick.x: exited gracefully.
unset echo
----- accounting info -----
Files used on the master node compute-3-0 were:
-rw-rw-r-- 1 sarom sarom  4258471 Nov 29  2016 .//c32h16.dat
-rw-rw-r-- 1 sarom sarom     3328 Nov 29  2016 .//c32h16.F05
-rw-rw-r-- 1 sarom sarom 20450000 Nov 29  2016 .//c32h16.F10
-rw-rw-r-- 1 sarom sarom 12114336 Nov 29  2016 .//c32h16.F22
-rw-rw-r-- 1 sarom sarom     3328 Nov 28 17:27 .//c32h16.inp
-rw-rw-r-- 1 sarom sarom  3947865 Nov 29  2016 .//c32h16.log
Mon Nov 28 18:21:04 CST 2016
0.206u 0.363s 8:49.98 0.1%	0+0k 0+136io 0pf+0w
