-catch_rsh /opt/gridengine/default/spool/compute-0-7/active_jobs/23497.1/pe_hostfile
compute-0-7
The primary node assigned by SGE to this run is compute-0-7
Warning: no access to tty (Bad file descriptor).
Thus no job control in this shell.
Deleting shmid=2523136.
Deleting shmid=2555905.
Deleting shmid=2785282.
source /home/sarom/gamess.github.2017-05-31.14.06/install.info
setenv GMS_PATH /home/sarom/gamess.github.2017-05-31.14.06
setenv GMS_BUILD_DIR /home/sarom/gamess.github.2017-05-31.14.06
setenv GMS_TARGET linux64
setenv GMS_FORTRAN gfortran
setenv GMS_GFORTRAN_VERNO 4.4
setenv GMS_MATHLIB mkl-so
setenv GMS_MATHLIB_PATH /share/apps/intel/compilers_and_libraries_2017.1.132/linux/mkl/lib/intel64
setenv GMS_MKL_VERNO 12
setenv GMS_DDI_COMM sockets
setenv GMS_LIBCCHEM false
setenv GMS_EIGEN_PATH
setenv GMS_PHI false
setenv GMS_SHMTYPE sysv
setenv GMS_OPENMP false
unset echo
criegee-udft-hess
tests/dft
----- GAMESS execution script 'rungms' -----
This job is running on host compute-0-7.local
under operating system Linux at Fri Jun 2 00:51:27 CDT 2017
Available scratch disk space (Kbyte units) at beginning of the job is
Filesystem           1K-blocks      Used Available Use% Mounted on
/dev/sda1             16126920   3867340  11440380  26% /
GAMESS temporary binary files will be written to /scratch
GAMESS supplementary output files will be written to /home/sarom/restart
Copying input file criegee-udft-hess.inp to your run's scratch directory...
cp tests/dft/criegee-udft-hess.inp /scratch/criegee-udft-hess.F05
unset echo
The generated host list is
compute-0-7.local
/home/sarom/gamess.github.2017-05-31.14.06/ddikick.x /home/sarom/gamess.github.2017-05-31.14.06/gamess.00.x criegee-udft-hess -ddi 1 1 compute-0-7.local -scr /scratch

 Distributed Data Interface kickoff program.
 Initiating 1 compute processes on 1 nodes to run the following command:
 /home/sarom/gamess.github.2017-05-31.14.06/gamess.00.x criegee-udft-hess 

          ******************************************************
          *         GAMESS VERSION = 20 APR 2017 (R1)          *
          *             FROM IOWA STATE UNIVERSITY             *
          * M.W.SCHMIDT, K.K.BALDRIDGE, J.A.BOATZ, S.T.ELBERT, *
          *   M.S.GORDON, J.H.JENSEN, S.KOSEKI, N.MATSUNAGA,   *
          *          K.A.NGUYEN, S.J.SU, T.L.WINDUS,           *
          *       TOGETHER WITH M.DUPUIS, J.A.MONTGOMERY       *
          *         J.COMPUT.CHEM.  14, 1347-1363(1993)        *
          **************** 64 BIT LINUX VERSION ****************

  SINCE 1993, STUDENTS AND POSTDOCS WORKING AT IOWA STATE UNIVERSITY
  AND ALSO IN THEIR VARIOUS JOBS AFTER LEAVING ISU HAVE MADE IMPORTANT
  CONTRIBUTIONS TO THE CODE:
     IVANA ADAMOVIC, CHRISTINE AIKENS, YURI ALEXEEV, POOJA ARORA,
     ANDREY ASADCHEV, ROB BELL, PRADIPTA BANDYOPADHYAY, JONATHAN BENTZ,
     BRETT BODE, KURT BRORSEN, CALEB CARLIN, GALINA CHABAN, WEI CHEN,
     CHEOL HO CHOI, PAUL DAY, ALBERT DEFUSCO, NUWAN DESILVA, TIM DUDLEY,
     DMITRI FEDOROV, GRAHAM FLETCHER, MARK FREITAG, KURT GLAESEMANN,
     DAN KEMP, GRANT MERRILL, NORIYUKI MINEZAWA, JONATHAN MULLIN,
     TAKESHI NAGATA, SEAN NEDD, HEATHER NETZLOFF, BOSILJKA NJEGIC, RYAN OLSON,
     MIKE PAK, SPENCER PRUITT, LUKE ROSKOP, JIM SHOEMAKER, LYUDMILA SLIPCHENKO,
     TONY SMITH, SAROM SOK LEANG, JIE SONG, TETSUYA TAKETSUGU, SIMON WEBB,
     PENG XU, SOOHAENG YOO, FEDERICO ZAHARIEV

  ADDITIONAL CODE HAS BEEN PROVIDED BY COLLABORATORS IN OTHER GROUPS:
     IOWA STATE UNIVERSITY:
          JOE IVANIC, AARON WEST, LAIMUTIS BYTAUTAS, KLAUS RUEDENBERG
     UNIVERSITY OF TOKYO: KIMIHIKO HIRAO, TAKAHITO NAKAJIMA,
          TAKAO TSUNEDA, MUNEAKI KAMIYA, SUSUMU YANAGISAWA,
          KIYOSHI YAGI, MAHITO CHIBA, SEIKEN TOKURA, NAOAKI KAWAKAMI
     UNIVERSITY OF AARHUS: FRANK JENSEN
     UNIVERSITY OF IOWA: VISVALDAS KAIRYS, HUI LI
     NATIONAL INST. OF STANDARDS AND TECHNOLOGY: WALT STEVENS, DAVID GARMER
     UNIVERSITY OF PISA: BENEDETTA MENNUCCI, JACOPO TOMASI
     UNIVERSITY OF MEMPHIS: HENRY KURTZ, PRAKASHAN KORAMBATH
     UNIVERSITY OF ALBERTA: TOBY ZENG, MARIUSZ KLOBUKOWSKI
     UNIVERSITY OF NEW ENGLAND: MARK SPACKMAN
     MIE UNIVERSITY: HIROAKI UMEDA
     NAT. INST. OF ADVANCED INDUSTRIAL SCIENCE AND TECHNOLOGY: KAZUO KITAURA
     MICHIGAN STATE UNIVERSITY:
          KAROL KOWALSKI, MARTA WLOCH, JEFFREY GOUR, JESSE LUTZ,
          WEI LI, PIOTR PIECUCH
     UNIVERSITY OF SILESIA: MONIKA MUSIAL, STANISLAW KUCHARSKI
     FACULTES UNIVERSITAIRES NOTRE-DAME DE LA PAIX:
          OLIVIER QUINET, BENOIT CHAMPAGNE
     UNIVERSITY OF CALIFORNIA - SANTA BARBARA: BERNARD KIRTMAN
     INSTITUTE FOR MOLECULAR SCIENCE:
          KAZUYA ISHIMURA, MICHIO KATOUDA, AND SHIGERU NAGASE
     UNIVERSITY OF NOTRE DAME: ANNA POMOGAEVA, DAN CHIPMAN
     KYUSHU UNIVERSITY:
          HARUYUKI NAKANO,
          FENG LONG GU, JACEK KORCHOWIEC, MARCIN MAKOWSKI, AND YURIKO AOKI,
          HIROTOSHI MORI AND EISAKU MIYOSHI
     PENNSYLVANIA STATE UNIVERSITY:
          TZVETELIN IORDANOV, CHET SWALINA, JONATHAN SKONE,
          SHARON HAMMES-SCHIFFER
     WASEDA UNIVERSITY:
          MASATO KOBAYASHI, TOMOKO AKAMA, TSUGUKI TOUMA,
          TAKESHI YOSHIKAWA, YASUHIRO IKABATA, JUNJI SEINO,
          YUYA NAKAJIMA, HIROMI NAKAI
     NANJING UNIVERSITY: SHUHUA LI
     UNIVERSITY OF NEBRASKA:
          PEIFENG SU, DEJUN SI, NANDUN THELLAMUREGE, YALI WANG, HUI LI
     UNIVERSITY OF ZURICH: ROBERTO PEVERATI, KIM BALDRIDGE
     N. COPERNICUS UNIVERSITY AND JACKSON STATE UNIVERSITY:
          MARIA BARYSZ
     UNIVERSITY OF COPENHAGEN: Jimmy Kromann, CASPER STEINMANN
     TOKYO INSTITUTE OF TECHNOLOGY: HIROYA NAKATA
     NAGOYA UNIVERSITY: YOSHIO NISHIMOTO, STEPHAN IRLE
     MOSCOW STATE UNIVERSITY: VLADIMIR MIRONOV

 EXECUTION OF GAMESS BEGUN Fri Jun  2 00:51:27 2017

            ECHO OF THE FIRST FEW INPUT CARDS -
 INPUT CARD>!   "Criegee intermediate" aka formaldehyde oxide aka carbonyl oxide.           
 INPUT CARD>!   Its planar geometry is actually a saddle point!                             
 INPUT CARD>!   (this geometry has r-m-s- of 0.000000961)                                   
 INPUT CARD>!                                                                               
 INPUT CARD>!   The analytic run automatically picks CPHF=AO (the only option),             
 INPUT CARD>!   but requires user to select direct AO integrals and no symmetry.            
 INPUT CARD>!                                                                               
 INPUT CARD>!   FINAL U-B3LYP E= -189.4424996938, 20 iters, <S**2>= 1.008                   
 INPUT CARD>!    analyt. FREQ= 557.46i, 365.41, 600.50, ..., 1459.46, 3156.92, 3303.69      
 INPUT CARD>!   seminum. F.EQ= 557.53i, 365.58, 600.16, ..., 1459.34, 3157.02, 3303.80      
 INPUT CARD>!                                                                               
 INPUT CARD>!   anal. residual = 34.02, 14.96, 0.02, 0.01, 0.00, 14.17                      
 INPUT CARD>!    num. residual =  4.60,  3.81, 0.12, 0.19, 0.22,  2.34                      
 INPUT CARD>!                                                                               
 INPUT CARD>!   the mode at 365 has intensity 0.55559/0.55513 for seminum/analyt.           
 INPUT CARD>!                                                                               
 INPUT CARD>!   this job takes 331/323 seconds for num/anal on 2.66 GHz Clov. (5 Dec 2014)  
 INPUT CARD>!                                                                               
 INPUT CARD> $contrl scftyp=uhf mult=1 dfttyp=b3lyp runtyp=hessian ispher=1 $end            
 INPUT CARD> $system mwords=10 $end                                                         
 INPUT CARD> $guess  guess=huckel norder=1 jorder(12)=13,12 $end                            
 INPUT CARD> $basis  gbasis=n31 ngauss=6 ndfunc=1 $end                                      
 INPUT CARD>!                half-numerical is straightforward,                             
 INPUT CARD>!                I happened to choose disk integrals but am not required to.    
 INPUT CARD>x$force  method=seminum $end                                                    
 INPUT CARD>!                default this test case to analytic,                            
 INPUT CARD>!                with human assistance for present program limitations.         
 INPUT CARD> $force  method=analytic $end                                                   
 INPUT CARD> $scf    dirscf=.true. $end                                                     
 INPUT CARD> $contrl nosym=1 $end                                                           
 INPUT CARD>                                                                                
 INPUT CARD> $data                                                                          
 INPUT CARD>Criegee intermediate...B3LYP/6-31G(d) optimized geometry                        
 INPUT CARD>Cs                                                                              
 INPUT CARD>                                                                                
 INPUT CARD>C    6.0  -1.1780325985   0.2100249322   0.0000000000                           
 INPUT CARD>O    8.0   0.0020310975  -0.5275318300   0.0000000000                           
 INPUT CARD>O    8.0   1.0707432500   0.2935543326   0.0000000000                           
 INPUT CARD>H    1.0  -1.4995351160   0.6063303783  -0.9571561730                           
 INPUT CARD> $end                                                                           
   10000000 WORDS OF MEMORY AVAILABLE

     BASIS OPTIONS
     -------------
     GBASIS=N31          IGAUSS=       6      POLAR=POPN31  
     NDFUNC=       1     NFFUNC=       0     DIFFSP=       F
     NPFUNC=       0      DIFFS=       F     BASNAM=        


     RUN TITLE
     ---------
 Criegee intermediate...B3LYP/6-31G(d) optimized geometry                        

 THE POINT GROUP OF THE MOLECULE IS CS      
 THE ORDER OF THE PRINCIPAL AXIS IS     0

 ATOM      ATOMIC                      COORDINATES (BOHR)
           CHARGE         X                   Y                   Z
 C           6.0    -2.2261588158        0.3968895724        0.0000000000
 O           8.0     0.0038382177       -0.9968906085        0.0000000000
 O           8.0     2.0234113457        0.5547372511        0.0000000000
 H           1.0    -2.8337104782        1.1457982730        1.8087628944
 H           1.0    -2.8337104782        1.1457982730       -1.8087628944

          INTERNUCLEAR DISTANCES (ANGS.)
          ------------------------------

                1 C          2 O          3 O          4 H          5 H     

   1 C       0.0000000    1.3915963 *  2.2503266 *  1.0846980 *  1.0846980 *
   2 O       1.3915963 *  0.0000000    1.3477122 *  2.1110406 *  2.1110406 *
   3 O       2.2503266 *  1.3477122 *  0.0000000    2.7604905 *  2.7604905 *
   4 H       1.0846980 *  2.1110406 *  2.7604905 *  0.0000000    1.9143123 *
   5 H       1.0846980 *  2.1110406 *  2.7604905 *  1.9143123 *  0.0000000  

  * ... LESS THAN  3.000


     ATOMIC BASIS SET
     ----------------
 THE CONTRACTED PRIMITIVE FUNCTIONS HAVE BEEN UNNORMALIZED
 THE CONTRACTED BASIS FUNCTIONS ARE NOW NORMALIZED TO UNITY

  SHELL TYPE  PRIMITIVE        EXPONENT          CONTRACTION COEFFICIENT(S)

 C         

      1   S       1          3047.5248800    0.001834737132
      1   S       2           457.3695180    0.014037322813
      1   S       3           103.9486850    0.068842622264
      1   S       4            29.2101553    0.232184443216
      1   S       5             9.2866630    0.467941348435
      1   S       6             3.1639270    0.362311985337

      2   L       7             7.8682723   -0.119332419775    0.068999066591
      2   L       8             1.8812885   -0.160854151696    0.316423960957
      2   L       9             0.5442493    1.143456437840    0.744308290898

      3   L      10             0.1687145    1.000000000000    1.000000000000

      4   D      11             0.8000000    1.000000000000

 O         

      5   S      12          5484.6716600    0.001831074430
      5   S      13           825.2349460    0.013950172200
      5   S      14           188.0469580    0.068445078098
      5   S      15            52.9645000    0.232714335992
      5   S      16            16.8975704    0.470192897984
      5   S      17             5.7996353    0.358520852987

      6   L      18            15.5396162   -0.110777549525    0.070874268231
      6   L      19             3.5999336   -0.148026262701    0.339752839147
      6   L      20             1.0137618    1.130767015354    0.727158577316

      7   L      21             0.2700058    1.000000000000    1.000000000000

      8   D      22             0.8000000    1.000000000000

 O         

      9   S      23          5484.6716600    0.001831074430
      9   S      24           825.2349460    0.013950172200
      9   S      25           188.0469580    0.068445078098
      9   S      26            52.9645000    0.232714335992
      9   S      27            16.8975704    0.470192897984
      9   S      28             5.7996353    0.358520852987

     10   L      29            15.5396162   -0.110777549525    0.070874268231
     10   L      30             3.5999336   -0.148026262701    0.339752839147
     10   L      31             1.0137618    1.130767015354    0.727158577316

     11   L      32             0.2700058    1.000000000000    1.000000000000

     12   D      33             0.8000000    1.000000000000

 H         

     15   S      34            18.7311370    0.033494604338
     15   S      35             2.8253944    0.234726953484
     15   S      36             0.6401217    0.813757326146

     16   S      37             0.1612778    1.000000000000

 TOTAL NUMBER OF BASIS SET SHELLS             =   16
 NUMBER OF CARTESIAN GAUSSIAN BASIS FUNCTIONS =   49
 NOTE: THIS RUN WILL RESTRICT THE MO VARIATION SPACE TO SPHERICAL HARMONICS.
 THE NUMBER OF ORBITALS KEPT IN THE VARIATIONAL SPACE WILL BE PRINTED LATER.
 NUMBER OF ELECTRONS                          =   24
 CHARGE OF MOLECULE                           =    0
 SPIN MULTIPLICITY                            =    1
 NUMBER OF OCCUPIED ORBITALS (ALPHA)          =   12
 NUMBER OF OCCUPIED ORBITALS (BETA )          =   12
 TOTAL NUMBER OF ATOMS                        =    5
 THE NUCLEAR REPULSION ENERGY IS       67.8783710116

     LEBEDEV GRID-BASED DFT OPTIONS
     ------------------------------
     DFTTYP=B3LYP   
     NRAD  =      96     NLEB  =     302
     NRAD0 =      96     NLEB0 =     302
     SWOFF =    5.00E-03 (PURE SCF -> DFT)
     SWITCH=    3.00E-04 (COARSE -> TIGHT GRID)
     THRESH=    0.00E+00 GTHRE=    1.00E+00

 GRIMME'S EMPIRICAL DISPERSION CORRECTION= F

     $CONTRL OPTIONS
     ---------------
 SCFTYP=UHF          RUNTYP=HESSIAN      EXETYP=RUN     
 MPLEVL=       0     CITYP =NONE         CCTYP =NONE         VBTYP =NONE    
 DFTTYP=B3LYP        TDDFT =NONE    
 MULT  =       1     ICHARG=       0     NZVAR =       0     COORD =UNIQUE  
 PP    =NONE         RELWFN=NONE         LOCAL =NONE         NUMGRD=       F
 ISPHER=       1     NOSYM =       1     MAXIT =      30     UNITS =ANGS    
 PLTORB=       F     MOLPLT=       F     AIMPAC=       F     FRIEND=        
 NPRINT=       7     IREST =       0     GEOM  =INPUT   
 NORMF =       0     NORMP =       0     ITOL  =      20     ICUT  =       9
 INTTYP=BEST         GRDTYP=BEST         QMTTOL= 1.0E-06

     $SYSTEM OPTIONS
     ---------------
  REPLICATED MEMORY=    10000000 WORDS (ON EVERY NODE).
 DISTRIBUTED MEMDDI=           0 MILLION WORDS IN AGGREGATE,
 MEMDDI DISTRIBUTED OVER   1 PROCESSORS IS           0 WORDS/PROCESSOR.
 TOTAL MEMORY REQUESTED ON EACH PROCESSOR=    10000000 WORDS.
 TIMLIM=      525600.00 MINUTES, OR     365.0 DAYS.
 PARALL= F  BALTYP=  DLB     KDIAG=    0  COREFL= F
 MXSEQ2=     300 MXSEQ3=     150  mem10=         0

          ----------------
          PROPERTIES INPUT
          ----------------

     MOMENTS            FIELD           POTENTIAL          DENSITY
 IEMOM =       1   IEFLD =       0   IEPOT =       0   IEDEN =       0
 WHERE =COMASS     WHERE =NUCLEI     WHERE =NUCLEI     WHERE =NUCLEI  
 OUTPUT=BOTH       OUTPUT=BOTH       OUTPUT=BOTH       OUTPUT=BOTH    
 IEMINT=       0   IEFINT=       0                     IEDINT=       0
                                                       MORB  =       0
          EXTRAPOLATION IN EFFECT
          DIIS IN EFFECT
          DIIS or SOSCF will be reset if energy rises
 ORBITAL PRINTING OPTION: NPREO=     1    49     2     1

     -------------------------------
     INTEGRAL TRANSFORMATION OPTIONS
     -------------------------------
     NWORD  =            0
     CUTOFF = 1.0E-09     MPTRAN =       0
     DIRTRF =       T     AOINTS =DUP     

          ----------------------
          INTEGRAL INPUT OPTIONS
          ----------------------
 NOPK  =       1 NORDER=       0 SCHWRZ=       T

     ------------------------------------------
     THE POINT GROUP IS C1 , NAXIS= 1, ORDER= 1
     ------------------------------------------

 -- VARIATIONAL SPACE WILL BE RESTRICTED TO PURE SPHERICAL HARMONICS ONLY --
 AFTER EXCLUDING CONTAMINANT COMBINATIONS FROM THE CARTESIAN GAUSSIAN BASIS
 SET, THE NUMBER OF SPHERICAL HARMONICS KEPT IN THE VARIATION SPACE IS   46

     DIMENSIONS OF THE SYMMETRY SUBSPACES ARE
 A   =   46

 ..... DONE SETTING UP THE RUN .....
 STEP CPU TIME =     0.02 TOTAL CPU TIME =        0.0 (    0.0 MIN)
 TOTAL WALL CLOCK TIME=        0.0 SECONDS, CPU UTILIZATION IS  66.67%

     ---------------------------------
     HESSIAN MATRIX CONTROL PARAMETERS
     ---------------------------------
     METHOD=ANALYTIC   NVIB  =       2   VIBSIZ= 0.01000
     RDHESS=       F   PURIFY=       F   PRTIFC=       F
     VIBANL=       T   DECOMP=       F   PROJCT=       F
     SCLFAC= 1.00000   PRTSCN=       F   NPRT  =       0
     PULCOR=       F   NPUN  =       0   REDOVB=       T
     HSSTYP=GENERAL 
     THERMOCHEMISTRY WILL BE PRINTED FOR    1 TEMPERATURES:
      298.15000
 Old integral subroutine is used

     ------------------------------
     CPHF RESPONSE SOLUTION OPTIONS
     ------------------------------
     POLAR  =       F     NWORD  =       0
     CPHF   =AO      

          ********************
          1 ELECTRON INTEGRALS
          ********************
 ...... END OF ONE-ELECTRON INTEGRALS ......
 STEP CPU TIME =     0.00 TOTAL CPU TIME =        0.0 (    0.0 MIN)
 TOTAL WALL CLOCK TIME=        0.0 SECONDS, CPU UTILIZATION IS  66.67%

          -------------
          GUESS OPTIONS
          -------------
          GUESS =HUCKEL            NORB  =       0          NORDER=       1
          MIX   =       F          PRTMO =       F          PUNMO =       F
          TOLZ  = 1.0E-08          TOLE  = 1.0E-05
          SYMDEN=       F          PURIFY=       F

 INITIAL GUESS ORBITALS GENERATED BY HUCKEL   ROUTINE.
 HUCKEL GUESS REQUIRES     22562 WORDS.

 STATISTICS FOR GENERATION OF SYMMETRY ORBITAL -Q- MATRIX
 NUMBER OF CARTESIAN ATOMIC ORBITALS=         49
 NUMBER OF SPHERICAL CONTAMINANTS DROPPED=     3
 NUMBER OF LINEARLY DEPENDENT MOS DROPPED=     0
 TOTAL NUMBER OF MOS IN VARIATION SPACE=      46

 SYMMETRIES FOR INITIAL GUESS ORBITALS FOLLOW.  ALPHA SET(S).
    12 ORBITALS ARE OCCUPIED (    3 CORE ORBITALS).
     4=A        5=A        6=A        7=A        8=A        9=A       10=A   
    11=A       12=A       13=A       14=A       15=A       16=A       17=A   
    18=A       19=A       20=A       21=A       22=A   

 SYMMETRIES FOR INITIAL GUESS ORBITALS FOLLOW.   BETA SET(S).
    12 ORBITALS ARE OCCUPIED (    3 CORE ORBITALS).
     4=A        5=A        6=A        7=A        8=A        9=A       10=A   
    11=A       12=A       13=A       14=A       15=A       16=A       17=A   
    18=A       19=A       20=A       21=A       22=A   
 ...... END OF INITIAL ORBITAL SELECTION ......
 STEP CPU TIME =     0.00 TOTAL CPU TIME =        0.0 (    0.0 MIN)
 TOTAL WALL CLOCK TIME=        0.0 SECONDS, CPU UTILIZATION IS  66.67%

                    ----------------------
                    AO INTEGRAL TECHNOLOGY
                    ----------------------
     S,P,L SHELL ROTATED AXIS INTEGRALS, REPROGRAMMED BY
        KAZUYA ISHIMURA (IMS) AND JOSE SIERRA (SYNSTAR).
     S,P,D,L SHELL ROTATED AXIS INTEGRALS PROGRAMMED BY
        KAZUYA ISHIMURA (INSTITUTE FOR MOLECULAR SCIENCE).
     S,P,D,F,G SHELL TO TOTAL QUARTET ANGULAR MOMENTUM SUM 5,
        ERIC PROGRAM BY GRAHAM FLETCHER (ELORET AND NASA ADVANCED
        SUPERCOMPUTING DIVISION, AMES RESEARCH CENTER).
     S,P,D,F,G,L SHELL GENERAL RYS QUADRATURE PROGRAMMED BY
        MICHEL DUPUIS (PACIFIC NORTHWEST NATIONAL LABORATORY).

          --------------------
          2 ELECTRON INTEGRALS
          --------------------

 DIRECT SCF METHOD SKIPS INTEGRAL STORAGE ON DISK.
 DIRECT TRANSFORMATION SKIPS AO INTEGRAL STORAGE ON DISK.
  ...... END OF TWO-ELECTRON INTEGRALS .....
 STEP CPU TIME =     0.02 TOTAL CPU TIME =        0.0 (    0.0 MIN)
 TOTAL WALL CLOCK TIME=        0.0 SECONDS, CPU UTILIZATION IS  80.00%

          ---------------------------
              U-B3LYP SCF CALCULATION
          ---------------------------

     NUCLEAR ENERGY =        67.8783710116
     MAXIT = 30     NPUNCH=  2     MULT=  1
     EXTRAP=T  DAMP=F  SHIFT=F  RSTRCT=F  DIIS=T  SOSCF=F
         DENSITY MATRIX CONVERGENCE THRESHOLD=  2.00E-05
     COARSE -> FINE DFT GRID SWITCH THRESHOLD=  3.00E-04 (SWITCH IN $DFT)
                   HF -> DFT SWITCH THRESHOLD=  5.00E-03 (SWOFF IN $DFT)
     MEMORY REQUIRED FOR UHF/ROHF ITERS=    267880 WORDS.

 DIRECT SCF CALCULATION, SCHWRZ=T   FDIFF=T
 SCHWARZ INEQUALITY OVERHEAD:      1224 INTEGRALS, T=        0.00

     EXCHANGE FUNCTIONAL   =B88&HFX   
     CORRELATION FUNCTIONAL=LYP88&VWN5
     DFT THRESHOLD         =.690E-08
 FOR AN EULER-MACLAURIN QUADRATURE USING  96 RADIAL POINTS:
 SMALLEST GAUSSIAN PRIMITIVE EXPONENT=        0.1612777588 OF TYPE -S-
 ON ATOM NUMBER   4 HAS RADIAL NORMALIZATION=  1.000000
  LARGEST GAUSSIAN PRIMITIVE EXPONENT=     5484.6716600000 OF TYPE -S-
 ON ATOM NUMBER   2 HAS RADIAL NORMALIZATION=  1.000000
 DFT IS SWITCHED OFF, PERFORMING PURE SCF UNTIL SWOFF THRESHOLD IS REACHED.

                                                                                NONZERO     BLOCKS
 ITER EX      TOTAL ENERGY        E CHANGE  DENSITY CHANGE    DIIS ERROR      INTEGRALS    SKIPPED
   1  0     -187.5735882903  -187.5735882903   0.595537160   0.534642704         485439        305
          * * *   INITIATING DIIS PROCEDURE   * * *
   2  1     -188.0188503386    -0.4452620484   0.497536624   0.348258968         485298        367
   3  2     -188.0539383304    -0.0350879917   0.313697814   0.373097539         485282        377
   4  3     -188.5287095137    -0.4747711833   0.050635864   0.040239372         484971        429
   5  4     -188.5427860976    -0.0140765839   0.037342751   0.026785438         484454        503
   6  5     -188.5490675155    -0.0062814179   0.044871050   0.018892443         483995        545
   7  6     -188.5543643672    -0.0052968518   0.059514214   0.014119336         484031        549
   8  7     -188.5584337102    -0.0040693429   0.042068205   0.008297713         484113        552
   9  8     -188.5596696843    -0.0012359742   0.004354671   0.002151365         483780        591
 CONVERGED TO SWOFF, SO DFT CALCULATION IS NOW SWITCHED ON.
          * * *   INITIATING DIIS PROCEDURE   * * *
  10  9     -189.4177349946    -0.8580653103   0.094623531   0.065709658         485496        299
  11 10     -189.4375249713    -0.0197899767   0.062250850   0.026482791         484933        431
  12 11     -189.4341886993     0.0033362721   0.051970171   0.045699473         484210        532
  13 12     -189.4419199690    -0.0077312698   0.008798089   0.009474538         483951        557
  14 13     -189.4424135881    -0.0004936191   0.009411702   0.002709362         482881        652
  15 14     -189.4424972096    -0.0000836215   0.001423748   0.000435203         482703        688
  16 15     -189.4424993533    -0.0000021437   0.000433137   0.000191741         480822        837
  17 16     -189.4424996291    -0.0000002758   0.000178985   0.000093530         477817        987
  18 17     -189.4424996891    -0.0000000600   0.000077997   0.000016333         474865       1087
  19 18     -189.4424996936    -0.0000000045   0.000014586   0.000004783         469946       1291
  20 19     -189.4424996938    -0.0000000002   0.000004339   0.000000910         460712       1581

          -----------------
          DENSITY CONVERGED
          -----------------
     TIME TO FORM FOCK OPERATORS=       9.9 SECONDS (       0.5 SEC/ITER)
     FOCK TIME ON FIRST ITERATION=       0.0, LAST ITERATION=       0.9
     TIME TO SOLVE SCF EQUATIONS=       0.0 SECONDS (       0.0 SEC/ITER)

 FINAL U-B3LYP ENERGY IS     -189.4424996938 AFTER  20 ITERATIONS
 DFT EXCHANGE + CORRELATION ENERGY =       -18.6735020891
 TOTAL ELECTRON NUMBER             =        23.9999735297

          --------------------
          SPIN SZ   =    0.000
          S-SQUARED =    1.008
          --------------------

  ----- ALPHA SET ----- 

          ------------
          EIGENVECTORS
          ------------

                      1          2          3          4          5
                  -19.2690   -19.2199   -10.2469    -1.1848    -0.8875
                     A          A          A          A          A   
    1  C  1  S    0.000029  -0.000105   0.995187  -0.043015   0.082852
    2  C  1  S    0.000129  -0.001232   0.033774   0.083252  -0.158710
    3  C  1  X    0.000752  -0.000313   0.002186   0.067838  -0.088993
    4  C  1  Y   -0.000232  -0.000190  -0.000507  -0.031786   0.063342
    5  C  1  Z    0.000000   0.000000  -0.000000  -0.000000   0.000000
    6  C  1  S    0.005793   0.003430  -0.016811  -0.002048  -0.084358
    7  C  1  X    0.003285   0.001632   0.001090  -0.018854   0.001898
    8  C  1  Y   -0.001621  -0.000272  -0.002022   0.006640  -0.000295
    9  C  1  Z   -0.000000  -0.000000   0.000000   0.000000  -0.000000
   10  C  1 XX    0.000086   0.000131   0.000546   0.009619  -0.006701
   11  C  1 YY   -0.000308   0.000055  -0.000583  -0.004044   0.003374
   12  C  1 ZZ    0.000221  -0.000186   0.000037  -0.005575   0.003327
   13  C  1 XY    0.000036  -0.000101  -0.001429  -0.012326   0.020697
   14  C  1 XZ   -0.000000  -0.000000  -0.000000  -0.000000   0.000000
   15  C  1 YZ   -0.000000  -0.000000   0.000000   0.000000  -0.000000
   16  O  2  S    0.995094  -0.000225   0.000163  -0.174654   0.110826
   17  O  2  S    0.029466  -0.000139   0.001243   0.393968  -0.260802
   18  O  2  X   -0.000267  -0.000015   0.000276   0.041279   0.233333
   19  O  2  Y    0.001985   0.000127  -0.000084   0.117457   0.008332
   20  O  2  Z   -0.000000  -0.000000   0.000000  -0.000000   0.000000
   21  O  2  S   -0.017902   0.003026  -0.004405   0.342951  -0.294719
   22  O  2  X    0.001203   0.003338   0.001275  -0.003565   0.087398
   23  O  2  Y   -0.004743   0.001263  -0.003191   0.052522  -0.008239
   24  O  2  Z    0.000000  -0.000000  -0.000000  -0.000000   0.000000
   25  O  2 XX   -0.000470  -0.000217  -0.001236   0.008222  -0.001046
   26  O  2 YY   -0.000220  -0.000002  -0.000095   0.003589   0.004584
   27  O  2 ZZ    0.000690   0.000219   0.001331  -0.011811  -0.003538
   28  O  2 XY    0.000043  -0.000325   0.001309   0.010583   0.022314
   29  O  2 XZ   -0.000000  -0.000000  -0.000000   0.000000  -0.000000
   30  O  2 YZ    0.000000  -0.000000   0.000000  -0.000000   0.000000
   31  O  3  S    0.000228   0.995021  -0.000060  -0.126058  -0.173073
   32  O  3  S   -0.000202   0.027807  -0.000975   0.284964   0.405866
   33  O  3  X   -0.000210  -0.001402   0.000182  -0.104710  -0.000060
   34  O  3  Y   -0.000031  -0.000897  -0.000110  -0.073569  -0.018290
   35  O  3  Z   -0.000000  -0.000000   0.000000  -0.000000  -0.000000
   36  O  3  S    0.003690  -0.012736   0.003308   0.216355   0.414881
   37  O  3  X   -0.001848   0.003648  -0.002517  -0.033684  -0.012993
   38  O  3  Y   -0.001198   0.002416  -0.000139  -0.020667  -0.010231
   39  O  3  Z   -0.000000   0.000000   0.000000  -0.000000  -0.000000
   40  O  3 XX   -0.000022  -0.000474   0.000611   0.008908  -0.005491
   41  O  3 YY   -0.000294  -0.000113  -0.000269  -0.002781  -0.002176
   42  O  3 ZZ    0.000316   0.000587  -0.000342  -0.006127   0.007667
   43  O  3 XY   -0.000419  -0.000605   0.000114   0.019011   0.005029
   44  O  3 XZ   -0.000000  -0.000000   0.000000  -0.000000   0.000000
   45  O  3 YZ   -0.000000   0.000000  -0.000000  -0.000000   0.000000
   46  H  4  S   -0.000438  -0.000154  -0.001337   0.012082  -0.033368
   47  H  4  S    0.000038  -0.000380   0.004872   0.000022  -0.001952
   48  H  5  S   -0.000438  -0.000154  -0.001337   0.012082  -0.033368
   49  H  5  S    0.000038  -0.000380   0.004872   0.000023  -0.001952

                      6          7          8          9         10
                   -0.6484    -0.5248    -0.5162    -0.4711    -0.4234
                     A          A          A          A          A   
    1  C  1  S   -0.162223   0.000000  -0.040218   0.014667  -0.000000
    2  C  1  S    0.326114   0.000000   0.084637  -0.023118  -0.000001
    3  C  1  X   -0.041830   0.000001  -0.213313   0.167349   0.000000
    4  C  1  Y    0.078850  -0.000001   0.203370  -0.005052  -0.000000
    5  C  1  Z   -0.000000   0.302211   0.000001   0.000000  -0.336969
    6  C  1  S    0.291249  -0.000003   0.078808  -0.052214   0.000004
    7  C  1  X   -0.015881   0.000001  -0.074266   0.047667  -0.000001
    8  C  1  Y    0.033969  -0.000001   0.062031   0.028198   0.000001
    9  C  1  Z    0.000003   0.116076   0.000003  -0.000001  -0.103175
   10  C  1 XX   -0.008571   0.000000  -0.015707   0.019418  -0.000000
   11  C  1 YY   -0.012573   0.000000  -0.007627  -0.008417  -0.000000
   12  C  1 ZZ    0.021145  -0.000000   0.023334  -0.011001   0.000000
   13  C  1 XY   -0.012746   0.000000   0.011184   0.004026  -0.000000
   14  C  1 XZ   -0.000000   0.006441  -0.000000   0.000000   0.016667
   15  C  1 YZ    0.000000   0.005241   0.000000  -0.000000  -0.018897
   16  O  2  S    0.082727   0.000000  -0.007307   0.042528  -0.000000
   17  O  2  S   -0.205274  -0.000000   0.013467  -0.091910   0.000000
   18  O  2  X   -0.170609  -0.000002   0.418150   0.015784  -0.000000
   19  O  2  Y    0.111436   0.000000  -0.010362   0.503515   0.000000
   20  O  2  Z   -0.000000   0.420344   0.000002  -0.000000   0.231523
   21  O  2  S   -0.243933  -0.000000   0.037626  -0.163694  -0.000000
   22  O  2  X   -0.078068  -0.000001   0.196449   0.005619   0.000000
   23  O  2  Y    0.058785   0.000000   0.002280   0.300016  -0.000000
   24  O  2  Z   -0.000001   0.240979   0.000000   0.000000   0.148335
   25  O  2 XX   -0.000846  -0.000000   0.001041  -0.018090  -0.000000
   26  O  2 YY    0.007279   0.000000   0.000727   0.031798   0.000000
   27  O  2 ZZ   -0.006433  -0.000000  -0.001767  -0.013708   0.000000
   28  O  2 XY   -0.012234  -0.000000   0.016024   0.001342   0.000000
   29  O  2 XZ    0.000000  -0.004798   0.000000  -0.000000   0.015072
   30  O  2 YZ   -0.000000   0.023819   0.000000  -0.000000   0.011033
   31  O  3  S   -0.062706  -0.000000   0.063122   0.036264  -0.000000
   32  O  3  S    0.148563   0.000001  -0.145126  -0.082008   0.000000
   33  O  3  X    0.068602   0.000001  -0.188170  -0.336954  -0.000000
   34  O  3  Y    0.134141   0.000001  -0.269737   0.037795   0.000000
   35  O  3  Z   -0.000000   0.259335   0.000001  -0.000000   0.408021
   36  O  3  S    0.193940   0.000001  -0.237143  -0.157284  -0.000000
   37  O  3  X    0.028288   0.000000  -0.089201  -0.186010   0.000000
   38  O  3  Y    0.061037   0.000001  -0.138716   0.036970   0.000000
   39  O  3  Z    0.000000   0.145261   0.000001  -0.000000   0.249596
   40  O  3 XX   -0.001577   0.000000   0.002627   0.024937   0.000000
   41  O  3 YY   -0.007818  -0.000000   0.011670  -0.012504  -0.000000
   42  O  3 ZZ    0.009395   0.000000  -0.014297  -0.012434   0.000000
   43  O  3 XY   -0.012045  -0.000000   0.018983   0.006802  -0.000000
   44  O  3 XZ   -0.000000  -0.015990  -0.000000   0.000000  -0.013909
   45  O  3 YZ   -0.000000  -0.009841  -0.000000   0.000000  -0.010385
   46  H  4  S    0.157246   0.139471   0.123701  -0.050568  -0.201550
   47  H  4  S    0.064833   0.087687   0.080602  -0.045351  -0.170709
   48  H  5  S    0.157247  -0.139471   0.123701  -0.050569   0.201549
   49  H  5  S    0.064838  -0.087684   0.080606  -0.045353   0.170704

                     11         12         13         14         15
                   -0.2897    -0.2866    -0.0856     0.1001     0.1143
                     A          A          A          A          A   
    1  C  1  S    0.000000   0.028151   0.027138   0.037940  -0.138424
    2  C  1  S    0.000001  -0.087280  -0.040935  -0.037129   0.225173
    3  C  1  X   -0.000000  -0.126467   0.295993  -0.240270  -0.108310
    4  C  1  Y    0.000000   0.102121   0.423068  -0.006687   0.157088
    5  C  1  Z    0.089153   0.000000   0.000000   0.000000   0.000000
    6  C  1  S   -0.000002  -0.036684  -0.139064  -0.452432   1.914027
    7  C  1  X    0.000000  -0.005366   0.332004  -0.625896  -0.350198
    8  C  1  Y   -0.000001   0.049179   0.444054   0.104382   0.495542
    9  C  1  Z   -0.020599   0.000001   0.000001   0.000001  -0.000005
   10  C  1 XX    0.000000  -0.007297   0.001176   0.019648  -0.001430
   11  C  1 YY    0.000000   0.005472   0.003354  -0.014745   0.000595
   12  C  1 ZZ   -0.000000   0.001824  -0.004530  -0.004903   0.000835
   13  C  1 XY    0.000000   0.007455   0.004594  -0.002728  -0.004543
   14  C  1 XZ   -0.020107  -0.000000  -0.000000   0.000000   0.000000
   15  C  1 YZ    0.018854   0.000000  -0.000000   0.000000  -0.000000
   16  O  2  S    0.000000  -0.033366  -0.033413  -0.098931   0.002812
   17  O  2  S   -0.000000   0.078281   0.085679   0.230748  -0.005951
   18  O  2  X    0.000000   0.100048   0.023235   0.216419   0.078694
   19  O  2  Y    0.000000  -0.260007  -0.029109   0.381745  -0.058115
   20  O  2  Z   -0.509684  -0.000000  -0.000000  -0.000000  -0.000000
   21  O  2  S   -0.000000   0.136947   0.186887   1.006464   0.002209
   22  O  2  X   -0.000000   0.053323   0.044000   0.164669   0.058081
   23  O  2  Y    0.000000  -0.183097  -0.027255   0.563417  -0.068687
   24  O  2  Z   -0.350515  -0.000000  -0.000000  -0.000000   0.000001
   25  O  2 XX    0.000000  -0.019770  -0.020106  -0.017297   0.005270
   26  O  2 YY   -0.000000   0.009531   0.010675   0.010561   0.004997
   27  O  2 ZZ    0.000000   0.010239   0.009431   0.006737  -0.010267
   28  O  2 XY   -0.000000   0.011606  -0.023418  -0.017202  -0.005381
   29  O  2 XZ    0.017054   0.000000   0.000000  -0.000000  -0.000000
   30  O  2 YZ   -0.005403  -0.000000  -0.000000  -0.000000   0.000000
   31  O  3  S   -0.000000   0.003302   0.023383   0.050250   0.001851
   32  O  3  S    0.000000  -0.017430  -0.076113  -0.130479   0.000253
   33  O  3  X    0.000000  -0.326420   0.250516   0.372229   0.003732
   34  O  3  Y   -0.000000   0.534882   0.048820   0.297389   0.026119
   35  O  3  Z    0.513033   0.000000   0.000000   0.000000  -0.000000
   36  O  3  S   -0.000000   0.015864  -0.100323  -0.418993  -0.016074
   37  O  3  X    0.000000  -0.242393   0.207415   0.469135   0.012710
   38  O  3  Y   -0.000000   0.365126   0.045300   0.353666   0.013714
   39  O  3  Z    0.354671   0.000000   0.000000   0.000000  -0.000000
   40  O  3 XX   -0.000000   0.008499  -0.000694   0.006829  -0.000150
   41  O  3 YY    0.000000  -0.008254   0.002829   0.001826   0.005049
   42  O  3 ZZ   -0.000000  -0.000246  -0.002135  -0.008655  -0.004898
   43  O  3 XY    0.000000  -0.004715  -0.004371   0.014487  -0.000118
   44  O  3 XZ    0.000527   0.000000  -0.000000  -0.000000   0.000000
   45  O  3 YZ    0.002764  -0.000000  -0.000000   0.000000   0.000000
   46  H  4  S    0.095207   0.018683   0.030524   0.005280  -0.086351
   47  H  4  S    0.146757   0.044608   0.037404  -0.005247  -1.379117
   48  H  5  S   -0.095207   0.018683   0.030524   0.005280  -0.086350
   49  H  5  S   -0.146754   0.044609   0.037406  -0.005244  -1.379129

                     16         17         18         19         20
                    0.1771     0.1795     0.5117     0.5783     0.6080
                     A          A          A          A          A   
    1  C  1  S   -0.000004  -0.075873   0.039600  -0.004978   0.000001
    2  C  1  S    0.000006   0.113704  -0.221504   0.141951   0.000012
    3  C  1  X    0.000011   0.226134  -0.675136  -0.699927   0.000008
    4  C  1  Y   -0.000010  -0.204500   0.616348  -0.804406  -0.000001
    5  C  1  Z   -0.487618   0.000024  -0.000002  -0.000002  -0.650468
    6  C  1  S    0.000034   0.821147   0.280585  -0.068653  -0.000025
    7  C  1  X    0.000048   0.965136   1.080373   0.794408  -0.000008
    8  C  1  Y   -0.000041  -0.801593  -0.949603   0.817588  -0.000003
    9  C  1  Z   -1.456029   0.000071   0.000003   0.000006   1.973983
   10  C  1 XX   -0.000000  -0.005473   0.020560  -0.017693  -0.000002
   11  C  1 YY   -0.000001  -0.024677  -0.028046   0.007568  -0.000001
   12  C  1 ZZ    0.000001   0.030149   0.007485   0.010125   0.000003
   13  C  1 XY    0.000001   0.020037  -0.065791  -0.029485  -0.000001
   14  C  1 XZ   -0.005803   0.000000  -0.000000   0.000000   0.051091
   15  C  1 YZ    0.000791  -0.000000   0.000000  -0.000000  -0.079961
   16  O  2  S    0.000002   0.041537  -0.013322  -0.008254  -0.000000
   17  O  2  S   -0.000003  -0.067354   0.141459   0.083659   0.000001
   18  O  2  X    0.000024   0.485566  -0.258332  -0.020967   0.000001
   19  O  2  Y    0.000000   0.005795   0.248248   0.038131  -0.000004
   20  O  2  Z    0.121007  -0.000006   0.000000  -0.000001  -0.392520
   21  O  2  S   -0.000035  -0.721458  -0.702271  -0.134121   0.000012
   22  O  2  X    0.000043   0.884042   0.263466  -0.052656   0.000000
   23  O  2  Y   -0.000004  -0.095467  -0.094914  -0.143828   0.000009
   24  O  2  Z    0.241138  -0.000012  -0.000001  -0.000000  -0.039854
   25  O  2 XX   -0.000001  -0.012038  -0.087937   0.037261   0.000001
   26  O  2 YY   -0.000000  -0.000946   0.013775  -0.053996   0.000000
   27  O  2 ZZ    0.000001   0.012985   0.074162   0.016735  -0.000001
   28  O  2 XY   -0.000000  -0.002350   0.090959   0.016231  -0.000000
   29  O  2 XZ    0.014471  -0.000001   0.000000  -0.000000  -0.035737
   30  O  2 YZ   -0.003342   0.000000  -0.000000  -0.000000  -0.008054
   31  O  3  S    0.000002   0.046169   0.010079   0.020048  -0.000000
   32  O  3  S   -0.000007  -0.131889  -0.024281  -0.118767   0.000006
   33  O  3  X    0.000009   0.166894   0.022460   0.025753  -0.000005
   34  O  3  Y    0.000008   0.165759  -0.037312  -0.071825   0.000003
   35  O  3  Z   -0.040306   0.000002  -0.000000  -0.000000  -0.167537
   36  O  3  S   -0.000020  -0.397278  -0.109157   0.038636  -0.000008
   37  O  3  X    0.000014   0.287394   0.108620   0.070437   0.000006
   38  O  3  Y    0.000013   0.261736   0.002639   0.001466   0.000001
   39  O  3  Z   -0.018490   0.000001   0.000000   0.000000   0.117343
   40  O  3 XX   -0.000000  -0.005600   0.018280  -0.003848  -0.000001
   41  O  3 YY    0.000000   0.008381  -0.034567   0.003646   0.000000
   42  O  3 ZZ   -0.000000  -0.002781   0.016287   0.000202   0.000000
   43  O  3 XY   -0.000000  -0.000593  -0.003623  -0.006552   0.000000
   44  O  3 XZ   -0.002157   0.000000  -0.000000  -0.000000  -0.006610
   45  O  3 YZ   -0.003417   0.000000   0.000000   0.000000   0.032527
   46  H  4  S    0.029358   0.005173   0.220742   0.063384  -0.390701
   47  H  4  S    1.682667   0.125066   0.063030  -0.047917  -0.718646
   48  H  5  S   -0.029359   0.005176   0.220742   0.063387   0.390727
   49  H  5  S   -1.682645   0.125231   0.063033  -0.047913   0.718638

                     21         22         23         24         25
                    0.6317     0.8357     0.8448     0.8720     0.8766
                     A          A          A          A          A   
    1  C  1  S   -0.027260  -0.019846  -0.000000   0.013531  -0.000000
    2  C  1  S   -0.878081   0.030576   0.000004  -0.271706   0.000010
    3  C  1  X   -0.164126  -0.097710  -0.000002   0.224776   0.000001
    4  C  1  Y    0.058677   0.121928   0.000002  -0.186242  -0.000001
    5  C  1  Z   -0.000009   0.000006  -0.926852  -0.000004   0.056249
    6  C  1  S    1.748236  -0.091034  -0.000007   1.140059  -0.000003
    7  C  1  X    0.166065   0.055231   0.000000  -0.032408   0.000004
    8  C  1  Y    0.148461  -0.372474  -0.000003   0.183025   0.000000
    9  C  1  Z    0.000033  -0.000013   1.817592   0.000016  -0.413545
   10  C  1 XX    0.097347   0.003497   0.000001   0.041654   0.000002
   11  C  1 YY    0.051866   0.009051   0.000001  -0.012434   0.000000
   12  C  1 ZZ   -0.149213  -0.012548  -0.000001  -0.029220  -0.000002
   13  C  1 XY    0.042992   0.011869   0.000001  -0.087260  -0.000002
   14  C  1 XZ    0.000001   0.000001  -0.133095   0.000000  -0.032708
   15  C  1 YZ   -0.000002  -0.000001   0.113911  -0.000002   0.102045
   16  O  2  S    0.027002  -0.028353  -0.000000   0.040902   0.000001
   17  O  2  S   -0.076444  -0.035405  -0.000000  -0.372637  -0.000010
   18  O  2  X   -0.017260  -0.166141   0.000000  -0.366733  -0.000010
   19  O  2  Y    0.199433  -0.429004  -0.000004   0.439621   0.000011
   20  O  2  Z   -0.000009  -0.000003   0.226291   0.000006  -0.144854
   21  O  2  S   -0.641753   1.030047   0.000006   0.278051   0.000008
   22  O  2  X   -0.009482   0.961927   0.000003   0.792565   0.000017
   23  O  2  Y   -0.499731   1.070511   0.000008  -0.508267  -0.000012
   24  O  2  Z    0.000001   0.000004  -0.401426  -0.000005   0.081053
   25  O  2 XX   -0.077475   0.066015   0.000000  -0.020233  -0.000001
   26  O  2 YY    0.007539  -0.010483  -0.000000   0.029187   0.000001
   27  O  2 ZZ    0.069936  -0.055532  -0.000000  -0.008954   0.000000
   28  O  2 XY   -0.002528   0.126768   0.000001  -0.021188  -0.000001
   29  O  2 XZ   -0.000001  -0.000001   0.089984  -0.000001   0.048783
   30  O  2 YZ    0.000000   0.000000  -0.057518   0.000000  -0.027455
   31  O  3  S    0.021191   0.065232   0.000000   0.045250   0.000001
   32  O  3  S   -0.283329  -0.330622  -0.000002  -0.451741  -0.000010
   33  O  3  X    0.241432  -0.442229  -0.000001  -0.467291  -0.000012
   34  O  3  Y   -0.138994  -0.477059  -0.000005   0.280233   0.000012
   35  O  3  Z   -0.000004  -0.000002   0.112681   0.000022  -0.873086
   36  O  3  S    0.471382  -0.782132  -0.000004   0.158937   0.000004
   37  O  3  X   -0.366928   1.244105   0.000005   0.579041   0.000013
   38  O  3  Y   -0.037970   1.051212   0.000008  -0.086800  -0.000009
   39  O  3  Z    0.000003   0.000002  -0.107910  -0.000025   1.032525
   40  O  3 XX    0.043725  -0.067362  -0.000000  -0.013911  -0.000001
   41  O  3 YY   -0.023414  -0.002695   0.000000  -0.009060  -0.000000
   42  O  3 ZZ   -0.020311   0.070057   0.000000   0.022971   0.000001
   43  O  3 XY   -0.004512  -0.101434  -0.000001  -0.079521  -0.000002
   44  O  3 XZ   -0.000000   0.000000  -0.018887  -0.000001   0.027779
   45  O  3 YZ    0.000001   0.000000  -0.010623  -0.000000  -0.000892
   46  H  4  S   -0.579941  -0.173997   0.625071   0.112831   0.220941
   47  H  4  S   -0.033100   0.226488  -1.602848  -0.393774  -0.021013
   48  H  5  S   -0.579923  -0.173989  -0.625081   0.112837  -0.220948
   49  H  5  S   -0.033079   0.226467   1.602858  -0.393764   0.021023

                     26         27         28         29         30
                    0.9015     0.9843     1.0262     1.0359     1.3444
                     A          A          A          A          A   
    1  C  1  S    0.041607   0.015379   0.000000  -0.019853  -0.026465
    2  C  1  S   -1.210758  -0.576172   0.000004  -0.959970  -0.591743
    3  C  1  X    0.354600   0.026432   0.000003  -0.113768   0.015407
    4  C  1  Y   -0.264949  -0.150423  -0.000002  -0.020436  -0.097099
    5  C  1  Z    0.000000  -0.000000   0.075837  -0.000000  -0.000000
    6  C  1  S    2.370462   1.305395   0.000002   1.217237   2.230237
    7  C  1  X   -0.416401  -0.079765  -0.000002  -0.007256   0.834468
    8  C  1  Y    0.424781  -0.175312  -0.000003   0.397487  -0.379860
    9  C  1  Z   -0.000003   0.000004  -1.147044  -0.000012   0.000001
   10  C  1 XX   -0.055060   0.085754   0.000002  -0.145878  -0.047628
   11  C  1 YY   -0.033621  -0.126641  -0.000002   0.101526   0.164516
   12  C  1 ZZ    0.088681   0.040888   0.000000   0.044352  -0.116888
   13  C  1 XY    0.006778   0.017891  -0.000001   0.065735  -0.049849
   14  C  1 XZ   -0.000001   0.000000  -0.080371  -0.000001  -0.000000
   15  C  1 YZ    0.000002   0.000000   0.098796   0.000002   0.000000
   16  O  2  S   -0.003281  -0.015157   0.000000  -0.017500  -0.028405
   17  O  2  S    0.094667   0.059388  -0.000002   0.176938   0.651275
   18  O  2  X    0.110355  -0.442671  -0.000006   0.378778  -0.387870
   19  O  2  Y    0.098162  -0.480594   0.000002  -0.248266   0.080335
   20  O  2  Z    0.000004   0.000004  -0.795991  -0.000009   0.000000
   21  O  2  S   -0.153581  -0.292257   0.000002  -0.338551  -0.916955
   22  O  2  X   -0.020334   0.893818   0.000015  -0.978763   1.717127
   23  O  2  Y   -0.257258   0.695924  -0.000004   0.422172   0.037741
   24  O  2  Z   -0.000006  -0.000006   1.424623   0.000016  -0.000000
   25  O  2 XX    0.021532  -0.099080   0.000000  -0.034200   0.239702
   26  O  2 YY    0.003604  -0.015676   0.000000  -0.019773  -0.085905
   27  O  2 ZZ   -0.025136   0.114756  -0.000000   0.053973  -0.153797
   28  O  2 XY    0.064938  -0.108404  -0.000001   0.099559   0.078901
   29  O  2 XZ    0.000001  -0.000000   0.107517   0.000002   0.000000
   30  O  2 YZ   -0.000000   0.000000  -0.106839  -0.000001  -0.000000
   31  O  3  S    0.010788   0.006103   0.000000   0.003483  -0.034316
   32  O  3  S   -0.068827  -0.127164  -0.000000  -0.067843   1.050194
   33  O  3  X    0.110195   0.309429   0.000006  -0.363761  -0.166163
   34  O  3  Y   -0.438016   0.259275  -0.000005   0.451446   0.063566
   35  O  3  Z   -0.000011  -0.000002   0.208671   0.000002   0.000000
   36  O  3  S    0.114778  -0.316767  -0.000004   0.332058  -1.990776
   37  O  3  X   -0.108708  -0.227637  -0.000007   0.494083   0.777086
   38  O  3  Y    0.521650  -0.247001   0.000011  -0.899248   0.469781
   39  O  3  Z    0.000014   0.000003  -0.557169  -0.000006  -0.000000
   40  O  3 XX    0.026907  -0.076569  -0.000002   0.115428   0.004693
   41  O  3 YY    0.013021  -0.024266   0.000001  -0.083117   0.185849
   42  O  3 ZZ   -0.039927   0.100835   0.000001  -0.032311  -0.190543
   43  O  3 XY    0.030708  -0.162094  -0.000001   0.026294   0.067836
   44  O  3 XZ    0.000000   0.000000  -0.007564  -0.000000  -0.000000
   45  O  3 YZ   -0.000000   0.000000  -0.088571  -0.000001  -0.000000
   46  H  4  S    0.513432   0.153032   0.267278  -0.003970  -0.130922
   47  H  4  S   -1.182231  -0.445774   0.372192  -0.445506  -0.194804
   48  H  5  S    0.513425   0.153033  -0.267271  -0.003978  -0.130922
   49  H  5  S   -1.182228  -0.445770  -0.372197  -0.445512  -0.194802

                     31         32         33         34         35
                    1.4092     1.4625     1.4831     1.5701     1.7803
                     A          A          A          A          A   
    1  C  1  S    0.006986  -0.000000  -0.008819   0.000000   0.000000
    2  C  1  S    0.052250   0.000000  -0.238085  -0.000001  -0.000000
    3  C  1  X    0.086242  -0.000000  -0.074415   0.000000   0.000000
    4  C  1  Y    0.177635   0.000000  -0.012898  -0.000000  -0.000000
    5  C  1  Z    0.000000  -0.031824  -0.000000  -0.135294   0.069374
    6  C  1  S   -0.068105  -0.000000   0.082445   0.000003   0.000001
    7  C  1  X    0.012257   0.000000  -0.369196  -0.000000  -0.000000
    8  C  1  Y   -0.167707  -0.000000   0.323947   0.000001   0.000000
    9  C  1  Z   -0.000000   0.200709   0.000001  -0.568692  -0.538563
   10  C  1 XX   -0.235032   0.000000  -0.242031  -0.000000  -0.000000
   11  C  1 YY    0.307622   0.000000   0.049271   0.000000  -0.000000
   12  C  1 ZZ   -0.072590  -0.000000   0.192760   0.000000   0.000000
   13  C  1 XY   -0.193897   0.000000  -0.111290  -0.000000  -0.000000
   14  C  1 XZ    0.000000   0.253933  -0.000000   0.601414  -0.340541
   15  C  1 YZ   -0.000000   0.241610  -0.000000   0.289819  -0.222909
   16  O  2  S   -0.007894   0.000000   0.017918   0.000000  -0.000000
   17  O  2  S    0.517873   0.000000  -1.092388  -0.000000  -0.000000
   18  O  2  X    0.034256  -0.000000  -0.006483  -0.000000   0.000000
   19  O  2  Y    0.045017  -0.000000  -0.035690   0.000000   0.000000
   20  O  2  Z    0.000000  -0.033698   0.000000  -0.118362  -0.079981
   21  O  2  S   -1.327466   0.000000   2.432394   0.000001   0.000000
   22  O  2  X   -0.438908   0.000000   0.426852   0.000001  -0.000000
   23  O  2  Y   -0.294322   0.000000   0.778853   0.000000  -0.000000
   24  O  2  Z   -0.000000  -0.136458  -0.000000   0.319119   0.261952
   25  O  2 XX    0.355650   0.000000  -0.024147  -0.000000  -0.000000
   26  O  2 YY   -0.445842   0.000000  -0.423036  -0.000000  -0.000000
   27  O  2 ZZ    0.090191  -0.000000   0.447183   0.000000   0.000000
   28  O  2 XY   -0.033493  -0.000000   0.111104   0.000000  -0.000000
   29  O  2 XZ   -0.000000   0.287869   0.000000  -0.478281  -0.121906
   30  O  2 YZ    0.000000   0.564585  -0.000000   0.149622   0.042813
   31  O  3  S    0.023812  -0.000000  -0.007555  -0.000000   0.000000
   32  O  3  S   -0.723544   0.000000   0.638786   0.000000  -0.000000
   33  O  3  X    0.113295  -0.000000  -0.011063  -0.000000   0.000000
   34  O  3  Y    0.086550   0.000000  -0.035227   0.000000  -0.000000
   35  O  3  Z   -0.000000  -0.027249  -0.000000   0.051131  -0.017127
   36  O  3  S    1.374787  -0.000000  -1.626063  -0.000001   0.000000
   37  O  3  X   -0.687425   0.000000   0.682786   0.000000  -0.000000
   38  O  3  Y   -0.354246   0.000000   0.569376   0.000000  -0.000000
   39  O  3  Z    0.000000  -0.100462  -0.000000  -0.039888  -0.000063
   40  O  3 XX   -0.363955   0.000000  -0.204136  -0.000000   0.000000
   41  O  3 YY    0.249384   0.000000  -0.028445  -0.000000   0.000000
   42  O  3 ZZ    0.114572  -0.000000   0.232581   0.000000  -0.000000
   43  O  3 XY    0.077249  -0.000000   0.144151   0.000000  -0.000000
   44  O  3 XZ    0.000000  -0.496795  -0.000000   0.127799  -0.558223
   45  O  3 YZ    0.000000  -0.182252  -0.000000   0.347677   0.715159
   46  H  4  S    0.008937  -0.032037  -0.089296   0.314106   0.078882
   47  H  4  S    0.046893  -0.100689  -0.194955   0.132323   0.241902
   48  H  5  S    0.008937   0.032037  -0.089296  -0.314105  -0.078882
   49  H  5  S    0.046892   0.100689  -0.194954  -0.132326  -0.241903

                     36         37         38         39         40
                    1.7948     1.8958     1.9800     2.0349     2.1157
                     A          A          A          A          A   
    1  C  1  S    0.003895  -0.000000   0.023866  -0.023912   0.025918
    2  C  1  S   -0.133024   0.000001   0.334528  -0.536774  -0.154452
    3  C  1  X   -0.164866  -0.000000   0.082438  -0.118806  -0.186030
    4  C  1  Y    0.142018   0.000000  -0.027149   0.046071   0.052990
    5  C  1  Z   -0.000000   0.147804   0.000000  -0.000000   0.000000
    6  C  1  S   -0.437850  -0.000002  -0.681936   1.173959  -0.668113
    7  C  1  X   -0.220564   0.000001  -0.194078   0.482912  -0.007768
    8  C  1  Y    0.108561  -0.000000  -0.316326  -0.267042   0.027028
    9  C  1  Z    0.000000   0.812509  -0.000000  -0.000000  -0.000001
   10  C  1 XX    0.063076   0.000000  -0.416505   0.255496   0.538422
   11  C  1 YY   -0.202532  -0.000000   0.808254  -0.121315   0.094509
   12  C  1 ZZ    0.139456  -0.000000  -0.391749  -0.134181  -0.632932
   13  C  1 XY   -0.204266  -0.000000  -0.115272  -0.839706   0.248828
   14  C  1 XZ    0.000000   0.045593   0.000000  -0.000000   0.000000
   15  C  1 YZ   -0.000000   0.737726   0.000000  -0.000000  -0.000000
   16  O  2  S    0.012670   0.000000   0.003945   0.030182   0.028138
   17  O  2  S   -0.487974  -0.000000  -0.448414  -0.065503  -0.792379
   18  O  2  X    0.171698   0.000000  -0.155322   0.240540  -0.004116
   19  O  2  Y   -0.097111  -0.000000  -0.121957  -0.172957  -0.256143
   20  O  2  Z    0.000000   0.135230   0.000000  -0.000000  -0.000000
   21  O  2  S    0.858603  -0.000000   0.989518  -0.509919   1.086123
   22  O  2  X   -0.488259  -0.000000   0.805550   0.337915  -0.331359
   23  O  2  Y    0.327099   0.000000   0.495441   0.026958   0.528176
   24  O  2  Z   -0.000000  -0.257778   0.000000   0.000000   0.000000
   25  O  2 XX    0.095761   0.000000   0.020896   0.181825   0.262008
   26  O  2 YY   -0.145390   0.000000   0.042829   0.091460   0.034725
   27  O  2 ZZ    0.049629  -0.000000  -0.063725  -0.273285  -0.296733
   28  O  2 XY   -0.096925  -0.000000   0.118601  -0.232128   0.167421
   29  O  2 XZ    0.000000   0.402349   0.000000  -0.000000  -0.000000
   30  O  2 YZ    0.000000  -0.435711  -0.000000   0.000000   0.000000
   31  O  3  S   -0.001216  -0.000000   0.018752  -0.002882   0.017673
   32  O  3  S   -0.009368   0.000000  -0.058379   0.195259  -0.162970
   33  O  3  X    0.002126  -0.000000   0.237788  -0.040383   0.133481
   34  O  3  Y    0.002489  -0.000000  -0.007346  -0.026502   0.175899
   35  O  3  Z    0.000000   0.054079   0.000000  -0.000000  -0.000000
   36  O  3  S    0.009071   0.000000  -0.616194  -0.392101  -0.119401
   37  O  3  X    0.042242  -0.000000   0.066546   0.162679   0.097005
   38  O  3  Y   -0.025262  -0.000000   0.431131   0.097495  -0.152325
   39  O  3  Z    0.000000  -0.070213  -0.000000   0.000000   0.000000
   40  O  3 XX    0.136817  -0.000000   0.521747   0.113330  -0.156371
   41  O  3 YY    0.615809   0.000000  -0.320820  -0.358915   0.257533
   42  O  3 ZZ   -0.752626   0.000000  -0.200927   0.245585  -0.101163
   43  O  3 XY   -0.384722   0.000000  -0.249708   0.076914   0.427620
   44  O  3 XZ    0.000000  -0.044420  -0.000000   0.000000  -0.000000
   45  O  3 YZ   -0.000000   0.326182   0.000000  -0.000000  -0.000000
   46  H  4  S   -0.047057  -0.506052   0.209433  -0.065471   0.394741
   47  H  4  S    0.024148  -0.201752   0.126953  -0.137741  -0.019055
   48  H  5  S   -0.047057   0.506051   0.209434  -0.065472   0.394741
   49  H  5  S    0.024148   0.201755   0.126952  -0.137741  -0.019056

                     41         42         43         44         45
                    2.2206     2.3799     2.4697     2.5803     2.7553
                     A          A          A          A          A   
    1  C  1  S   -0.009033   0.000000   0.000000   0.015049   0.044288
    2  C  1  S    0.051434   0.000000  -0.000000  -0.488110  -0.352466
    3  C  1  X   -0.010673  -0.000000   0.000000  -0.537229  -0.522664
    4  C  1  Y    0.047314   0.000000  -0.000000   0.154458   0.407793
    5  C  1  Z   -0.000000   0.025122  -0.022754  -0.000000   0.000000
    6  C  1  S    0.059383  -0.000001   0.000001  -0.582637  -1.047496
    7  C  1  X   -0.259508   0.000000  -0.000000  -0.409941  -0.510795
    8  C  1  Y    0.121485  -0.000000   0.000000   0.169503   0.350343
    9  C  1  Z    0.000001  -0.161088  -0.099122  -0.000000  -0.000000
   10  C  1 XX   -0.415342   0.000000   0.000000  -0.673555  -0.184863
   11  C  1 YY   -0.299337   0.000000  -0.000000   0.444719  -0.155280
   12  C  1 ZZ    0.714679  -0.000000  -0.000000   0.228836   0.340143
   13  C  1 XY   -0.112453   0.000000  -0.000000   0.132792   0.726089
   14  C  1 XZ   -0.000000  -0.665464   0.435863  -0.000000  -0.000000
   15  C  1 YZ    0.000000   0.413294  -0.504082  -0.000000   0.000000
   16  O  2  S    0.008079   0.000000   0.000000  -0.042627  -0.055561
   17  O  2  S   -0.265576  -0.000000   0.000000  -0.646494  -0.611509
   18  O  2  X   -0.337768   0.000000   0.000000   0.081460   0.047509
   19  O  2  Y   -0.115252  -0.000000   0.000000  -0.022752   0.148377
   20  O  2  Z    0.000000  -0.081513  -0.036413  -0.000000  -0.000000
   21  O  2  S    0.243608   0.000000  -0.000000   2.209397   2.380610
   22  O  2  X    0.206601  -0.000000   0.000000  -0.339988  -0.500153
   23  O  2  Y    0.144657   0.000000  -0.000000   1.210312   0.575829
   24  O  2  Z   -0.000000   0.525159   0.192489   0.000000   0.000000
   25  O  2 XX    0.261744  -0.000000   0.000000  -0.166615   1.051879
   26  O  2 YY    0.169756  -0.000000  -0.000000   0.759809  -0.485707
   27  O  2 ZZ   -0.431500   0.000000   0.000000  -0.593193  -0.566171
   28  O  2 XY    0.341888   0.000000  -0.000000  -0.390037  -0.454077
   29  O  2 XZ    0.000000  -0.047289   0.858148   0.000000  -0.000000
   30  O  2 YZ    0.000000   0.755005   0.189588   0.000000   0.000000
   31  O  3  S    0.027345   0.000000  -0.000000   0.009685   0.013208
   32  O  3  S   -0.431335  -0.000000   0.000000   0.257702   0.193312
   33  O  3  X    0.306187   0.000000  -0.000000  -0.015805   0.011648
   34  O  3  Y    0.192061  -0.000000  -0.000000  -0.014131  -0.003595
   35  O  3  Z    0.000000   0.054165   0.025964   0.000000   0.000000
   36  O  3  S    0.238123  -0.000000  -0.000000  -0.945177  -0.684191
   37  O  3  X   -0.281839  -0.000000   0.000000   0.697921   0.340266
   38  O  3  Y   -0.132329   0.000000  -0.000000   0.163869   0.453600
   39  O  3  Z   -0.000000  -0.304723  -0.265505  -0.000000  -0.000000
   40  O  3 XX    0.199814   0.000000   0.000000  -0.684329   0.190054
   41  O  3 YY   -0.030873   0.000000  -0.000000   0.459464  -0.428236
   42  O  3 ZZ   -0.168941  -0.000000   0.000000   0.224865   0.238182
   43  O  3 XY    0.358182  -0.000000   0.000000  -0.090901  -0.410582
   44  O  3 XZ    0.000000   0.578282   0.479993   0.000000   0.000000
   45  O  3 YZ    0.000000   0.250069   0.499724   0.000000   0.000000
   46  H  4  S   -0.352801  -0.278603   0.282861  -0.036203   0.006719
   47  H  4  S    0.039200   0.182007  -0.068158  -0.008080   0.047276
   48  H  5  S   -0.352801   0.278603  -0.282861  -0.036203   0.006719
   49  H  5  S    0.039201  -0.182007   0.068158  -0.008080   0.047275

                     46
                    2.9473
                     A   
    1  C  1  S    0.028149
    2  C  1  S   -0.002384
    3  C  1  X   -0.195716
    4  C  1  Y    0.179323
    5  C  1  Z    0.000000
    6  C  1  S   -0.788572
    7  C  1  X   -0.268284
    8  C  1  Y    0.234265
    9  C  1  Z   -0.000000
   10  C  1 XX   -0.223402
   11  C  1 YY    0.068988
   12  C  1 ZZ    0.154414
   13  C  1 XY    0.249752
   14  C  1 XZ   -0.000000
   15  C  1 YZ    0.000000
   16  O  2  S    0.050769
   17  O  2  S    0.333978
   18  O  2  X   -0.190506
   19  O  2  Y   -0.130667
   20  O  2  Z   -0.000000
   21  O  2  S   -2.058772
   22  O  2  X   -2.071615
   23  O  2  Y   -0.999367
   24  O  2  Z    0.000000
   25  O  2 XX   -0.310919
   26  O  2 YY   -0.131910
   27  O  2 ZZ    0.442829
   28  O  2 XY   -1.260533
   29  O  2 XZ   -0.000000
   30  O  2 YZ    0.000000
   31  O  3  S   -0.066368
   32  O  3  S   -0.634193
   33  O  3  X   -0.200921
   34  O  3  Y   -0.161808
   35  O  3  Z   -0.000000
   36  O  3  S    3.018002
   37  O  3  X   -1.586131
   38  O  3  Y   -1.209461
   39  O  3  Z    0.000000
   40  O  3 XX    0.577565
   41  O  3 YY    0.019587
   42  O  3 ZZ   -0.597152
   43  O  3 XY    1.015006
   44  O  3 XZ   -0.000000
   45  O  3 YZ    0.000000
   46  H  4  S    0.019638
   47  H  4  S    0.070806
   48  H  5  S    0.019638
   49  H  5  S    0.070806

  ----- BETA SET ----- 

          ------------
          EIGENVECTORS
          ------------

                      1          2          3          4          5
                  -19.2597   -19.2034   -10.2625    -1.1635    -0.8628
                     A          A          A          A          A   
    1  C  1  S    0.000029  -0.000099   0.994925  -0.050491   0.106102
    2  C  1  S    0.000100  -0.001151   0.035606   0.100713  -0.212557
    3  C  1  X    0.000710  -0.000292   0.002102   0.074628  -0.081973
    4  C  1  Y   -0.000216  -0.000185  -0.000694  -0.034937   0.070811
    5  C  1  Z    0.000000   0.000000  -0.000000  -0.000000   0.000000
    6  C  1  S    0.005661   0.003234  -0.018122   0.013214  -0.143003
    7  C  1  X    0.003213   0.001558   0.001060  -0.016910   0.001055
    8  C  1  Y   -0.001594  -0.000256  -0.002032   0.005683   0.003284
    9  C  1  Z   -0.000000  -0.000000   0.000000   0.000000  -0.000001
   10  C  1 XX    0.000072   0.000130   0.000558   0.009929  -0.004423
   11  C  1 YY   -0.000299   0.000048  -0.000116  -0.002139  -0.001682
   12  C  1 ZZ    0.000227  -0.000178  -0.000442  -0.007790   0.006105
   13  C  1 XY    0.000039  -0.000097  -0.000660  -0.010035   0.014302
   14  C  1 XZ   -0.000000  -0.000000   0.000000  -0.000000   0.000000
   15  C  1 YZ   -0.000000  -0.000000   0.000000   0.000000  -0.000000
   16  O  2  S    0.995185  -0.000579   0.000164  -0.176212   0.089835
   17  O  2  S    0.028873  -0.000124   0.001254   0.392871  -0.210328
   18  O  2  X   -0.000244  -0.000049   0.000260   0.038882   0.254990
   19  O  2  Y    0.001938   0.000096  -0.000063   0.118859   0.013571
   20  O  2  Z   -0.000000  -0.000000   0.000000  -0.000000   0.000000
   21  O  2  S   -0.017403   0.002669  -0.004254   0.349644  -0.236087
   22  O  2  X    0.001228   0.003057   0.001166  -0.000173   0.093848
   23  O  2  Y   -0.004569   0.001089  -0.003240   0.054638  -0.003864
   24  O  2  Z    0.000000  -0.000000  -0.000000  -0.000000   0.000000
   25  O  2 XX   -0.000381  -0.000243  -0.001272   0.010189  -0.002363
   26  O  2 YY   -0.000137  -0.000030  -0.000121   0.006085   0.002022
   27  O  2 ZZ    0.000518   0.000273   0.001393  -0.016274   0.000341
   28  O  2 XY    0.000066  -0.000371   0.001320   0.010759   0.023747
   29  O  2 XZ    0.000000  -0.000000  -0.000000   0.000000  -0.000000
   30  O  2 YZ   -0.000000  -0.000000   0.000000  -0.000000   0.000000
   31  O  3  S    0.000589   0.995182  -0.000062  -0.117524  -0.165158
   32  O  3  S   -0.000179   0.026830  -0.001022   0.260299   0.379386
   33  O  3  X   -0.000193  -0.001411   0.000197  -0.110889  -0.021890
   34  O  3  Y   -0.000022  -0.000878  -0.000117  -0.073569  -0.033510
   35  O  3  Z   -0.000000  -0.000000   0.000000  -0.000000  -0.000000
   36  O  3  S    0.003511  -0.012005   0.003461   0.200644   0.396802
   37  O  3  X   -0.001749   0.003347  -0.002608  -0.035013  -0.019420
   38  O  3  Y   -0.001135   0.002201  -0.000146  -0.021035  -0.015844
   39  O  3  Z   -0.000000   0.000000   0.000000  -0.000000  -0.000000
   40  O  3 XX   -0.000042  -0.000206   0.000631   0.014602   0.004480
   41  O  3 YY   -0.000292   0.000022  -0.000274   0.000447   0.004114
   42  O  3 ZZ    0.000334   0.000184  -0.000357  -0.015049  -0.008594
   43  O  3 XY   -0.000427  -0.000503   0.000115   0.019732   0.008453
   44  O  3 XZ   -0.000000   0.000000   0.000000   0.000000   0.000000
   45  O  3 YZ   -0.000000  -0.000000  -0.000000  -0.000000   0.000000
   46  H  4  S   -0.000430  -0.000147  -0.001292   0.014169  -0.046067
   47  H  4  S    0.000043  -0.000351   0.005187  -0.001366  -0.000560
   48  H  5  S   -0.000430  -0.000147  -0.001292   0.014169  -0.046068
   49  H  5  S    0.000043  -0.000351   0.005187  -0.001365  -0.000561

                      6          7          8          9         10
                   -0.6654    -0.5102    -0.5040    -0.4734    -0.3693
                     A          A          A          A          A   
    1  C  1  S   -0.160656  -0.026709  -0.000000   0.012589  -0.000000
    2  C  1  S    0.329975   0.055747   0.000001  -0.018635  -0.000001
    3  C  1  X   -0.082251  -0.222473  -0.000001   0.208962   0.000000
    4  C  1  Y    0.099084   0.217138   0.000001   0.076125  -0.000000
    5  C  1  Z   -0.000000  -0.000002   0.416892  -0.000000  -0.241154
    6  C  1  S    0.337264   0.064004  -0.000004  -0.066245   0.000004
    7  C  1  X   -0.021859  -0.080032   0.000000   0.070794  -0.000001
    8  C  1  Y    0.037632   0.070118  -0.000001   0.068539   0.000001
    9  C  1  Z    0.000003   0.000001   0.168714  -0.000001  -0.056856
   10  C  1 XX   -0.010082  -0.014563   0.000000   0.018700  -0.000000
   11  C  1 YY   -0.004338  -0.005905   0.000000  -0.010940  -0.000000
   12  C  1 ZZ    0.014421   0.020468  -0.000000  -0.007761   0.000000
   13  C  1 XY    0.006132   0.015553   0.000000   0.001853  -0.000000
   14  C  1 XZ   -0.000000  -0.000000  -0.000126   0.000000   0.024443
   15  C  1 YZ    0.000000   0.000000   0.009455  -0.000000  -0.019260
   16  O  2  S    0.096774  -0.020221  -0.000000   0.040434  -0.000000
   17  O  2  S   -0.233507   0.044736   0.000000  -0.087625   0.000000
   18  O  2  X   -0.088820   0.415296   0.000002   0.023948  -0.000000
   19  O  2  Y    0.101096  -0.055955  -0.000000   0.478475   0.000000
   20  O  2  Z    0.000000  -0.000001   0.294022  -0.000000   0.458450
   21  O  2  S   -0.295632   0.085853   0.000000  -0.151478  -0.000000
   22  O  2  X   -0.036931   0.196845   0.000001   0.002446   0.000000
   23  O  2  Y    0.048114  -0.025491   0.000000   0.284899  -0.000000
   24  O  2  Z   -0.000001  -0.000001   0.174163   0.000000   0.321839
   25  O  2 XX   -0.001836   0.002961   0.000000  -0.019319   0.000000
   26  O  2 YY    0.005139  -0.002201   0.000000   0.030012   0.000000
   27  O  2 ZZ   -0.003303  -0.000760  -0.000000  -0.010693  -0.000000
   28  O  2 XY   -0.007737   0.016289   0.000000   0.001358   0.000000
   29  O  2 XZ    0.000000   0.000000  -0.005623  -0.000000   0.012982
   30  O  2 YZ   -0.000000  -0.000000   0.019438  -0.000000   0.022508
   31  O  3  S   -0.076914   0.072176   0.000000   0.043776  -0.000000
   32  O  3  S    0.178862  -0.162620  -0.000001  -0.096220   0.000000
   33  O  3  X    0.057050  -0.180532  -0.000001  -0.331344  -0.000000
   34  O  3  Y    0.100778  -0.267803  -0.000001   0.028299   0.000000
   35  O  3  Z   -0.000000  -0.000001   0.108553  -0.000000   0.301146
   36  O  3  S    0.226400  -0.263161  -0.000001  -0.179007  -0.000000
   37  O  3  X    0.022744  -0.086306  -0.000001  -0.183239   0.000000
   38  O  3  Y    0.045045  -0.140639  -0.000001   0.029623   0.000000
   39  O  3  Z    0.000000  -0.000000   0.067993  -0.000000   0.209431
   40  O  3 XX    0.002278  -0.002994  -0.000000   0.021605   0.000000
   41  O  3 YY   -0.003507   0.009485   0.000000  -0.013767  -0.000000
   42  O  3 ZZ    0.001229  -0.006491  -0.000000  -0.007838   0.000000
   43  O  3 XY   -0.008885   0.019146   0.000000   0.006733   0.000000
   44  O  3 XZ   -0.000000   0.000000  -0.011586   0.000000  -0.020888
   45  O  3 YZ   -0.000000   0.000000  -0.006792   0.000000  -0.015041
   46  H  4  S    0.148960   0.106056   0.189439  -0.034204  -0.157825
   47  H  4  S    0.047214   0.066920   0.118785  -0.030479  -0.155316
   48  H  5  S    0.148961   0.106059  -0.189437  -0.034204   0.157825
   49  H  5  S    0.047219   0.066925  -0.118780  -0.030481   0.155312

                     11         12         13         14         15
                   -0.2756    -0.2497    -0.1168     0.0971     0.1050
                     A          A          A          A          A   
    1  C  1  S    0.033739   0.015019   0.000000  -0.129354   0.064815
    2  C  1  S   -0.103968  -0.020094   0.000000   0.201693  -0.133617
    3  C  1  X   -0.035453   0.363148  -0.000000   0.124316   0.241001
    4  C  1  Y    0.234603   0.455102   0.000000   0.065038  -0.138541
    5  C  1  Z   -0.000000  -0.000000   0.007142  -0.000000  -0.000001
    6  C  1  S   -0.072564  -0.107076  -0.000002   1.724267  -0.978856
    7  C  1  X    0.062922   0.272724   0.000000   0.300224   0.692943
    8  C  1  Y    0.149975   0.350334  -0.000000   0.127164  -0.492518
    9  C  1  Z    0.000001   0.000001  -0.090389  -0.000005   0.000003
   10  C  1 XX   -0.007312  -0.000798   0.000000  -0.017331  -0.019683
   11  C  1 YY    0.003828  -0.000890   0.000000   0.021762   0.007975
   12  C  1 ZZ    0.003485   0.001688  -0.000000  -0.004430   0.011709
   13  C  1 XY    0.002611  -0.006578   0.000000   0.017984  -0.003902
   14  C  1 XZ   -0.000000  -0.000000  -0.016738   0.000000  -0.000000
   15  C  1 YZ    0.000000  -0.000000   0.017138  -0.000000   0.000000
   16  O  2  S   -0.040563  -0.021080   0.000000   0.080302   0.072418
   17  O  2  S    0.094767   0.051185  -0.000000  -0.176800  -0.165509
   18  O  2  X    0.057451  -0.050492   0.000000  -0.023535  -0.182385
   19  O  2  Y   -0.287218  -0.042487  -0.000000  -0.313355  -0.221138
   20  O  2  Z    0.000000  -0.000000  -0.395603  -0.000000   0.000000
   21  O  2  S    0.175019   0.109239   0.000000  -0.825098  -0.757735
   22  O  2  X    0.025916  -0.023844   0.000000   0.036765  -0.124934
   23  O  2  Y   -0.209424  -0.043663   0.000000  -0.465228  -0.349238
   24  O  2  Z   -0.000000  -0.000000  -0.301833   0.000001  -0.000000
   25  O  2 XX   -0.021700  -0.006508  -0.000000   0.014840   0.008934
   26  O  2 YY    0.011163   0.000965  -0.000000  -0.006448  -0.013141
   27  O  2 ZZ    0.010536   0.005543   0.000000  -0.008392   0.004207
   28  O  2 XY    0.005219  -0.022362  -0.000000   0.009912   0.018124
   29  O  2 XZ    0.000000   0.000000   0.022668  -0.000000   0.000000
   30  O  2 YZ   -0.000000  -0.000000   0.001802   0.000000  -0.000000
   31  O  3  S    0.003297   0.010105  -0.000000  -0.031233  -0.038131
   32  O  3  S   -0.018311  -0.035334   0.000000   0.082763   0.095527
   33  O  3  X   -0.248684   0.322734  -0.000000  -0.247806  -0.263685
   34  O  3  Y    0.515854  -0.118744   0.000000  -0.169923  -0.222984
   35  O  3  Z   -0.000000  -0.000000   0.562012  -0.000000  -0.000000
   36  O  3  S    0.022366  -0.031623  -0.000000   0.250312   0.303455
   37  O  3  X   -0.193057   0.231898  -0.000000  -0.296689  -0.329610
   38  O  3  Y    0.355291  -0.092468   0.000000  -0.212611  -0.257378
   39  O  3  Z   -0.000000  -0.000000   0.473658  -0.000000  -0.000000
   40  O  3 XX    0.006294  -0.007485  -0.000000  -0.004220  -0.003469
   41  O  3 YY   -0.007290   0.005872   0.000000   0.004872  -0.002233
   42  O  3 ZZ    0.000997   0.001612  -0.000000  -0.000652   0.005702
   43  O  3 XY   -0.007398  -0.004097  -0.000000  -0.008882  -0.009251
   44  O  3 XZ   -0.000000  -0.000000  -0.005185   0.000000  -0.000000
   45  O  3 YZ   -0.000000  -0.000000  -0.001004   0.000000  -0.000000
   46  H  4  S    0.027208   0.030227   0.055778  -0.081365   0.067673
   47  H  4  S    0.055679   0.028653   0.166762  -0.918415   0.983179
   48  H  5  S    0.027208   0.030227  -0.055777  -0.081365   0.067673
   49  H  5  S    0.055680   0.028655  -0.166760  -0.918428   0.983186

                     16         17         18         19         20
                    0.1725     0.1729     0.4931     0.5136     0.6096
                     A          A          A          A          A   
    1  C  1  S   -0.056216  -0.000016  -0.030648   0.014822   0.000002
    2  C  1  S    0.087895   0.000024   0.270877   0.034703   0.000055
    3  C  1  X    0.216228   0.000060   0.226196  -0.927576   0.000014
    4  C  1  Y   -0.203122  -0.000057  -0.911755  -0.334384  -0.000005
    5  C  1  Z   -0.000136   0.490507   0.000001  -0.000002  -0.689987
    6  C  1  S    0.602142   0.000174  -0.351788   0.040172  -0.000106
    7  C  1  X    0.909744   0.000251  -0.509273   1.273475  -0.000015
    8  C  1  Y   -0.760290  -0.000209   1.275170   0.232934  -0.000008
    9  C  1  Z   -0.000395   1.427961  -0.000001   0.000004   2.106741
   10  C  1 XX   -0.004280  -0.000001  -0.028054  -0.005252  -0.000007
   11  C  1 YY   -0.018468  -0.000005   0.038289  -0.010246  -0.000004
   12  C  1 ZZ    0.022748   0.000007  -0.010235   0.015498   0.000010
   13  C  1 XY    0.031679   0.000009   0.050358  -0.059265  -0.000003
   14  C  1 XZ   -0.000001   0.002960   0.000000  -0.000000   0.046012
   15  C  1 YZ    0.000002  -0.006605  -0.000000  -0.000000  -0.085875
   16  O  2  S    0.025944   0.000007   0.006049  -0.014157  -0.000001
   17  O  2  S   -0.027162  -0.000008  -0.077948   0.136691   0.000003
   18  O  2  X    0.515033   0.000142   0.202551  -0.152485   0.000002
   19  O  2  Y    0.046943   0.000013  -0.190465   0.153943  -0.000012
   20  O  2  Z    0.000037  -0.133017  -0.000000  -0.000000  -0.365611
   21  O  2  S   -0.564984  -0.000158   0.553190  -0.469246   0.000042
   22  O  2  X    0.901374   0.000250  -0.278310   0.075595   0.000000
   23  O  2  Y   -0.021475  -0.000007  -0.005106  -0.174096   0.000030
   24  O  2  Z    0.000073  -0.261820   0.000000  -0.000001  -0.105324
   25  O  2 XX   -0.016672  -0.000005   0.085968  -0.017696   0.000005
   26  O  2 YY    0.000903   0.000000  -0.034852  -0.031639  -0.000000
   27  O  2 ZZ    0.015769   0.000004  -0.051116   0.049334  -0.000004
   28  O  2 XY   -0.006184  -0.000002  -0.069649   0.055557  -0.000000
   29  O  2 XZ    0.000003  -0.012149  -0.000000   0.000000  -0.034200
   30  O  2 YZ   -0.000001   0.002325   0.000000  -0.000000  -0.010065
   31  O  3  S    0.055464   0.000015   0.000677   0.021691  -0.000001
   32  O  3  S   -0.153482  -0.000042  -0.030511  -0.097105   0.000017
   33  O  3  X    0.216236   0.000059  -0.002996   0.040196  -0.000015
   34  O  3  Y    0.207941   0.000057   0.001173  -0.070302   0.000009
   35  O  3  Z   -0.000017   0.060068   0.000000  -0.000000  -0.131940
   36  O  3  S   -0.463661  -0.000128   0.116502  -0.041166  -0.000027
   37  O  3  X    0.342530   0.000094  -0.065450   0.115200   0.000022
   38  O  3  Y    0.315513   0.000087  -0.020294  -0.022725   0.000003
   39  O  3  Z   -0.000012   0.044329  -0.000000   0.000000   0.074638
   40  O  3 XX   -0.007308  -0.000002  -0.016524   0.005864  -0.000003
   41  O  3 YY    0.006618   0.000002   0.029781  -0.015760   0.000002
   42  O  3 ZZ    0.000690   0.000000  -0.013258   0.009896   0.000001
   43  O  3 XY    0.002099   0.000001   0.001286  -0.006646   0.000000
   44  O  3 XZ   -0.000001   0.002204   0.000000  -0.000000  -0.005463
   45  O  3 YZ   -0.000001   0.003224   0.000000   0.000000   0.032177
   46  H  4  S    0.005878  -0.038519  -0.154744   0.169775  -0.379774
   47  H  4  S    0.224687  -1.664109  -0.058303   0.000609  -0.805145
   48  H  5  S    0.005856   0.038524  -0.154743   0.169776   0.379850
   49  H  5  S    0.223767   1.664222  -0.058305   0.000612   0.805141

                     21         22         23         24         25
                    0.6174     0.8406     0.8420     0.8747     0.8926
                     A          A          A          A          A   
    1  C  1  S   -0.021401  -0.022726  -0.000001   0.020230   0.028800
    2  C  1  S   -0.937292   0.154040   0.000011  -0.702007  -1.112491
    3  C  1  X   -0.168077  -0.152628  -0.000005   0.307882   0.230644
    4  C  1  Y    0.048484   0.139860   0.000005  -0.267921  -0.201336
    5  C  1  Z   -0.000041   0.000014  -0.881679  -0.000005  -0.000002
    6  C  1  S    1.811974  -0.384598  -0.000023   1.999289   1.999755
    7  C  1  X    0.190180   0.112289   0.000003  -0.141185  -0.365390
    8  C  1  Y    0.157850  -0.408717  -0.000009   0.284394   0.338755
    9  C  1  Z    0.000131  -0.000027   1.690325   0.000010   0.000006
   10  C  1 XX    0.099807   0.013051   0.000001   0.018693  -0.075165
   11  C  1 YY    0.056774   0.010127   0.000001  -0.031114  -0.035039
   12  C  1 ZZ   -0.156581  -0.023178  -0.000002   0.012421   0.110204
   13  C  1 XY    0.053840   0.026998   0.000001  -0.094774   0.023356
   14  C  1 XZ    0.000003   0.000002  -0.134890  -0.000001  -0.000001
   15  C  1 YZ   -0.000006  -0.000003   0.136852   0.000001   0.000000
   16  O  2  S    0.024203  -0.031281  -0.000001   0.034264  -0.020824
   17  O  2  S   -0.052131  -0.018387   0.000000  -0.316860   0.229731
   18  O  2  X   -0.029567  -0.158591  -0.000001  -0.330506   0.214327
   19  O  2  Y    0.195405  -0.464832  -0.000009   0.383073  -0.134096
   20  O  2  Z   -0.000025  -0.000005   0.214621   0.000005   0.000006
   21  O  2  S   -0.668335   1.030096   0.000016   0.287357  -0.211813
   22  O  2  X    0.002492   0.921817   0.000010   0.880485  -0.212633
   23  O  2  Y   -0.483959   1.121251   0.000019  -0.420269   0.074238
   24  O  2  Z   -0.000005   0.000008  -0.362727  -0.000006  -0.000006
   25  O  2 XX   -0.076532   0.065375   0.000001  -0.008222   0.029424
   26  O  2 YY    0.007528  -0.010639  -0.000000   0.022217  -0.013293
   27  O  2 ZZ    0.069004  -0.054736  -0.000001  -0.013995  -0.016131
   28  O  2 XY   -0.000283   0.123062   0.000002   0.013355   0.074465
   29  O  2 XZ   -0.000003  -0.000002   0.094103   0.000001   0.000000
   30  O  2 YZ   -0.000000   0.000001  -0.057183  -0.000000   0.000000
   31  O  3  S    0.021280   0.061489   0.000001   0.053332  -0.000676
   32  O  3  S   -0.268733  -0.281344  -0.000003  -0.461790   0.068155
   33  O  3  X    0.240900  -0.417219  -0.000004  -0.441638   0.230853
   34  O  3  Y   -0.135858  -0.458551  -0.000008   0.090732  -0.494605
   35  O  3  Z   -0.000009  -0.000002   0.044224   0.000003   0.000005
   36  O  3  S    0.440386  -0.828912  -0.000012   0.049298  -0.023312
   37  O  3  X   -0.352296   1.216635   0.000015   0.650025  -0.194844
   38  O  3  Y   -0.047826   1.010260   0.000016   0.181223   0.519915
   39  O  3  Z    0.000005   0.000001  -0.029602  -0.000002  -0.000004
   40  O  3 XX    0.043063  -0.069784  -0.000001  -0.014669   0.022121
   41  O  3 YY   -0.024989  -0.005107  -0.000000  -0.007535   0.010894
   42  O  3 ZZ   -0.018074   0.074891   0.000001   0.022204  -0.033015
   43  O  3 XY   -0.003994  -0.100094  -0.000001  -0.080143   0.043484
   44  O  3 XZ   -0.000000   0.000000  -0.016502  -0.000000  -0.000000
   45  O  3 YZ    0.000002   0.000000  -0.013695  -0.000000  -0.000000
   46  H  4  S   -0.565590  -0.225875   0.662582   0.259945   0.441364
   47  H  4  S   -0.051632   0.364119  -1.576695  -0.786962  -1.027056
   48  H  5  S   -0.565537  -0.225852  -0.662600   0.259937   0.441362
   49  H  5  S   -0.051535   0.364067   1.576723  -0.786945  -1.027049

                     26         27         28         29         30
                    0.9379     0.9793     1.0348     1.0527     1.3507
                     A          A          A          A          A   
    1  C  1  S    0.000000   0.012239  -0.021298   0.000000  -0.022317
    2  C  1  S   -0.000007  -0.432442  -0.903127  -0.000009  -0.524115
    3  C  1  X    0.000002   0.010047  -0.131210   0.000001   0.031698
    4  C  1  Y   -0.000002  -0.130572  -0.008772  -0.000001  -0.066409
    5  C  1  Z    0.113440  -0.000000  -0.000001   0.068030  -0.000000
    6  C  1  S    0.000015   1.053104   1.133506   0.000015   2.087914
    7  C  1  X   -0.000003  -0.051247   0.019292  -0.000001   0.817326
    8  C  1  Y    0.000004  -0.207600   0.348810   0.000003  -0.419672
    9  C  1  Z   -0.593893   0.000000   0.000006  -1.061445   0.000001
   10  C  1 XX   -0.000001   0.111383  -0.152705  -0.000001  -0.098340
   11  C  1 YY   -0.000000  -0.153257   0.111669   0.000000   0.233400
   12  C  1 ZZ    0.000001   0.041874   0.041037   0.000001  -0.135060
   13  C  1 XY   -0.000000   0.017119   0.060015   0.000000  -0.077234
   14  C  1 XZ   -0.018365  -0.000000  -0.000000  -0.071691  -0.000000
   15  C  1 YZ    0.109490   0.000000   0.000000   0.090064   0.000000
   16  O  2  S    0.000000  -0.013742  -0.020200  -0.000000  -0.030929
   17  O  2  S    0.000000   0.041155   0.190048   0.000001   0.732659
[...]

 POINT   1           X           Y           Z (BOHR)    CHARGE
                 0.000000    0.000000    0.000000        0.00 (A.U.)
         DX          DY          DZ         /D/  (DEBYE)
    -2.104680    0.697916   -0.000011    2.217377
 ...... END OF PROPERTY EVALUATION ......
 STEP CPU TIME =     0.01 TOTAL CPU TIME =       10.0 (    0.2 MIN)
 TOTAL WALL CLOCK TIME=       10.1 SECONDS, CPU UTILIZATION IS  99.50%

     ---------------------------------------------
     1ST AND 2ND INTEGRAL DERIVATIVE CONTRIBUTIONS
     ---------------------------------------------
 ...... END OF 1-ELECTRON GRAD+HESS+FOCKDER ......
 STEP CPU TIME =     0.01 TOTAL CPU TIME =       10.0 (    0.2 MIN)
 TOTAL WALL CLOCK TIME=       10.1 SECONDS, CPU UTILIZATION IS  99.41%

     ----------------------------------------------
     TWO ELECTRON INTEGRAL DERIVATIVE CONTRIBUTIONS
     ----------------------------------------------

      56723 WORDS REQUIRED,  10000000 WORDS AVAILABLE
 THE COARSE/FINE SCHWARZ SCREENINGS SKIPPED        346/       141 BLOCKS.
 THE NUMBER OF DERIVATIVE INTEGRAL BLOCKS COMPUTED WAS      8652
 STEP CPU TIME =     1.31 TOTAL CPU TIME =       11.4 (    0.2 MIN)
 TOTAL WALL CLOCK TIME=       11.4 SECONDS, CPU UTILIZATION IS  99.47%
 ...... END OF 2-ELECTRON GRAD+HESS+FOCKDER ......
 STEP CPU TIME =   107.30 TOTAL CPU TIME =      118.7 (    2.0 MIN)
 TOTAL WALL CLOCK TIME=      119.1 SECONDS, CPU UTILIZATION IS  99.64%

     -----------------------------------------
     COUPLED-PERTURBED OPEN SHELL HARTREE-FOCK
     -----------------------------------------
 THE CPHF HAS     408 INDEPENDENT ORBITAL ROTATIONS.
 SOLVING FOR   15 NUCLEAR RESPONSES AND 0 ELECTRIC FIELD RESPONSES
           -FA- WILL USE     24446 WORDS,
           -TA- WILL USE     57562 WORDS,
          -FCK- WILL USE    177142 WORDS,
 -WXY- AND -YA- WILL USE    191158 WORDS,
               THERE ARE  10000000 WORDS OF REPLICATED MEMORY AVAILABLE.
        TIME FOR -FA-   =        0.000
        TIME FOR -TA-   =        0.010
        TIME FOR -FCK-  =        7.320
 PRECONDITIONED CONJUGATE GRADIENT SOLVER     CONV. TOLERANCE=5.00E-05
             MAXIMUM          RESPONSES        NONZERO     BLOCKS
 ITER    RESPONSE ERROR        IMPROVED   AO INTEGRALS    SKIPPED
   1       5.52897E-01            15            484516        405
   2       1.35535E-01            15            484193        464
   3       8.70055E-02            15            483635        537
   4       4.20761E-02            15            483280        578
   5       2.32314E-02            15            482474        679
   6       2.39711E-02            15            482080        734
   7       7.27131E-03            15            481208        798
   8       2.94413E-03            15            479678        899
   9       1.25250E-03            15            477405       1009
  10       3.19460E-04            10            473996       1126
  11       1.91544E-04             6            467187       1383
  12       5.74952E-05             5            464526       1434
  13       2.27766E-05             4            450963       1787
 THE CPHF HAS CONVERGED AFTER 13 ITERATIONS.
 IT REQUIRED   320 FOCK-LIKE BUILDS TO FIND THE  15 SYMMETRY UNIQUE RESPONSES.
        TIME FOR -YA-   =       69.240
 ...... DONE WITH CPHF CONTRIBUTIONS ......
 STEP CPU TIME =    76.59 TOTAL CPU TIME =      195.2 (    3.3 MIN)
 TOTAL WALL CLOCK TIME=      195.9 SECONDS, CPU UTILIZATION IS  99.65%

          ---------------
          ENERGY GRADIENT
          ---------------

 UNITS ARE HARTREE/BOHR    E'X               E'Y               E'Z 
    1 C                0.000000099       0.000003128       0.000000028
    2 O               -0.000001733      -0.000001352       0.000000033
    3 O                0.000002262      -0.000002705       0.000000007
    4 H               -0.000000342       0.000000539       0.000000915
    5 H               -0.000000286       0.000000389      -0.000000983

          -------------------------------
          CARTESIAN FORCE CONSTANT MATRIX
          -------------------------------

                                   1                          2
                               C                          O         
                          X        Y        Z        X        Y        Z
  1   C            X 0.340042-0.192223-0.000000-0.141758 0.103886-0.000000
                   Y-0.192223 0.218151 0.000000 0.103120-0.122038-0.000000
                   Z-0.000000 0.000000 0.660837-0.000000-0.000000-0.053368
  2   O            X-0.141758 0.103120-0.000000 0.363945 0.018502-0.000000
                   Y 0.103886-0.122038-0.000000 0.018502 0.305113-0.000000
                   Z-0.000000-0.000000-0.053368-0.000000-0.000000 0.021481
  3   O            X-0.085893 0.003146 0.000000-0.183133-0.157004 0.000000
                   Y-0.016060 0.027901 0.000000-0.140136-0.168173 0.000000
                   Z-0.000000 0.000000-0.006688 0.000000 0.000000 0.015501
  4   H            X-0.056196 0.042979 0.059966-0.019527 0.017308 0.028928
                   Y 0.052199-0.062007-0.103931 0.009257-0.007452-0.004372
                   Z 0.073923-0.092685-0.300391-0.000563-0.000335 0.008192
  5   H            X-0.056196 0.042979-0.059966-0.019527 0.017308-0.028928
                   Y 0.052199-0.062007 0.103931 0.009256-0.007452 0.004372
                   Z-0.073923 0.092685-0.300390 0.000563 0.000334 0.008193

                                   3                          4
                               O                          H         
                          X        Y        Z        X        Y        Z
  3   O            X 0.258401 0.153889-0.000000 0.005313-0.000015-0.000954
                   Y 0.153889 0.140327-0.000000 0.001154-0.000027 0.000756
                   Z-0.000000-0.000000-0.011391-0.004306-0.005925 0.001289
  4   H            X 0.005313 0.001154-0.004306 0.062167-0.059525-0.078496
                   Y-0.000015-0.000027-0.005925-0.059525 0.059811 0.103246
                   Z-0.000954 0.000756 0.001289-0.078496 0.103246 0.300839
  5   H            X 0.005313 0.001154 0.004306 0.008243-0.001917 0.006091
                   Y-0.000015-0.000027 0.005925-0.001917 0.009674-0.010983
                   Z 0.000954-0.000756 0.001289-0.006091 0.010983-0.009931

                                   5
                               H         
                          X        Y        Z
  5   H            X 0.062167-0.059525 0.078496
                   Y-0.059525 0.059811-0.103246
                   Z 0.078496-0.103246 0.300839

          ------------------------          ----------------
          DIPOLE DERIVATIVE TENSOR          (DEBYE/ANGSTROM)
          ------------------------          ----------------

        ATOM                 MU-X           MU-Y           MU-Z
     C          D/DX     1.878924524   -1.375556157   -0.000016324
                D/DY    -1.283572706   -0.049672560    0.000012604
                D/DZ    -0.000054389   -0.000003913    1.826148580
     O          D/DX    -1.849823370   -0.332704497    0.000006324
                D/DY    -0.526899769   -0.792613914   -0.000001364
                D/DZ     0.000006003   -0.000001638   -0.757992641
     O          D/DX    -0.311517776    1.328533420   -0.000003493
                D/DY     0.761014283   -0.152641870   -0.000003871
                D/DZ     0.000004013   -0.000005508   -0.737182000
     H          D/DX     0.141279024    0.189765794   -0.178002388
                D/DY     0.524645393    0.497430337   -0.173269578
                D/DZ     0.070188963   -0.105630043   -0.165550632
     H          D/DX     0.141287018    0.189772314    0.178019616
                D/DY     0.524648883    0.497435112    0.173249528
                D/DZ    -0.070212449    0.105611695   -0.165544497

          --------------------------------------------------------
          NORMAL COORDINATE ANALYSIS IN THE HARMONIC APPROXIMATION
          --------------------------------------------------------

          ATOMIC WEIGHTS (AMU)

    1     C                12.00000
    2     O                15.99491
    3     O                15.99491
    4     H                 1.00782
    5     H                 1.00782

 * * * WARNING, MODE 1 HAS BEEN CHOSEN AS A VIBRATION
          WHILE MODE 7 IS ASSUMED TO BE A TRANSLATION/ROTATION.
 PLEASE VERIFY THE PROGRAM'S DECISION MANUALLY!


 MODE(S)     1 TO     1 TREATED AS IMAGINARY.

 MODES    2 TO    7 ARE TAKEN AS ROTATIONS AND TRANSLATIONS.

 ANALYZING SYMMETRY OF NORMAL MODES...

     FREQUENCIES IN CM**-1, IR INTENSITIES IN DEBYE**2/AMU-ANGSTROM**2,
     REDUCED MASSES IN AMU.

                            1           2           3           4           5
       FREQUENCY:       557.46 I     34.02       14.96        0.02        0.01  
        SYMMETRY:         A           A           A           A           A   
    REDUCED MASS:      1.20391     2.60394     5.69609     9.20162     9.20047
    IR INTENSITY:      0.05085     0.14563     0.10559     0.00000     0.00000

  1   C            X -0.00000019  0.00000533 -0.03089804  0.12495500  0.07089882
                   Y -0.00000023  0.00000053 -0.17260350 -0.04412327  0.01234210
                   Z -0.03168196 -0.16359962  0.00002510 -0.06456606  0.12861492
  2   O            X  0.00000005 -0.00000128  0.07727380  0.12494569  0.07086746
                   Y  0.00000002 -0.00000962  0.00057478 -0.04413700  0.01229208
                   Z  0.07947668  0.14496855  0.00004176 -0.06454247  0.12854091
  3   O            X -0.00000006  0.00000602 -0.04274235  0.12495612  0.07090248
                   Y  0.00000010 -0.00001880  0.15674510 -0.04415014  0.01224614
                   Z -0.06176359  0.01590330  0.00000001 -0.06473225  0.12888361
  4   H            X -0.39050154 -0.08541946 -0.08910268  0.12502203  0.07081294
                   Y -0.50491767  0.26410479 -0.21969357 -0.04398653  0.01209545
                   Z  0.04807724 -0.30158159 -0.00001385 -0.06460048  0.12868836
  5   H            X  0.39050340  0.08543323 -0.08912177  0.12489242  0.07101881
                   Y  0.50492023 -0.26410323 -0.21976718 -0.04425564  0.01261785
                   Z  0.04807772 -0.30158193  0.00003998 -0.06459959  0.12868869

 TRANS. SAYVETZ    X -0.00000052  0.00015364  0.00193187  5.74848687  3.26132491
                   Y  0.00000182 -0.00044676  0.00217569 -2.03055677  0.56549865
                   Z  0.00004314  0.00205195  0.00099570 -2.97274119  5.92025193
               TOTAL  0.00004318  0.00210563  0.00307526  6.78273192  6.78272893

   ROT. SAYVETZ    X -0.01430063 -4.60900191 -0.00065028 -0.00241984  0.00468644
                   Y -0.00139319 -6.92799911  0.00077711  0.00541923 -0.00864626
                   Z  0.00000217 -0.00074265 12.90330120 -0.00104652 -0.00376375
               TOTAL  0.01436833  8.32106188 12.90330124  0.00602651  0.01053026

                            6           7           8           9          10
       FREQUENCY:         0.01       14.17      365.41      600.50     1039.86  
        SYMMETRY:         A           A           A           A           A   
    REDUCED MASS:      9.19663     6.00163     1.76666     2.68813     8.96700
    IR INTENSITY:      0.00000     0.01784     0.55513     0.50597     0.51970

  1   C            X  0.03314713  0.00000189 -0.05690536  0.15513910 -0.14367294
                   Y  0.14019079 -0.00004232 -0.00014841  0.11976247  0.10551806
                   Z -0.03164615 -0.10955854  0.00000028  0.00000032 -0.00000046
  2   O            X  0.03311204  0.00001463 -0.02090182 -0.00925248  0.17348909
                   Y  0.14013346 -0.00002190  0.10038703 -0.07748284 -0.04677745
                   Z -0.03160944 -0.10034310 -0.00000052 -0.00000029  0.00000016
  3   O            X  0.03315159  0.00000040  0.11205640 -0.08085609 -0.04784390
                   Y  0.14008025 -0.00000317 -0.05669139  0.03014680 -0.03665115
                   Z -0.03166280  0.19143441  0.00000035  0.00000014  0.00000005
  4   H            X  0.03317600 -0.12183510 -0.38457239 -0.20856087 -0.14169147
                   Y  0.14026664 -0.18316391 -0.34583865 -0.33734446  0.03383686
                   Z -0.03166761 -0.07467594  0.02757039  0.05226740  0.02628148
  5   H            X  0.03316659  0.12182737 -0.38457116 -0.20855927 -0.14169444
                   Y  0.14015617  0.18307101 -0.34583428 -0.33734095  0.03383853
                   Z -0.03166729 -0.07467516 -0.02756844 -0.05226588 -0.02628073

 TRANS. SAYVETZ    X  1.52450803  0.00025531 -0.00001716  0.00000658  0.00000474
                   Y  6.44689961 -0.00100249  0.00004179  0.00004915 -0.00001148
                   Z -1.45561810 -0.00822496  0.00000251  0.00000288 -0.00000140
               TOTAL  6.78273273  0.00828976  0.00004525  0.00004968  0.00001250

   ROT. SAYVETZ    X -0.00098363  3.27193935  0.00002285  0.00001556 -0.00000034
                   Y  0.00043198 -9.98691922 -0.00000045  0.00000555 -0.00000637
                   Z -0.00435386  0.00152173 -0.01766617  0.01112236  0.00121048
               TOTAL  0.00448444 10.50924093  0.01766618  0.01112237  0.00121050

                           11          12          13          14          15
       FREQUENCY:      1066.78     1106.82     1459.46     3156.92     3303.69  
        SYMMETRY:         A           A           A           A           A   
    REDUCED MASS:     11.18031     1.23511     1.11206     1.03925     1.12933
    IR INTENSITY:      0.19264     0.15800     0.16673     0.15545     0.15231

  1   C            X  0.07557879  0.00000061 -0.07585375  0.03500427 -0.00000004
                   Y -0.05075464 -0.00000035  0.04703240 -0.03903206  0.00000005
                   Z -0.00000001 -0.10982512 -0.00000008 -0.00000024 -0.09893467
  2   O            X  0.06338734 -0.00000046 -0.01339576  0.00051016 -0.00000000
                   Y  0.14999542  0.00000022  0.00386381 -0.00041370 -0.00000000
                   Z -0.00000007  0.05857481  0.00000001 -0.00000001  0.00025805
  3   O            X -0.13187847 -0.00000001  0.01327262 -0.00113300  0.00000000
                   Y -0.10354704  0.00000001  0.00641019 -0.00023346  0.00000000
                   Z  0.00000004  0.00113930  0.00000005  0.00000002  0.00014643
  4   H            X  0.09354696  0.53371078  0.45257057 -0.20345208 -0.19141050
                   Y -0.06642879 -0.28254870 -0.36153445  0.23750874  0.24095173
                   Z  0.00990875  0.17997987  0.33151341  0.61801044  0.58578829
  5   H            X  0.09354795 -0.53371059  0.45256975 -0.20345166  0.19141099
                   Y -0.06642930  0.28254889 -0.36153343  0.23750825 -0.24095236
                   Z -0.00990926  0.17998080 -0.33151291 -0.61800920  0.58578977

 TRANS. SAYVETZ    X -0.00000513  0.00000006  0.00000828  0.00000114  0.00000004
                   Y -0.00001578 -0.00000033 -0.00000539 -0.00000192 -0.00000002
                   Z -0.00000099 -0.00000219  0.00000055 -0.00000147 -0.00000073
               TOTAL  0.00001662  0.00000222  0.00000990  0.00000268  0.00000073

   ROT. SAYVETZ    X -0.00000009 -0.00114269  0.00000230 -0.00000027  0.00041631
                   Y -0.00000478 -0.00050041 -0.00000072 -0.00000407  0.00035360
                   Z -0.00186652 -0.00000128  0.00095511 -0.00012458  0.00000013
               TOTAL  0.00186653  0.00124746  0.00095512  0.00012464  0.00054621

 REFERENCE ON SAYVETZ CONDITIONS - A. SAYVETZ, J.CHEM.PHYS., 7, 383-389(1939).

 NOTE - THE MODES J,K ARE ORTHONORMALIZED ACCORDING TO
 SUM ON I   M(I) * (X(I,J)*X(I,K) + Y(I,J)*Y(I,K) + Z(I,J)*Z(I,K)) = DELTA(J,K)

  MODE FREQ(CM**-1)  SYMMETRY  RED. MASS  IR INTENS.
     1     557.458    A        1.203908    0.050853
     2      34.016    A        2.603937    0.145632
     3      14.956    A        5.696090    0.105586
     4       0.016    A        9.201623    0.000000
     5       0.013    A        9.200473    0.000000
     6       0.005    A        9.196632    0.000000
     7      14.175    A        6.001625    0.017844
     8     365.409    A        1.766660    0.555132
     9     600.504    A        2.688133    0.505972
    10    1039.857    A        8.966996    0.519701
    11    1066.785    A       11.180311    0.192642
    12    1106.823    A        1.235114    0.157999
    13    1459.458    A        1.112059    0.166726
    14    3156.922    A        1.039254    0.155453
    15    3303.693    A        1.129334    0.152313

     -------------------------------
     THERMOCHEMISTRY AT T=  298.15 K
     -------------------------------

 USING IDEAL GAS, RIGID ROTOR, HARMONIC NORMAL MODE APPROXIMATIONS.
 P=  1.01325E+05 PASCAL.
 ALL FREQUENCIES ARE SCALED BY   1.00000
 THE MOMENTS OF INERTIA ARE (IN AMU*BOHR**2)
     31.94392   147.74063   166.49566
 THE ROTATIONAL SYMMETRY NUMBER IS  1.0
 THE ROTATIONAL CONSTANTS ARE (IN GHZ)
     56.44543    12.20442    10.82964
   1 IMAGINARY FREQUENCY VIBRATION(S) IS(ARE) EXCLUDED
     FROM THE FOLLOWING THERMOCHEMICAL ANALYSIS.
      8 -     15 VIBRATIONAL MODES ARE USED IN THERMOCHEMISTRY.
 THE HARMONIC ZERO POINT ENERGY IS (SCALED BY   1.000)
        0.027565 HARTREE/MOLECULE     6049.725248 CM**-1/MOLECULE 
       17.297050 KCAL/MOL               72.370856 KJ/MOL

               Q               LN Q
 ELEC.     1.00000E+00       0.000000
 TRANS.    1.22650E+07      16.322261
 ROT.      1.00343E+04       9.213764
 VIB.      1.30078E+00       0.262963
 TOT.      1.60088E+11      25.798988

              E         H         G         CV        CP        S
           KJ/MOL    KJ/MOL    KJ/MOL   J/MOL-K   J/MOL-K   J/MOL-K
 ELEC.      0.000     0.000     0.000     0.000     0.000     0.000
 TRANS.     3.718     6.197   -40.462    12.472    20.786   156.496
 ROT.       3.718     3.718   -22.840    12.472    12.472    89.079
 VIB.      73.931    73.931    71.719    14.978    14.978     7.420
 TOTAL     81.368    83.847     8.417    39.922    48.236   252.994
 VIB. THERMAL CORRECTION E(T)-E(0) = H(T)-H(0) =  1560.343 J/MOL

              E         H         G         CV        CP        S
         KCAL/MOL  KCAL/MOL  KCAL/MOL CAL/MOL-K CAL/MOL-K CAL/MOL-K
 ELEC.      0.000     0.000     0.000     0.000     0.000     0.000
 TRANS.     0.889     1.481    -9.671     2.981     4.968    37.403
 ROT.       0.889     0.889    -5.459     2.981     2.981    21.290
 VIB.      17.670    17.670    17.141     3.580     3.580     1.773
 TOTAL     19.447    20.040     2.012     9.541    11.529    60.467
 VIB. THERMAL CORRECTION E(T)-E(0) = H(T)-H(0) =   372.931 CAL/MOL
 ......END OF NORMAL COORDINATE ANALYSIS......
 STEP CPU TIME =     0.01 TOTAL CPU TIME =      195.3 (    3.3 MIN)
 TOTAL WALL CLOCK TIME=      195.9 SECONDS, CPU UTILIZATION IS  99.65%
              5533070  WORDS OF DYNAMIC MEMORY USED
 EXECUTION OF GAMESS TERMINATED NORMALLY Fri Jun  2 00:54:43 2017
 DDI: 263640 bytes (0.3 MB / 0 MWords) used by master data server.

 ----------------------------------------
 CPU timing information for all processes
 ========================================
 0: 195.211 + 0.43 = 195.255
 ----------------------------------------
 ddikick.x: exited gracefully.
unset echo
----- accounting info -----
Files used on the master node compute-0-7.local were:
-rw-rw-r-- 1 sarom sarom    1639 Jun  2 00:51 /scratch/criegee-udft-hess.F05
-rw-rw-r-- 1 sarom sarom 2290400 Jun  2 00:54 /scratch/criegee-udft-hess.F10
-rw-rw-r-- 1 sarom sarom  294240 Jun  2 00:53 /scratch/criegee-udft-hess.F18
-rw-rw-r-- 1 sarom sarom  982560 Jun  2 00:53 /scratch/criegee-udft-hess.F22
rm: cannot remove `/scratch/sarom': Is a directory
rm: cannot remove `/scratch/tmp': Is a directory
ls: No match.
ls: No match.
ls: No match.
Fri Jun  2 00:54:46 CDT 2017
0.254u 0.178s 3:19.47 0.2%	0+0k 8+376io 0pf+0w
Deleting shmid=2523136.
Deleting shmid=2555905.
Deleting shmid=2785282.
/opt/gridengine/default/spool/compute-0-7/active_jobs/23497.1/pe_hostfile compute-0-7.local
