----- GAMESS execution script 'rungms' -----
This job is running on host compute-3-0
under operating system Linux at Mon Nov 28 18:12:14 CST 2016
Available scratch disk space (Kbyte units) at beginning of the job is
Filesystem            1K-blocks       Used  Available Use% Mounted on
bolt.local:/export/home/sarom
                     9590469632 1552095232 7551207424  18% /home/sarom
Copying input file dft-etoh.inp to your run's scratch directory...
cp dft-etoh.inp .//dft-etoh.F05
unset echo
/home/sarom/gamessGH/ddikick.x /home/sarom/gamessGH/gamess.00.x dft-etoh -ddi 1 1 localhost -scr ./

 Distributed Data Interface kickoff program.
 Initiating 1 compute processes on 1 nodes to run the following command:
 /home/sarom/gamessGH/gamess.00.x dft-etoh 

          ******************************************************
          *         GAMESS VERSION = 18 AUG 2016 (R1)          *
          *             FROM IOWA STATE UNIVERSITY             *
          * M.W.SCHMIDT, K.K.BALDRIDGE, J.A.BOATZ, S.T.ELBERT, *
          *   M.S.GORDON, J.H.JENSEN, S.KOSEKI, N.MATSUNAGA,   *
          *          K.A.NGUYEN, S.J.SU, T.L.WINDUS,           *
          *       TOGETHER WITH M.DUPUIS, J.A.MONTGOMERY       *
          *         J.COMPUT.CHEM.  14, 1347-1363(1993)        *
          **************** 64 BIT LINUX VERSION ****************

  SINCE 1993, STUDENTS AND POSTDOCS WORKING AT IOWA STATE UNIVERSITY
  AND ALSO IN THEIR VARIOUS JOBS AFTER LEAVING ISU HAVE MADE IMPORTANT
  CONTRIBUTIONS TO THE CODE:
     IVANA ADAMOVIC, CHRISTINE AIKENS, YURI ALEXEEV, POOJA ARORA,
     ANDREY ASADCHEV, ROB BELL, PRADIPTA BANDYOPADHYAY, JONATHAN BENTZ,
     BRETT BODE, KURT BRORSEN, CALEB CARLIN, GALINA CHABAN, WEI CHEN,
     CHEOL HO CHOI, PAUL DAY, ALBERT DEFUSCO, NUWAN DESILVA, TIM DUDLEY,
     DMITRI FEDOROV, GRAHAM FLETCHER, MARK FREITAG, KURT GLAESEMANN,
     DAN KEMP, GRANT MERRILL, NORIYUKI MINEZAWA, JONATHAN MULLIN,
     TAKESHI NAGATA, SEAN NEDD, HEATHER NETZLOFF, BOSILJKA NJEGIC, RYAN OLSON,
     MIKE PAK, SPENCER PRUITT, LUKE ROSKOP, JIM SHOEMAKER, LYUDMILA SLIPCHENKO,
     TONY SMITH, SAROM SOK LEANG, JIE SONG, TETSUYA TAKETSUGU, SIMON WEBB,
     PENG XU, SOOHAENG YOO, FEDERICO ZAHARIEV

  ADDITIONAL CODE HAS BEEN PROVIDED BY COLLABORATORS IN OTHER GROUPS:
     IOWA STATE UNIVERSITY:
          JOE IVANIC, AARON WEST, LAIMUTIS BYTAUTAS, KLAUS RUEDENBERG
     UNIVERSITY OF TOKYO: KIMIHIKO HIRAO, TAKAHITO NAKAJIMA,
          TAKAO TSUNEDA, MUNEAKI KAMIYA, SUSUMU YANAGISAWA,
          KIYOSHI YAGI, MAHITO CHIBA, SEIKEN TOKURA, NAOAKI KAWAKAMI
     UNIVERSITY OF AARHUS: FRANK JENSEN
     UNIVERSITY OF IOWA: VISVALDAS KAIRYS, HUI LI
     NATIONAL INST. OF STANDARDS AND TECHNOLOGY: WALT STEVENS, DAVID GARMER
     UNIVERSITY OF PISA: BENEDETTA MENNUCCI, JACOPO TOMASI
     UNIVERSITY OF MEMPHIS: HENRY KURTZ, PRAKASHAN KORAMBATH
     UNIVERSITY OF ALBERTA: TOBY ZENG, MARIUSZ KLOBUKOWSKI
     UNIVERSITY OF NEW ENGLAND: MARK SPACKMAN
     MIE UNIVERSITY: HIROAKI UMEDA
     NAT. INST. OF ADVANCED INDUSTRIAL SCIENCE AND TECHNOLOGY: KAZUO KITAURA
     MICHIGAN STATE UNIVERSITY:
          KAROL KOWALSKI, MARTA WLOCH, JEFFREY GOUR, JESSE LUTZ,
          WEI LI, PIOTR PIECUCH
     UNIVERSITY OF SILESIA: MONIKA MUSIAL, STANISLAW KUCHARSKI
     FACULTES UNIVERSITAIRES NOTRE-DAME DE LA PAIX:
          OLIVIER QUINET, BENOIT CHAMPAGNE
     UNIVERSITY OF CALIFORNIA - SANTA BARBARA: BERNARD KIRTMAN
     INSTITUTE FOR MOLECULAR SCIENCE:
          KAZUYA ISHIMURA, MICHIO KATOUDA, AND SHIGERU NAGASE
     UNIVERSITY OF NOTRE DAME: ANNA POMOGAEVA, DAN CHIPMAN
     KYUSHU UNIVERSITY:
          HARUYUKI NAKANO,
          FENG LONG GU, JACEK KORCHOWIEC, MARCIN MAKOWSKI, AND YURIKO AOKI,
          HIROTOSHI MORI AND EISAKU MIYOSHI
     PENNSYLVANIA STATE UNIVERSITY:
          TZVETELIN IORDANOV, CHET SWALINA, JONATHAN SKONE,
          SHARON HAMMES-SCHIFFER
     WASEDA UNIVERSITY:
          MASATO KOBAYASHI, TOMOKO AKAMA, TSUGUKI TOUMA,
          TAKESHI YOSHIKAWA, YASUHIRO IKABATA, JUNJI SEINO,
          YUYA NAKAJIMA, HIROMI NAKAI
     NANJING UNIVERSITY: SHUHUA LI
     UNIVERSITY OF NEBRASKA:
          PEIFENG SU, DEJUN SI, NANDUN THELLAMUREGE, YALI WANG, HUI LI
     UNIVERSITY OF ZURICH: ROBERTO PEVERATI, KIM BALDRIDGE
     N. COPERNICUS UNIVERSITY AND JACKSON STATE UNIVERSITY:
          MARIA BARYSZ
     UNIVERSITY OF COPENHAGEN: Jimmy Kromann, CASPER STEINMANN
     TOKYO INSTITUTE OF TECHNOLOGY: HIROYA NAKATA
     NAGOYA UNIVERSITY: YOSHIO NISHIMOTO, STEPHAN IRLE
     MOSCOW STATE UNIVERSITY: VLADIMIR MIRONOV

 EXECUTION OF GAMESS BEGUN Mon Nov 28 18:12:14 2016

            ECHO OF THE FIRST FEW INPUT CARDS -
 INPUT CARD>!   closed shell functional test, on a C1 conformer of ethylalcohol.            
 INPUT CARD>!   an enormous number of functionals are scanned belo.                         
 INPUT CARD>!   results are from the "army grade" Lebedev grid.                             
 INPUT CARD>!   57 AOs used.                                                                
 INPUT CARD>!                                                                               
 INPUT CARD>!   R-M06 final E= -154.9284861081, 19 iters, RMS grad= 0.006355299             
 INPUT CARD>!                                                                               
 INPUT CARD>!   This run takes 104 seconds on 2.66 GHz Cloverton (31 Mar 2015)              
 INPUT CARD>!                                                                               
 INPUT CARD>!   -----------------------------------------------------------                 
 INPUT CARD>!   There is an analogous input file for NWchem, whose energies                 
 INPUT CARD>!   typically match the army grade result below to better than                  
 INPUT CARD>!   one microHartree, and whose gradient component dE/dz(O) can                 
 INPUT CARD>!   be matched to 1 or 2d-6 Hartree/Bohr, because the molecules                 
 INPUT CARD>!   are oriented in exactly the same way.                                       
 INPUT CARD>!                                                                               
 INPUT CARD>!   The exception is PW91, whose correlation functional from                    
 INPUT CARD>!   the DFT depository does not match NWchem, closer than an                    
 INPUT CARD>!   error of 5d-6 Hartree, this is as fifty times worse than                    
 INPUT CARD>!   the other functionals.  This is known to be due to the                      
 INPUT CARD>!   use of a published coefficient in GAMESS, but extra digits                  
 INPUT CARD>!   are used for the same coefficient inside NWchem.  This also                 
 INPUT CARD>!   affects the B97 family which uses PW91 correlation.                         
 INPUT CARD>!   Recent versions of NWchem have messed up B3PW91 due to some                 
 INPUT CARD>!   tinkering with 'xperdew91' exchange, to implement Minnesota                 
 INPUT CARD>!   functionals.                                                                
 INPUT CARD>!                                                                               
 INPUT CARD>!    RHF      E= -154.0709842950, 11 iters, r.m.s.= 0.012964418, t= 1           
 INPUT CARD>!  R-SVWN     E= -153.7213799705, 18 iters, r.m.s.= 0.005756428, t= 48          
 INPUT CARD>!  R-GILL     E= -154.1022491018, 18 iters, r.m.s.= 0.010333973, t= 85          
 INPUT CARD>!  R-OPTX     E= -154.1125708505, 18 iters, r.m.s.= 0.008791036, t= 85          
 INPUT CARD>!  R-BVWN     E= -155.7633145412, 19 iters, r.m.s.= 0.008969485, t= 97          
 INPUT CARD>!  R-BPZ81    E= -155.7546234746, 18 iters, r.m.s.= 0.008981474, t= 89          
 INPUT CARD>!  R-BP86     E= -155.0262291965, 18 iters, r.m.s.= 0.006840722, t= 91          
 INPUT CARD>!  R-BLYP     E= -154.9581393736, 18 iters, r.m.s.= 0.007911824, t= 91          
 INPUT CARD>!  R-EDF1     E= -155.0440110795, 18 iters, r.m.s.= 0.007129615, t= 86          
 INPUT CARD>!  R-BOP      E= -154.9573867724, 19 iters, r.m.s.= 0.008220145, t= 96          
 INPUT CARD>!  R-PW91     E= -154.9612645857, 19 iters, r.m.s.= 0.006760136, t= 100         
 INPUT CARD>!  R-B3PW91   E= -154.9753758100, 18 iters, r.m.s.= 0.007323770, t= 97          
 INPUT CARD>!  R-B3LYP    E= -154.9367758573, 18 iters, r.m.s.= 0.007683670, t= 95          
 INPUT CARD>!  R-B3LYP1   E= -155.0322609553, 18 iters, r.m.s.= 0.007730549, t= 96          
 INPUT CARD>!  R-X3LYP    E= -154.9584257993, 18 iters, r.m.s.= 0.007718446, t= 99          
 INPUT CARD>!  R-B97      E= -154.9758520088, 18 iters, r.m.s.= 0.007515543, t= 92          
 INPUT CARD>!  R-B97-1    E= -154.9788164239, 18 iters, r.m.s.= 0.007535207, t= 93          
 INPUT CARD>!  R-B97-2    E= -154.9755436546, 18 iters, r.m.s.= 0.007901765, t= 92          
 INPUT CARD>!  R-B97-3    E= -154.9940743493, 18 iters, r.m.s.= 0.008013269, t= 93          
 INPUT CARD>!  R-B97-D    E= -154.9309770412, 18 iters, r.m.s.= 0.007054080, t= 93          
 INPUT CARD>!  R-B97-K    E= -154.9766577424, 18 iters, r.m.s.= 0.008705705, t= 92          
 INPUT CARD>!  R-B98      E= -154.9715671949, 18 iters, r.m.s.= 0.007609255, t= 93          
 INPUT CARD>!  R-HCTH     E= -155.0233109379, 18 iters, r.m.s.= 0.006865370, t= 93          
    4000000 WORDS OF MEMORY AVAILABLE

     BASIS OPTIONS
     -------------
     GBASIS=N31          IGAUSS=       6      POLAR=POPN31  
     NDFUNC=       1     NFFUNC=       0     DIFFSP=       F
     NPFUNC=       0      DIFFS=       F     BASNAM=        


     RUN TITLE
     ---------
 ethylalchohol...AM1 structure in NWchem's orientation                           

 THE POINT GROUP OF THE MOLECULE IS C1      
 THE ORDER OF THE PRINCIPAL AXIS IS     0

 ATOM      ATOMIC                      COORDINATES (BOHR)
           CHARGE         X                   Y                   Z
 C           6.0    -2.2606851500        0.4849427100       -0.0556951100
 C           6.0     0.1383765600       -1.0615915700        0.0388300200
 O           8.0     2.3307766800        0.4618811300       -0.1307848400
 H           1.0     2.2355424800        1.6976778400        1.2048090600
 H           1.0    -3.9397568400       -0.7897227600       -0.0779991800
 H           1.0    -2.2923309900        1.6845686100       -1.7909373600
 H           1.0    -2.3959724800        1.7506611400        1.6272190300
 H           1.0     0.2749463700       -2.3611953700       -1.6349468700
 H           1.0     0.2052096200       -2.2171453200        1.8193246100

          INTERNUCLEAR DISTANCES (ANGS.)
          ------------------------------

                1 C          2 C          3 O          4 H          5 H     

   1 C       0.0000000    1.5112806 *  2.4300527 *  2.5530080 *  1.1156170 *
   2 C       1.5112806 *  0.0000000    1.4156215 *  1.9350225 *  2.1637289 *
   3 O       2.4300527 *  1.4156215 *  0.0000000    0.9642176 *  3.3837933  
   4 H       2.5530080 *  1.9350225 *  0.9642176 *  0.0000000    3.5877703  
   5 H       1.1156170 *  2.1637289 *  3.3837933    3.5877703    0.0000000  
   6 H       1.1164473 *  2.1688382 *  2.6787136 *  2.8730137 *  1.8154935 *
   7 H       1.1166199 *  2.1725075 *  2.7544522 *  2.4612243 *  1.8135106 *
   8 H       2.1833911 *  1.1236952 *  2.0121754 *  2.8192090 *  2.5188690 *
   9 H       2.1752735 *  1.1237926 *  2.0832482 *  2.3562190 *  2.5277906 *

                6 H          7 H          8 H          9 H     

   1 C       1.1164473 *  1.1166199 *  2.1833911 *  2.1752735 *
   2 C       2.1688382 *  2.1725075 *  1.1236952 *  1.1237926 *
   3 O       2.6787136 *  2.7544522 *  2.0121754 *  2.0832482 *
   4 H       2.8730137 *  2.4612243 *  2.8192090 *  2.3562190 *
   5 H       1.8154935 *  1.8135106 *  2.5188690 *  2.5277906 *
   6 H       0.0000000    1.8099798 *  2.5369318 *  3.1079906  
   7 H       1.8099798 *  0.0000000    3.1164406    2.5127028 *
   8 H       2.5369318 *  3.1164406    0.0000000    1.8298828 *
   9 H       3.1079906    2.5127028 *  1.8298828 *  0.0000000  

  * ... LESS THAN  3.000


     ATOMIC BASIS SET
     ----------------
 THE CONTRACTED PRIMITIVE FUNCTIONS HAVE BEEN UNNORMALIZED
 THE CONTRACTED BASIS FUNCTIONS ARE NOW NORMALIZED TO UNITY

  SHELL TYPE  PRIMITIVE        EXPONENT          CONTRACTION COEFFICIENT(S)

 C         

      1   S       1          3047.5248800    0.001834737132
      1   S       2           457.3695180    0.014037322813
      1   S       3           103.9486850    0.068842622264
      1   S       4            29.2101553    0.232184443216
      1   S       5             9.2866630    0.467941348435
      1   S       6             3.1639270    0.362311985337

      2   L       7             7.8682723   -0.119332419775    0.068999066591
      2   L       8             1.8812885   -0.160854151696    0.316423960957
      2   L       9             0.5442493    1.143456437840    0.744308290898

      3   L      10             0.1687145    1.000000000000    1.000000000000

      4   D      11             0.8000000    1.000000000000

 C         

      5   S      12          3047.5248800    0.001834737132
      5   S      13           457.3695180    0.014037322813
      5   S      14           103.9486850    0.068842622264
      5   S      15            29.2101553    0.232184443216
      5   S      16             9.2866630    0.467941348435
      5   S      17             3.1639270    0.362311985337

      6   L      18             7.8682723   -0.119332419775    0.068999066591
      6   L      19             1.8812885   -0.160854151696    0.316423960957
      6   L      20             0.5442493    1.143456437840    0.744308290898

      7   L      21             0.1687145    1.000000000000    1.000000000000

      8   D      22             0.8000000    1.000000000000

 O         

      9   S      23          5484.6716600    0.001831074430
      9   S      24           825.2349460    0.013950172200
      9   S      25           188.0469580    0.068445078098
      9   S      26            52.9645000    0.232714335992
      9   S      27            16.8975704    0.470192897984
      9   S      28             5.7996353    0.358520852987

     10   L      29            15.5396162   -0.110777549525    0.070874268231
     10   L      30             3.5999336   -0.148026262701    0.339752839147
     10   L      31             1.0137618    1.130767015354    0.727158577316

     11   L      32             0.2700058    1.000000000000    1.000000000000

     12   D      33             0.8000000    1.000000000000

 H         

     13   S      34            18.7311370    0.033494604338
     13   S      35             2.8253944    0.234726953484
     13   S      36             0.6401217    0.813757326146

     14   S      37             0.1612778    1.000000000000

 H         

     15   S      38            18.7311370    0.033494604338
     15   S      39             2.8253944    0.234726953484
     15   S      40             0.6401217    0.813757326146

     16   S      41             0.1612778    1.000000000000

 H         

     17   S      42            18.7311370    0.033494604338
     17   S      43             2.8253944    0.234726953484
     17   S      44             0.6401217    0.813757326146

     18   S      45             0.1612778    1.000000000000

 H         

     19   S      46            18.7311370    0.033494604338
     19   S      47             2.8253944    0.234726953484
     19   S      48             0.6401217    0.813757326146

     20   S      49             0.1612778    1.000000000000

 H         

     21   S      50            18.7311370    0.033494604338
     21   S      51             2.8253944    0.234726953484
     21   S      52             0.6401217    0.813757326146

     22   S      53             0.1612778    1.000000000000

 H         

     23   S      54            18.7311370    0.033494604338
     23   S      55             2.8253944    0.234726953484
     23   S      56             0.6401217    0.813757326146

     24   S      57             0.1612778    1.000000000000

 TOTAL NUMBER OF BASIS SET SHELLS             =   24
 NUMBER OF CARTESIAN GAUSSIAN BASIS FUNCTIONS =   57
 NUMBER OF ELECTRONS                          =   26
 CHARGE OF MOLECULE                           =    0
 SPIN MULTIPLICITY                            =    1
 NUMBER OF OCCUPIED ORBITALS (ALPHA)          =   13
 NUMBER OF OCCUPIED ORBITALS (BETA )          =   13
 TOTAL NUMBER OF ATOMS                        =    9
 THE NUCLEAR REPULSION ENERGY IS       81.5739432601

     LEBEDEV GRID-BASED DFT OPTIONS
     ------------------------------
     DFTTYP=M06     
     NRAD  =      96     NLEB  =    1202
     NRAD0 =      24     NLEB0 =     110
     SWOFF =    5.00E-03 (PURE SCF -> DFT)
     SWITCH=    3.00E-04 (COARSE -> TIGHT GRID)
     THRESH=    0.00E+00 GTHRE=    1.00E+00

 GRIMME'S EMPIRICAL DISPERSION CORRECTION= F

     $CONTRL OPTIONS
     ---------------
 SCFTYP=RHF          RUNTYP=GRADIENT     EXETYP=RUN     
 MPLEVL=       0     CITYP =NONE         CCTYP =NONE         VBTYP =NONE    
 DFTTYP=M06          TDDFT =NONE    
 MULT  =       1     ICHARG=       0     NZVAR =       0     COORD =UNIQUE  
 PP    =NONE         RELWFN=NONE         LOCAL =NONE         NUMGRD=       F
 ISPHER=      -1     NOSYM =       0     MAXIT =      30     UNITS =BOHR    
 PLTORB=       F     MOLPLT=       F     AIMPAC=       F     FRIEND=        
 NPRINT=       7     IREST =       0     GEOM  =INPUT   
 NORMF =       0     NORMP =       0     ITOL  =      20     ICUT  =       9
 INTTYP=BEST         GRDTYP=BEST         QMTTOL= 1.0E-06

     $SYSTEM OPTIONS
     ---------------
  REPLICATED MEMORY=     4000000 WORDS (ON EVERY NODE).
 DISTRIBUTED MEMDDI=           0 MILLION WORDS IN AGGREGATE,
 MEMDDI DISTRIBUTED OVER   1 PROCESSORS IS           0 WORDS/PROCESSOR.
 TOTAL MEMORY REQUESTED ON EACH PROCESSOR=     4000000 WORDS.
 TIMLIM=      525600.00 MINUTES, OR     365.0 DAYS.
 PARALL= F  BALTYP=  DLB     KDIAG=    0  COREFL= F
 MXSEQ2=     300 MXSEQ3=     150  mem10=         0

          ----------------
          PROPERTIES INPUT
          ----------------

     MOMENTS            FIELD           POTENTIAL          DENSITY
 IEMOM =       1   IEFLD =       0   IEPOT =       0   IEDEN =       0
 WHERE =COMASS     WHERE =NUCLEI     WHERE =NUCLEI     WHERE =NUCLEI  
 OUTPUT=BOTH       OUTPUT=BOTH       OUTPUT=BOTH       OUTPUT=BOTH    
 IEMINT=       0   IEFINT=       0                     IEDINT=       0
                                                       MORB  =       0
          EXTRAPOLATION IN EFFECT
          DIIS IN EFFECT
 ORBITAL PRINTING OPTION: NPREO=     1    57     2     1

     -------------------------------
     INTEGRAL TRANSFORMATION OPTIONS
     -------------------------------
     NWORD  =            0
     CUTOFF = 1.0E-09     MPTRAN =       0
     DIRTRF =       F     AOINTS =DUP     

          ----------------------
          INTEGRAL INPUT OPTIONS
          ----------------------
 NOPK  =       1 NORDER=       0 SCHWRZ=       T

     ------------------------------------------
     THE POINT GROUP IS C1 , NAXIS= 0, ORDER= 1
     ------------------------------------------

     DIMENSIONS OF THE SYMMETRY SUBSPACES ARE
 A   =   57

 ..... DONE SETTING UP THE RUN .....
 STEP CPU TIME =     0.04 TOTAL CPU TIME =        0.0 (    0.0 MIN)
 TOTAL WALL CLOCK TIME=        0.1 SECONDS, CPU UTILIZATION IS  50.00%

                    --------------------------------
                    SINGLE POINT ENERGY AND GRADIENT
                    --------------------------------

          ********************
          1 ELECTRON INTEGRALS
          ********************
 ...... END OF ONE-ELECTRON INTEGRALS ......
 STEP CPU TIME =     0.00 TOTAL CPU TIME =        0.0 (    0.0 MIN)
 TOTAL WALL CLOCK TIME=        0.1 SECONDS, CPU UTILIZATION IS  50.00%

          -------------
          GUESS OPTIONS
          -------------
          GUESS =HUCKEL            NORB  =       0          NORDER=       0
          MIX   =       F          PRTMO =       F          PUNMO =       F
          TOLZ  = 1.0E-08          TOLE  = 1.0E-05
          SYMDEN=       F          PURIFY=       F

 INITIAL GUESS ORBITALS GENERATED BY HUCKEL   ROUTINE.
 HUCKEL GUESS REQUIRES     32010 WORDS.

 SYMMETRIES FOR INITIAL GUESS ORBITALS FOLLOW.   BOTH SET(S).
    13 ORBITALS ARE OCCUPIED (    3 CORE ORBITALS).
     4=A        5=A        6=A        7=A        8=A        9=A       10=A   
    11=A       12=A       13=A       14=A       15=A       16=A       17=A   
    18=A       19=A       20=A       21=A       22=A       23=A   
 ...... END OF INITIAL ORBITAL SELECTION ......
 STEP CPU TIME =     0.00 TOTAL CPU TIME =        0.0 (    0.0 MIN)
 TOTAL WALL CLOCK TIME=        0.1 SECONDS, CPU UTILIZATION IS  44.44%

                    ----------------------
                    AO INTEGRAL TECHNOLOGY
                    ----------------------
     S,P,L SHELL ROTATED AXIS INTEGRALS, REPROGRAMMED BY
        KAZUYA ISHIMURA (IMS) AND JOSE SIERRA (SYNSTAR).
     S,P,D,L SHELL ROTATED AXIS INTEGRALS PROGRAMMED BY
        KAZUYA ISHIMURA (INSTITUTE FOR MOLECULAR SCIENCE).
     S,P,D,F,G SHELL TO TOTAL QUARTET ANGULAR MOMENTUM SUM 5,
        ERIC PROGRAM BY GRAHAM FLETCHER (ELORET AND NASA ADVANCED
        SUPERCOMPUTING DIVISION, AMES RESEARCH CENTER).
     S,P,D,F,G,L SHELL GENERAL RYS QUADRATURE PROGRAMMED BY
        MICHEL DUPUIS (PACIFIC NORTHWEST NATIONAL LABORATORY).

          --------------------
          2 ELECTRON INTEGRALS
          --------------------

 THE -PK- OPTION IS OFF, THE INTEGRALS ARE NOT IN SUPERMATRIX FORM.
 STORING   15000 INTEGRALS/RECORD ON DISK, USING 12 BYTES/INTEGRAL.
 TWO ELECTRON INTEGRAL EVALUATION REQUIRES   90696 WORDS OF MEMORY.
 SCHWARZ INEQUALITY OVERHEAD:      1652 INTEGRALS, T=        0.00
 II,JST,KST,LST =  1  1  1  1 NREC =         1 INTLOC =    1
 II,JST,KST,LST =  2  1  1  1 NREC =         1 INTLOC =    2
 II,JST,KST,LST =  3  1  1  1 NREC =         1 INTLOC =   34
 II,JST,KST,LST =  4  1  1  1 NREC =         1 INTLOC =  214
 II,JST,KST,LST =  5  1  1  1 NREC =         1 INTLOC = 1189
 II,JST,KST,LST =  6  1  1  1 NREC =         1 INTLOC = 3225
 II,JST,KST,LST =  7  1  1  1 NREC =         2 INTLOC =  973
 II,JST,KST,LST =  8  1  1  1 NREC =         3 INTLOC = 8223
 II,JST,KST,LST =  9  1  1  1 NREC =         7 INTLOC = 6155
 II,JST,KST,LST = 10  1  1  1 NREC =         8 INTLOC = 3039
 II,JST,KST,LST = 11  1  1  1 NREC =        12 INTLOC =14852
 II,JST,KST,LST = 12  1  1  1 NREC =        19 INTLOC =13246
 II,JST,KST,LST = 13  1  1  1 NREC =        34 INTLOC = 7084
 II,JST,KST,LST = 14  1  1  1 NREC =        37 INTLOC = 9949
 II,JST,KST,LST = 15  1  1  1 NREC =        41 INTLOC = 1450
 II,JST,KST,LST = 16  1  1  1 NREC =        44 INTLOC = 5039
 II,JST,KST,LST = 17  1  1  1 NREC =        48 INTLOC = 2831
 II,JST,KST,LST = 18  1  1  1 NREC =        52 INTLOC = 3424
 II,JST,KST,LST = 19  1  1  1 NREC =        56 INTLOC = 9026
 II,JST,KST,LST = 20  1  1  1 NREC =        61 INTLOC = 2042
 II,JST,KST,LST = 21  1  1  1 NREC =        66 INTLOC =  712
 II,JST,KST,LST = 22  1  1  1 NREC =        71 INTLOC = 3020
 II,JST,KST,LST = 23  1  1  1 NREC =        76 INTLOC =10527
 II,JST,KST,LST = 24  1  1  1 NREC =        82 INTLOC = 6890
 SCHWARZ INEQUALITY TEST SKIPPED        1078 INTEGRAL BLOCKS.
 TOTAL NUMBER OF NONZERO TWO-ELECTRON INTEGRALS =             1313837
         88 INTEGRAL RECORDS WERE STORED ON DISK FILE  8.
  ...... END OF TWO-ELECTRON INTEGRALS .....
 STEP CPU TIME =     0.15 TOTAL CPU TIME =        0.2 (    0.0 MIN)
 TOTAL WALL CLOCK TIME=        0.3 SECONDS, CPU UTILIZATION IS  63.33%

          --------------------------
               R-M06 SCF CALCULATION
          --------------------------

     NUCLEAR ENERGY =        81.5739432601
     MAXIT =   30     NPUNCH=    2
     EXTRAP=T  DAMP=F  SHIFT=F  RSTRCT=F  DIIS=T  DEM=F  SOSCF=F
         DENSITY MATRIX CONVERGENCE THRESHOLD=  1.00E-05
     COARSE -> FINE DFT GRID SWITCH THRESHOLD=  3.00E-04 (SWITCH IN $DFT)
                   HF -> DFT SWITCH THRESHOLD=  5.00E-03 (SWOFF IN $DFT)
     MEMORY REQUIRED FOR RHF ITERS=   1187811 WORDS.

 DFT CODE IS SWITCHING FROM THE FINE GRID NRAD= 96,  NLEB= 1202
                      TO THE COARSE GRID NRAD0= 24, NLEB0=  110

     EXCHANGE FUNCTIONAL   =M06       
     CORRELATION FUNCTIONAL=M06       
     DFT THRESHOLD         =.385E-08
     GRID CHANGE THRESHOLD =.300E-03
 FOR AN EULER-MACLAURIN QUADRATURE USING  96 RADIAL POINTS:
 SMALLEST GAUSSIAN PRIMITIVE EXPONENT=        0.1612777588 OF TYPE -S-
 ON ATOM NUMBER   4 HAS RADIAL NORMALIZATION=  1.000000
  LARGEST GAUSSIAN PRIMITIVE EXPONENT=     5484.6716600000 OF TYPE -S-
 ON ATOM NUMBER   3 HAS RADIAL NORMALIZATION=  1.000000
 DFT IS SWITCHED OFF, PERFORMING PURE SCF UNTIL SWOFF THRESHOLD IS REACHED.

 ITER EX DEM     TOTAL ENERGY        E CHANGE  DENSITY CHANGE    DIIS ERROR
          * * *   INITIATING DIIS PROCEDURE   * * *
   1  0  0     -153.6207938826  -153.6207938826   0.262187123   0.463585244
   2  1  0     -154.0419395318    -0.4211456491   0.074177148   0.054025607
   3  2  0     -154.0666748779    -0.0247353462   0.024659942   0.025155258
   4  3  0     -154.0705836927    -0.0039088148   0.011639889   0.005371082
   5  4  0     -154.0709598873    -0.0003761946   0.002742412   0.002236871
 CONVERGED TO SWOFF, SO DFT CALCULATION IS NOW SWITCHED ON.
          * * *   INITIATING DIIS PROCEDURE   * * *
   6  5  0     -154.9093936432    -0.8384337559   0.083450370   0.163228362
   7  6  0     -154.9264422353    -0.0170485921   0.031888170   0.020771763
   8  7  0     -154.9263222202     0.0001200151   0.017758503   0.022674478
   9  8  0     -154.9279604485    -0.0016382283   0.000991802   0.000944841
  10  9  0     -154.9279634651    -0.0000030166   0.000641919   0.000589724
  11 10  0     -154.9279644873    -0.0000010222   0.000108387   0.000126453
 DFT CODE IS SWITCHING BACK TO THE FINE GRID
          * * *   INITIATING DIIS PROCEDURE   * * *
  12 11  0     -154.9281998408    -0.0002353535   0.007950540   0.006581897
  13 12  0     -154.9284715810    -0.0002717402   0.002775473   0.001586817
  14 13  0     -154.9284722116    -0.0000006306   0.001491903   0.001759353
  15 14  0     -154.9284859922    -0.0000137806   0.000221502   0.000152434
  16 15  0     -154.9284860485    -0.0000000563   0.000096424   0.000102619
  17 16  0     -154.9284861074    -0.0000000589   0.000007940   0.000008298
  18 17  0     -154.9284861081    -0.0000000007   0.000001171   0.000001482
  19 18  0     -154.9284861081    -0.0000000000   0.000000619   0.000000474

          -----------------
          DENSITY CONVERGED
          -----------------
     TIME TO FORM FOCK OPERATORS=      48.8 SECONDS (       2.6 SEC/ITER)
     TIME TO SOLVE SCF EQUATIONS=       0.0 SECONDS (       0.0 SEC/ITER)

 FINAL R-M06 ENERGY IS     -154.9284861081 AFTER  19 ITERATIONS
 DFT EXCHANGE + CORRELATION ENERGY =       -15.9676851890
 TOTAL ELECTRON NUMBER             =        26.0000002006
 TOTAL KINETIC ENERGY DENSITY      =       153.3050819813

          ------------
          EIGENVECTORS
          ------------

                      1          2          3          4          5
                  -19.2227   -10.3033   -10.2548    -1.0377    -0.7537
                     A          A          A          A          A   
    1  C  1  S    0.000015   0.002742   0.991873  -0.016081  -0.160751
    2  C  1  S    0.000137  -0.000247   0.056995   0.028646   0.298748
    3  C  1  X    0.000018   0.000010  -0.000057   0.021925   0.043993
    4  C  1  Y   -0.000007  -0.000001   0.000036  -0.005714  -0.036704
    5  C  1  Z    0.000023   0.000007   0.000050   0.000853   0.003853
    6  C  1  S   -0.000301   0.004725  -0.015099   0.017186   0.280123
    7  C  1  X   -0.000056   0.002093  -0.000913   0.006591   0.000703
    8  C  1  Y    0.000126  -0.001195   0.000535   0.000933  -0.004839
    9  C  1  Z   -0.000295   0.000004  -0.000050  -0.001572   0.000067
   10  C  1 XX   -0.000057  -0.000158  -0.012447   0.003879   0.002702
   11  C  1 YY   -0.000018  -0.000180  -0.012362   0.000136   0.002157
   12  C  1 ZZ    0.000044  -0.000161  -0.012309  -0.000504   0.000287
   13  C  1 XY   -0.000006  -0.000002   0.000117  -0.002304  -0.002204
   14  C  1 XZ   -0.000016  -0.000012  -0.000002   0.000178   0.000278
   15  C  1 YZ    0.000017   0.000002   0.000006   0.000078   0.000133
   16  C  2  S    0.000005   0.992015  -0.003020  -0.073792  -0.122664
   17  C  2  S    0.000243   0.056294  -0.000475   0.135208   0.237321
   18  C  2  X    0.000336   0.000437  -0.000007   0.079781  -0.106640
   19  C  2  Y    0.000205   0.000340  -0.000044   0.063448   0.016942
   20  C  2  Z   -0.000099  -0.000025   0.000004  -0.002136  -0.005736
   21  C  2  S   -0.001898  -0.015438   0.004217   0.056885   0.205938
   22  C  2  X   -0.001232   0.000940  -0.001728  -0.001136  -0.029015
   23  C  2  Y   -0.000452  -0.001003   0.001127  -0.000736  -0.004153
   24  C  2  Z    0.000569   0.000217  -0.000107   0.006289   0.005083
   25  C  2 XX    0.000238  -0.012161  -0.000150   0.008675  -0.001009
   26  C  2 YY    0.000124  -0.012124  -0.000136   0.002213  -0.002247
   27  C  2 ZZ    0.000010  -0.012017  -0.000090  -0.006628  -0.000023
   28  C  2 XY    0.000132   0.000175   0.000016   0.015124  -0.011625
   29  C  2 XZ   -0.000015  -0.000010  -0.000008  -0.000591  -0.000616
   30  C  2 YZ   -0.000026   0.000021   0.000000   0.000274  -0.000062
   31  O  3  S    0.992386  -0.000138  -0.000028  -0.202615   0.054672
   32  O  3  S    0.027080  -0.000303  -0.000135   0.450349  -0.123660
   33  O  3  X   -0.000695   0.000041   0.000053  -0.084531  -0.060382
   34  O  3  Y    0.000202   0.000052  -0.000006   0.009716  -0.068177
   35  O  3  Z    0.000777   0.000025  -0.000007   0.075559  -0.044147
   36  O  3  S    0.012865   0.002652   0.000258   0.427822  -0.154120
   37  O  3  X   -0.000416  -0.000508  -0.000054  -0.042325  -0.026698
   38  O  3  Y   -0.000366  -0.000297   0.000025   0.005513  -0.033035
   39  O  3  Z   -0.000073  -0.000104   0.000064   0.037711  -0.022893
   40  O  3 XX   -0.008707  -0.000448  -0.000024   0.006161   0.008541
   41  O  3 YY   -0.008666  -0.000344  -0.000059   0.007295  -0.002576
   42  O  3 ZZ   -0.008684  -0.000106  -0.000165   0.007836  -0.005347
   43  O  3 XY    0.000001  -0.000267  -0.000034   0.006160   0.003618
   44  O  3 XZ    0.000029   0.000034  -0.000010  -0.006059  -0.000904
   45  O  3 YZ    0.000021   0.000005   0.000013   0.012972  -0.007035
   46  H  4  S    0.000440  -0.000006  -0.000080   0.128659  -0.067870
   47  H  4  S   -0.001259   0.000367  -0.000014  -0.003284  -0.011510
   48  H  5  S    0.000050  -0.000139  -0.000002   0.004256   0.094680
   49  H  5  S   -0.000082   0.000043   0.002298  -0.000051   0.015964
   50  H  6  S    0.000027  -0.000197   0.000021   0.006168   0.088964
   51  H  6  S   -0.000156   0.000077   0.002317   0.000257   0.014362
   52  H  7  S   -0.000015  -0.000172   0.000006   0.005807   0.091412
   53  H  7  S    0.000285   0.000082   0.002343   0.004391   0.018258
   54  H  8  S    0.000155   0.000058  -0.000148   0.023096   0.070081
   55  H  8  S    0.000240   0.002409   0.000025   0.004557   0.013480
   56  H  9  S    0.000029   0.000044  -0.000139   0.022447   0.068453
   57  H  9  S   -0.000078   0.002290   0.000057  -0.001727   0.008551

                      6          7          8          9         10
                   -0.6254    -0.5063    -0.4573    -0.4407    -0.3858
                     A          A          A          A          A   
    1  C  1  S    0.108553   0.025746   0.001530   0.011975   0.005250
    2  C  1  S   -0.202816  -0.046982  -0.004731  -0.018372  -0.012708
    3  C  1  X    0.086627   0.060978  -0.093117   0.310891  -0.029754
    4  C  1  Y   -0.070157  -0.111030  -0.182650  -0.004705   0.297703
    5  C  1  Z   -0.006261   0.116319  -0.182011  -0.134445  -0.249454
    6  C  1  S   -0.252385  -0.090231   0.003182  -0.049297  -0.015911
    7  C  1  X    0.018309   0.017592  -0.042507   0.150161  -0.020351
    8  C  1  Y   -0.023173  -0.043020  -0.087477   0.017840   0.152619
    9  C  1  Z   -0.003406   0.046008  -0.083224  -0.071803  -0.144930
   10  C  1 XX    0.006446   0.001337   0.002002   0.002374  -0.012578
   11  C  1 YY   -0.000088   0.001799   0.003949  -0.004115   0.002584
   12  C  1 ZZ   -0.005154  -0.004777  -0.006590  -0.002167   0.012668
   13  C  1 XY   -0.009420  -0.004716   0.002952  -0.011397  -0.002540
   14  C  1 XZ   -0.000177   0.004407  -0.002931  -0.001110   0.001609
   15  C  1 YZ   -0.000681   0.001581  -0.005463  -0.004527  -0.011466
   16  C  2  S   -0.124028  -0.044217  -0.001099  -0.029956  -0.003850
   17  C  2  S    0.248038   0.083522   0.001073   0.067876  -0.000121
   18  C  2  X    0.108084  -0.156641  -0.142344  -0.174167   0.143727
   19  C  2  Y   -0.092080  -0.120149  -0.213432   0.197123  -0.181655
   20  C  2  Z   -0.025485   0.231968  -0.204388  -0.133431   0.054591
   21  C  2  S    0.266949   0.125185   0.008288   0.059198   0.040869
   22  C  2  X    0.013846  -0.065332  -0.051312  -0.079600   0.062636
   23  C  2  Y   -0.035860  -0.034745  -0.101083   0.078294  -0.071901
   24  C  2  Z   -0.006698   0.112515  -0.110774  -0.049592   0.041849
   25  C  2 XX   -0.006777  -0.015152  -0.006602  -0.009860  -0.010990
   26  C  2 YY   -0.005220   0.001249  -0.002261   0.008872   0.004316
   27  C  2 ZZ    0.005025   0.009147   0.009609  -0.004481   0.008850
   28  C  2 XY    0.006825  -0.009449  -0.009102  -0.005102  -0.001882
   29  C  2 XZ   -0.004051   0.007775   0.003425   0.003885   0.011503
   30  C  2 YZ   -0.000600  -0.000216   0.006395   0.003610  -0.001350
   31  O  3  S    0.024923   0.039254  -0.023695   0.035206   0.027305
   32  O  3  S   -0.055935  -0.089580   0.044050  -0.078553  -0.055747
   33  O  3  X   -0.107069   0.083933   0.233539  -0.171670   0.048210
   34  O  3  Y   -0.221922   0.217150   0.167172   0.223171  -0.031931
   35  O  3  Z   -0.096510   0.273496  -0.044067   0.018098   0.208173
   36  O  3  S   -0.082692  -0.143381   0.111215  -0.136519  -0.135120
   37  O  3  X   -0.049384   0.037112   0.132662  -0.117667   0.035794
   38  O  3  Y   -0.108013   0.107031   0.092698   0.135421  -0.023691
   39  O  3  Z   -0.046794   0.151493  -0.026112   0.005602   0.135404
   40  O  3 XX    0.008959  -0.006314  -0.015077   0.014731  -0.005809
   41  O  3 YY   -0.001680   0.001932   0.006587  -0.002365   0.003864
   42  O  3 ZZ   -0.007773   0.016345  -0.001580  -0.001875   0.014777
   43  O  3 XY    0.010899  -0.005568  -0.000004  -0.011242   0.001868
   44  O  3 XZ   -0.000010  -0.010226   0.013194  -0.005070  -0.005380
   45  O  3 YZ   -0.012238   0.008296   0.011220   0.009299  -0.000940
   46  H  4  S   -0.131679   0.172189   0.060933   0.078356   0.065258
   47  H  4  S   -0.052681   0.099073   0.042201   0.049256   0.053558
   48  H  5  S   -0.090989  -0.013481   0.109474  -0.162270  -0.112564
   49  H  5  S   -0.036778  -0.005422   0.076294  -0.109863  -0.096274
   50  H  6  S   -0.094159  -0.107497   0.026690   0.050177   0.250335
   51  H  6  S   -0.031801  -0.064423   0.022125   0.031759   0.195051
   52  H  7  S   -0.104103  -0.007828  -0.149963  -0.092235  -0.015750
   53  H  7  S   -0.040344   0.005141  -0.110235  -0.061906  -0.003645
   54  H  8  S    0.123190  -0.017553   0.165661   0.016807   0.057790
   55  H  8  S    0.042126  -0.006704   0.103785   0.008952   0.050590
   56  H  9  S    0.103183   0.170658  -0.030150  -0.099831   0.102709
   57  H  9  S    0.034908   0.096927  -0.014705  -0.086428   0.086252

                     11         12         13         14         15
                   -0.3759    -0.3309    -0.2762     0.0873     0.1321
                     A          A          A          A          A   
    1  C  1  S    0.002629  -0.017705  -0.026595   0.059001  -0.092314
    2  C  1  S   -0.008290   0.036677   0.058932  -0.075494   0.119206
    3  C  1  X    0.125749   0.183462   0.170018   0.090845  -0.104637
    4  C  1  Y    0.215966  -0.040274  -0.068063  -0.071921   0.041746
    5  C  1  Z    0.223920  -0.130630   0.034571  -0.068605  -0.092211
    6  C  1  S    0.000224   0.084161   0.138792  -0.829768   1.509747
    7  C  1  X    0.077487   0.090383   0.062166   0.313237  -0.232662
    8  C  1  Y    0.107848  -0.041985  -0.084137  -0.280214   0.242439
    9  C  1  Z    0.127845  -0.044372  -0.012732  -0.157289  -0.214404
   10  C  1 XX   -0.011990  -0.001980  -0.000270   0.007983   0.005072
   11  C  1 YY    0.003079  -0.000062   0.000492  -0.002881  -0.003636
   12  C  1 ZZ    0.008352   0.000073  -0.000766   0.004481  -0.011144
   13  C  1 XY   -0.010039  -0.006725  -0.006081   0.010806   0.000110
   14  C  1 XZ   -0.003740   0.006166  -0.001772   0.002415  -0.000166
   15  C  1 YZ    0.012929  -0.012908   0.005259   0.000978   0.002934
   16  C  2  S   -0.002099   0.005245  -0.002559   0.036990  -0.069213
   17  C  2  S    0.001708  -0.009022   0.011026  -0.044500   0.121617
   18  C  2  X   -0.085282  -0.179709  -0.092341   0.090692   0.111895
   19  C  2  Y   -0.165632   0.061065   0.110314   0.140361  -0.091725
   20  C  2  Z   -0.121460   0.245514  -0.133559  -0.048365  -0.085261
   21  C  2  S    0.014697  -0.017302   0.004773  -0.640990   0.946551
   22  C  2  X   -0.014580  -0.033856   0.012017   0.203941   0.387452
   23  C  2  Y   -0.080768   0.028817   0.049357   0.362581  -0.342982
   24  C  2  Z   -0.082954   0.086783  -0.027258  -0.067548  -0.217685
   25  C  2 XX   -0.014181   0.007307   0.021573   0.000833  -0.000277
   26  C  2 YY    0.004820  -0.007988  -0.013933  -0.004364  -0.000315
   27  C  2 ZZ    0.009969   0.000794  -0.008686   0.012079  -0.000359
   28  C  2 XY   -0.013763  -0.011608  -0.010484  -0.005374  -0.012487
   29  C  2 XZ   -0.009407  -0.002730   0.010622  -0.001398  -0.000048
   30  C  2 YZ    0.007285  -0.021073   0.017893  -0.000424  -0.003832
   31  O  3  S   -0.019456  -0.051426   0.002419   0.070236   0.059418
   32  O  3  S    0.037803   0.101167   0.001371  -0.088802  -0.054779
   33  O  3  X    0.230168   0.297490   0.277712   0.073851   0.045327
   34  O  3  Y    0.117330  -0.082587  -0.351134  -0.146385  -0.017410
   35  O  3  Z   -0.175878  -0.239290   0.354572  -0.164032  -0.136477
   36  O  3  S    0.077167   0.248654  -0.039373  -0.875589  -0.807795
   37  O  3  X    0.150538   0.217271   0.228018   0.122171   0.123163
   38  O  3  Y    0.076902  -0.048373  -0.273438  -0.275975  -0.014837
   39  O  3  Z   -0.123566  -0.164366   0.279630  -0.309444  -0.217913
   40  O  3 XX   -0.009618  -0.012626  -0.012141   0.025599   0.028381
   41  O  3 YY    0.007736  -0.003684  -0.005395   0.025602   0.035989
   42  O  3 ZZ   -0.008102  -0.014341   0.024320   0.023106   0.019731
   43  O  3 XY   -0.000244   0.005007   0.013507   0.001160   0.004268
   44  O  3 XZ    0.015417   0.014336  -0.000113   0.009796   0.009185
   45  O  3 YZ    0.006262  -0.009452  -0.006972  -0.010167  -0.000992
   46  H  4  S   -0.006606  -0.129871   0.005955   0.096742   0.096760
   47  H  4  S    0.024465  -0.106730   0.007245   1.086824   0.784715
   48  H  5  S   -0.171101  -0.076235  -0.051627   0.071777   0.014367
   49  H  5  S   -0.145198  -0.090244  -0.101146   0.530716  -0.610132
   50  H  6  S   -0.046328   0.088736  -0.035308  -0.009851  -0.078190
   51  H  6  S   -0.028162   0.102034  -0.085922   0.259300  -1.006525
   52  H  7  S    0.214665  -0.097560   0.018840  -0.002791  -0.031747
   53  H  7  S    0.188679  -0.125329   0.027126   0.621563  -0.491595
   54  H  8  S    0.138808  -0.193872   0.033925  -0.003390  -0.064657
   55  H  8  S    0.113310  -0.192105   0.046336   0.301905  -0.953549
   56  H  9  S   -0.002115   0.124468  -0.170042   0.023146   0.007527
   57  H  9  S    0.003749   0.141117  -0.205084   0.530940  -0.363028

                     16         17         18         19         20
                    0.1437     0.1564     0.1686     0.1920     0.2283
                     A          A          A          A          A   
    1  C  1  S    0.061204  -0.055124   0.057670  -0.005510   0.066500
    2  C  1  S   -0.062538   0.056056  -0.068024  -0.001795  -0.025781
    3  C  1  X   -0.065259   0.030747   0.246796   0.046723  -0.059240
    4  C  1  Y   -0.185226   0.102782   0.235056   0.023204  -0.032263
    5  C  1  Z   -0.179082  -0.196170  -0.082571   0.275715   0.018353
    6  C  1  S   -1.043015   0.892384  -0.908042   0.136181  -1.254699
    7  C  1  X   -0.272719   0.120857   0.764979   0.210762  -0.975124
    8  C  1  Y   -0.449222   0.122779   0.953862   0.080820  -0.138609
    9  C  1  Z   -0.459305  -0.513241  -0.261225   1.228869   0.119085
   10  C  1 XX   -0.008913  -0.001020   0.010223  -0.002618   0.027235
   11  C  1 YY    0.012895  -0.007931   0.009573   0.003325  -0.020278
   12  C  1 ZZ    0.005788  -0.000636  -0.010075  -0.000718   0.004623
   13  C  1 XY   -0.010347   0.003348   0.002354   0.001732  -0.009026
   14  C  1 XZ   -0.008252  -0.010251  -0.001362  -0.019373  -0.006303
   15  C  1 YZ    0.007158   0.011285   0.004048  -0.005882   0.003520
   16  C  2  S   -0.029552   0.079927  -0.055280   0.017305  -0.120979
   17  C  2  S    0.025145  -0.097174   0.087725  -0.011516   0.131732
   18  C  2  X   -0.121234   0.001450   0.009067  -0.001920   0.134923
   19  C  2  Y   -0.178748   0.156335  -0.074073  -0.052362   0.249805
   20  C  2  Z   -0.185879  -0.220448  -0.034498  -0.341508  -0.094163
   21  C  2  S    0.596334  -1.286246   0.813342  -0.298656   2.045092
   22  C  2  X   -0.412384   0.100471  -0.203136   0.010197   0.522428
   23  C  2  Y   -0.317591   0.349108  -0.555713  -0.274690   1.269423
   24  C  2  Z   -0.436310  -0.516632  -0.059940  -1.214030  -0.390206
   25  C  2 XX    0.005976   0.001467  -0.017932   0.004970  -0.009021
   26  C  2 YY   -0.011757   0.008393   0.012258   0.002227  -0.008620
   27  C  2 ZZ   -0.005837   0.004349  -0.007154  -0.004442   0.024773
   28  C  2 XY    0.014633  -0.001402  -0.009238   0.000163  -0.011423
   29  C  2 XZ    0.008579   0.013603   0.007110  -0.012658   0.004835
   30  C  2 YZ   -0.008582  -0.008537  -0.002147  -0.000786   0.002793
   31  O  3  S   -0.028128  -0.021081  -0.009027   0.002667   0.058109
   32  O  3  S    0.063353   0.018877  -0.024019  -0.017878  -0.043891
   33  O  3  X   -0.102444  -0.004977   0.081673  -0.033578   0.251500
   34  O  3  Y   -0.064176   0.049546   0.030080  -0.064090   0.240614
   35  O  3  Z    0.031138   0.089587   0.036438   0.067876   0.072873
   36  O  3  S    0.279006   0.303556   0.280234   0.027430  -0.952719
   37  O  3  X   -0.171428  -0.006596   0.005315  -0.070044   0.695266
   38  O  3  Y   -0.109549   0.063969   0.058740  -0.076719   0.533206
   39  O  3  Z    0.075458   0.214236   0.079596   0.154527   0.152770
   40  O  3 XX    0.000464  -0.010633  -0.004310  -0.004794   0.008783
   41  O  3 YY    0.000364  -0.015785  -0.010748  -0.001818   0.024210
   42  O  3 ZZ    0.000115  -0.003057  -0.020123  -0.000033   0.035819
   43  O  3 XY    0.005807  -0.004013   0.002274   0.001429  -0.002197
   44  O  3 XZ    0.000541   0.001241   0.000078   0.008382   0.009640
   45  O  3 YZ   -0.000301   0.004103   0.000154   0.003146   0.003886
   46  H  4  S   -0.000587  -0.042588  -0.039178   0.037446  -0.033925
   47  H  4  S    0.015500  -0.460132  -0.217818   0.172530  -0.609301
   48  H  5  S   -0.080567  -0.000207   0.120571   0.005772   0.024089
   49  H  5  S   -0.404477  -0.044990   1.822286   0.206066  -0.214788
   50  H  6  S    0.009632  -0.102825  -0.058778   0.069549  -0.029912
   51  H  6  S    0.195296  -1.180396  -0.573514   1.025733   0.469649
   52  H  7  S    0.125905   0.049769   0.003652  -0.061199  -0.007731
   53  H  7  S    1.398023   0.175100   0.043585  -1.154162   0.327796
   54  H  8  S   -0.119679  -0.001443  -0.050604  -0.052995   0.043174
   55  H  8  S   -1.056677   0.180759  -0.712580  -1.126021  -0.371524
   56  H  9  S    0.016323   0.122977  -0.012113   0.027397   0.055951
   57  H  9  S    0.117414   1.483687  -0.460426   1.090796   0.234889

                     21         22         23         24         25
                    0.2556     0.5281     0.5615     0.5641     0.5954
                     A          A          A          A          A   
    1  C  1  S   -0.058691   0.002027   0.002058  -0.001528   0.014345
    2  C  1  S    0.020420   0.079435   0.005169   0.058523  -0.152351
    3  C  1  X    0.179664   0.424161  -0.038324   0.192637  -0.656093
    4  C  1  Y   -0.232595  -0.475555   0.255877   0.286681  -0.286836
    5  C  1  Z   -0.007469   0.073514   0.515027  -0.364809  -0.082570
    6  C  1  S    1.332313   0.421785  -0.271958  -0.401410   0.237067
    7  C  1  X    1.313989  -0.452537  -0.142707  -0.584772   1.249645
    8  C  1  Y   -1.120818   0.663880  -0.491988  -0.667584   0.724996
    9  C  1  Z   -0.003210  -0.115486  -0.951571   0.667111   0.148519
   10  C  1 XX   -0.012751   0.049468  -0.028633  -0.041807   0.050470
   11  C  1 YY   -0.007552   0.020959   0.000961  -0.007494   0.020502
   12  C  1 ZZ    0.013621  -0.040372   0.021244   0.043206  -0.083078
   13  C  1 XY    0.028015  -0.049142   0.002044  -0.000739   0.050418
   14  C  1 XZ   -0.003596   0.002228  -0.007319  -0.000205   0.000203
   15  C  1 YZ    0.003413   0.005385   0.083997  -0.053078  -0.007499
   16  C  2  S    0.041483   0.038383   0.000504   0.009589   0.001187
   17  C  2  S   -0.019516  -0.157090  -0.168183  -0.286961  -0.089628
   18  C  2  X    0.363198  -0.609925  -0.202621  -0.347982  -0.355497
   19  C  2  Y   -0.183348   0.090384  -0.420420  -0.666153  -0.138758
   20  C  2  Z    0.025660   0.034204   0.177061  -0.085910  -0.002823
   21  C  2  S   -1.102487   0.419503   0.337517   0.668037  -0.300100
   22  C  2  X    1.622494   1.013589   0.327790   0.663917   0.202382
   23  C  2  Y   -0.748300  -0.441877   0.953334   1.519540  -0.162767
   24  C  2  Z    0.015654  -0.039098  -0.231933   0.074598  -0.040692
   25  C  2 XX    0.007768   0.080241   0.004750   0.020637  -0.060284
   26  C  2 YY    0.007514   0.028486  -0.024285  -0.023910   0.004378
   27  C  2 ZZ   -0.009258  -0.065459   0.024265   0.012502   0.022665
   28  C  2 XY   -0.019399  -0.032696   0.041851   0.031898   0.042263
   29  C  2 XZ    0.005661   0.001030   0.021255  -0.026892   0.005989
   30  C  2 YZ   -0.002996  -0.017887  -0.052309   0.026003   0.012733
   31  O  3  S    0.011689  -0.005111   0.006783   0.002469  -0.020482
   32  O  3  S   -0.029897   0.044447   0.044107   0.192715  -0.000470
   33  O  3  X    0.019227  -0.187067  -0.112777  -0.186990   0.112436
   34  O  3  Y    0.178782  -0.026987  -0.097681  -0.034461  -0.111852
   35  O  3  Z    0.049327  -0.005092   0.065569  -0.028781   0.131588
   36  O  3  S   -0.124497  -0.290696  -0.509859  -0.922624   0.224844
   37  O  3  X    0.037030  -0.034616   0.207192   0.289397  -0.123246
   38  O  3  Y    0.428948   0.163963   0.015882   0.018327   0.034030
   39  O  3  Z    0.085971  -0.011072  -0.009963  -0.055015   0.042198
   40  O  3 XX   -0.009963  -0.027458  -0.035971  -0.023011   0.007831
   41  O  3 YY    0.013567   0.000032   0.001938   0.047307  -0.048670
   42  O  3 ZZ   -0.007145   0.016487   0.048561   0.102451  -0.011618
   43  O  3 XY   -0.011729  -0.061901  -0.037495  -0.057544  -0.059618
   44  O  3 XZ   -0.000911   0.000259   0.015492  -0.008201  -0.005240
   45  O  3 YZ    0.003948   0.006722  -0.003429   0.012858  -0.017358
   46  H  4  S   -0.025234   0.063160   0.087292   0.139562  -0.184342
   47  H  4  S   -0.493625  -0.076337  -0.057349  -0.276192  -0.171247
   48  H  5  S    0.080048  -0.025300  -0.002220  -0.048696   0.478201
   49  H  5  S   -0.022210   0.098024  -0.056445  -0.131136   0.289891
   50  H  6  S    0.043687  -0.183005  -0.301533   0.281352  -0.133180
   51  H  6  S    0.313832  -0.066692  -0.017015   0.128618  -0.035289
   52  H  7  S    0.075411  -0.098941   0.390904  -0.165660  -0.176394
   53  H  7  S    0.477646  -0.050719   0.117410   0.036844  -0.069782
   54  H  8  S   -0.037157  -0.117987  -0.193343   0.241255   0.175730
   55  H  8  S   -0.326387  -0.045067   0.173679   0.145507  -0.178757
   56  H  9  S   -0.021551  -0.034309   0.328141  -0.042632   0.095169
   57  H  9  S   -0.288178  -0.055680   0.025157   0.183185  -0.050475

                     26         27         28         29         30
                    0.6624     0.6877     0.7858     0.8107     0.8469
                     A          A          A          A          A   
    1  C  1  S    0.039583   0.005104  -0.016803  -0.038849  -0.015004
    2  C  1  S   -0.288153  -0.028242   0.070968   0.178670   0.092799
    3  C  1  X   -0.449349  -0.027976   0.035684  -0.334723   0.357055
    4  C  1  Y    0.512556   0.053107   0.040927  -0.139351   0.572243
    5  C  1  Z   -0.102603   0.586883   0.204555  -0.144730  -0.411588
    6  C  1  S    1.081677   0.121669  -0.098536  -0.377490   0.012484
    7  C  1  X    1.001269   0.117317  -0.205538   0.269314  -0.528840
    8  C  1  Y   -1.220446  -0.192597  -0.031035   0.484830  -0.924443
    9  C  1  Z    0.249139  -1.647099  -0.281364   0.143441   0.616660
   10  C  1 XX    0.029362   0.000674  -0.011138  -0.010165   0.092461
   11  C  1 YY   -0.009142  -0.000824   0.004700   0.028123   0.008082
   12  C  1 ZZ   -0.007817   0.001927   0.006133  -0.007265  -0.089179
   13  C  1 XY   -0.095553  -0.005106  -0.002923  -0.054099   0.062569
   14  C  1 XZ   -0.003880   0.066758   0.034637  -0.008305  -0.005486
   15  C  1 YZ   -0.007236   0.016152  -0.013744   0.015947   0.078280
   16  C  2  S   -0.045293  -0.000664   0.005703  -0.042382   0.010496
   17  C  2  S    0.252956   0.010522  -0.043201   0.296273  -0.070243
   18  C  2  X   -0.605833  -0.106615   0.035713   0.118113   0.009782
   19  C  2  Y    0.443127  -0.046485  -0.127033  -0.484762   0.054627
   20  C  2  Z    0.045751  -0.780722   0.668165  -0.241819  -0.247955
   21  C  2  S   -0.796915  -0.108033   0.180829  -0.700027   0.113607
   22  C  2  X    1.529880   0.190036   0.001554  -0.259923   0.072542
   23  C  2  Y   -1.023401   0.036822   0.178863   0.571975  -0.293517
   24  C  2  Z   -0.143861   2.132890  -1.265639   0.519132   0.481901
   25  C  2 XX   -0.034345  -0.018499   0.037324   0.068832  -0.028507
   26  C  2 YY    0.015562   0.010822   0.034688  -0.012325   0.072427
   27  C  2 ZZ    0.006378  -0.004155  -0.038292  -0.049459  -0.039956
   28  C  2 XY    0.077049  -0.000939   0.032686  -0.012499   0.004391
   29  C  2 XZ   -0.000503   0.000428   0.032890   0.022263   0.046903
   30  C  2 YZ   -0.001846   0.082366   0.118150  -0.021781  -0.031686
   31  O  3  S    0.010330  -0.009636  -0.014373  -0.001403  -0.016669
   32  O  3  S   -0.138795   0.162867   0.037307  -0.233886   0.069978
   33  O  3  X   -0.103288   0.000540  -0.198798   0.065715  -0.113739
   34  O  3  Y    0.086445   0.142004   0.092855   0.107331   0.045668
   35  O  3  Z    0.004927  -0.175405   0.100994   0.140186   0.137475
   36  O  3  S   -0.026358  -0.177575  -0.126134   0.478413   0.003132
   37  O  3  X    0.056807  -0.044523   0.240103  -0.007664   0.008030
   38  O  3  Y    0.182824  -0.049415   0.137577  -0.070013   0.100084
   39  O  3  Z    0.020656  -0.109458   0.190248  -0.121821  -0.082904
   40  O  3 XX   -0.020446   0.066874   0.003309  -0.091396   0.031671
   41  O  3 YY   -0.064738   0.037766  -0.023506  -0.047932  -0.010089
   42  O  3 ZZ   -0.038240   0.040057  -0.014379  -0.077793  -0.023215
   43  O  3 XY   -0.032835  -0.004619  -0.013724  -0.003936   0.006735
   44  O  3 XZ   -0.000157   0.001965  -0.033380   0.001944   0.010094
   45  O  3 YZ    0.000234  -0.019016  -0.112826  -0.015302  -0.051348
   46  H  4  S   -0.011454  -0.205906  -0.621798  -0.065414  -0.407829
   47  H  4  S   -0.040611   0.015047   0.452193  -0.188237   0.380008
   48  H  5  S   -0.096662   0.024101  -0.139766  -0.531262   0.487443
   49  H  5  S    0.124767  -0.025218  -0.000413   0.744324  -1.198156
   50  H  6  S    0.204606   0.067439  -0.075024  -0.366644  -0.740582
   51  H  6  S    0.286504  -0.603697  -0.218252   0.144446   1.444944
   52  H  7  S    0.191871  -0.012167  -0.128256  -0.219120  -0.089502
   53  H  7  S    0.157719   0.673437   0.255178  -0.208864   0.014906
   54  H  8  S   -0.218432   0.203006   0.430251  -0.716152  -0.124087
   55  H  8  S   -0.342477   0.634767  -1.108720   1.176268   0.239136
   56  H  9  S   -0.227928  -0.223171  -0.627034  -0.458637   0.067995
   57  H  9  S   -0.174297  -0.673828   1.319834   0.348543  -0.571382

                     31         32         33         34         35
                    0.8479     0.8768     0.8876     0.9750     1.0250
                     A          A          A          A          A   
    1  C  1  S   -0.010572  -0.018490  -0.047601  -0.030231  -0.036348
    2  C  1  S    0.122653   0.234914   0.702672  -0.974228  -0.971145
    3  C  1  X    0.092451  -0.049820  -0.326938   0.095537   0.127242
    4  C  1  Y    0.447727   0.063744   0.156102   0.018745   0.007310
    5  C  1  Z    0.457286   0.342820  -0.094886   0.045572  -0.010599
    6  C  1  S   -0.079280  -0.517132  -1.423840   1.777413   2.599741
    7  C  1  X   -0.046007   0.010475   0.470669  -0.541240  -0.440507
    8  C  1  Y   -0.662668  -0.092215  -0.373278   0.322131  -0.203776
    9  C  1  Z   -0.630981  -0.361016   0.049310  -0.391298   0.342804
   10  C  1 XX    0.101256  -0.002005   0.045903  -0.090638  -0.057458
   11  C  1 YY    0.006492   0.001972  -0.005449  -0.051887  -0.121477
   12  C  1 ZZ   -0.079913   0.021894   0.050253  -0.063757   0.000407
   13  C  1 XY    0.034656  -0.000353  -0.041077   0.069355  -0.004900
   14  C  1 XZ    0.007415  -0.036203   0.015690   0.039777  -0.071885
   15  C  1 YZ   -0.098137  -0.114653   0.033513   0.007137  -0.013879
   16  C  2  S   -0.018858   0.019172   0.013172  -0.050997  -0.025456
   17  C  2  S    0.248351  -0.355020  -0.724083  -1.105156  -0.561933
   18  C  2  X   -0.037935   0.058842  -0.047426   0.176790  -0.075518
   19  C  2  Y   -0.050871   0.150848   0.293103   0.059127  -0.026644
   20  C  2  Z    0.254398  -0.194864   0.021083  -0.077777   0.059695
   21  C  2  S   -0.815587   1.027084   1.500654   2.412446   0.617574
   22  C  2  X    0.035305   0.076285   0.353563  -0.365264   0.429577
   23  C  2  Y   -0.219916  -0.142662  -0.573520  -0.288458  -0.422361
   24  C  2  Z   -0.498033   0.167303   0.073880   0.483573  -0.444765
   25  C  2 XX   -0.029981   0.011187  -0.068437  -0.092799  -0.133989
   26  C  2 YY    0.025557   0.006709  -0.049023  -0.045581  -0.040744
   27  C  2 ZZ   -0.019163  -0.009053   0.007983  -0.068905   0.003759
   28  C  2 XY   -0.067608   0.048678  -0.040066   0.042987  -0.052465
   29  C  2 XZ   -0.052900  -0.028734   0.004975  -0.012007   0.050516
   30  C  2 YZ    0.009212  -0.071860   0.029504   0.061538  -0.060570
   31  O  3  S    0.002381  -0.005148   0.002172  -0.014707   0.001974
   32  O  3  S    0.003865  -0.070707   0.046397  -0.805726   0.479742
   33  O  3  X    0.286209  -0.306076   0.153811  -0.074668   0.512269
   34  O  3  Y   -0.028678   0.011955  -0.071406  -0.146991   0.237365
   35  O  3  Z   -0.112372   0.469514  -0.146175   0.044937   0.059806
   36  O  3  S    0.182711  -0.037644  -0.220736   1.490017  -1.141859
   37  O  3  X   -0.463154   0.442024  -0.171533   0.176923  -0.740012
   38  O  3  Y   -0.141997   0.191028   0.099190   0.214311  -0.219223
   39  O  3  Z    0.067625  -0.360285   0.073109  -0.142695   0.076145
   40  O  3 XX   -0.009116  -0.017877   0.000495  -0.277452   0.177456
   41  O  3 YY    0.044341  -0.066559   0.020964  -0.265255   0.145454
   42  O  3 ZZ    0.022026  -0.067729   0.040924  -0.216273   0.145629
   43  O  3 XY    0.015015  -0.010189  -0.038772  -0.071636  -0.051938
   44  O  3 XZ   -0.004502   0.032021  -0.013199  -0.037081   0.028724
   45  O  3 YZ    0.057325  -0.028017   0.016817   0.027775  -0.074340
   46  H  4  S    0.401997  -0.344471   0.184239   0.327463  -0.483219
   47  H  4  S   -0.278040   0.270640  -0.225450  -0.791878   0.831084
   48  H  5  S    0.345316  -0.184829  -0.649178   0.064231  -0.243561
   49  H  5  S   -0.713944   0.211685   0.875531  -0.791992  -0.644500
   50  H  6  S   -0.001249   0.357257  -0.533778  -0.117036   0.114324
   51  H  6  S   -0.156392  -0.517229   0.870875  -0.666142  -0.492814
   52  H  7  S   -0.792166  -0.590995  -0.254034  -0.045368  -0.051139
   53  H  7  S    1.456564   0.885860   0.538328  -0.328094  -0.696512
   54  H  8  S   -0.196646  -0.158496   0.469732   0.023425  -0.227109
   55  H  8  S   -0.119527  -0.013716  -1.007070  -0.596671  -0.368054
   56  H  9  S   -0.253308   0.540328   0.212537  -0.290268   0.128769
   57  H  9  S    0.578846  -0.869697  -0.767415  -0.599219  -0.397530

                     36         37         38         39         40
                    1.0386     1.1374     1.3492     1.4374     1.4986
                     A          A          A          A          A   
    1  C  1  S    0.003386  -0.027659  -0.106822  -0.011424   0.062342
    2  C  1  S   -0.043923  -0.323746  -1.427419  -0.310788   0.674103
    3  C  1  X    0.121071  -0.008913  -0.092992  -0.041692  -0.052268
    4  C  1  Y    0.075558   0.023744   0.000156   0.087470   0.008163
    5  C  1  Z    0.008132   0.020411  -0.032186   0.017159  -0.064643
    6  C  1  S    0.745221   1.192370   4.685334   0.749115  -2.808456
    7  C  1  X   -0.048993   0.134309   0.986590   0.240668  -0.664267
    8  C  1  Y   -0.629934  -0.377953  -0.464945   0.077654   0.499658
    9  C  1  Z   -0.350566   0.341494  -0.088977   0.061845  -0.018143
   10  C  1 XX    0.032757   0.020621  -0.083202  -0.288787  -0.068022
   11  C  1 YY   -0.064324  -0.083030  -0.074678   0.464755   0.099548
   12  C  1 ZZ    0.046768   0.001169  -0.058538  -0.211544   0.050818
   13  C  1 XY   -0.044050   0.000048  -0.023475  -0.103012   0.011455
   14  C  1 XZ    0.069222  -0.144794   0.218873  -0.137797   0.323355
   15  C  1 YZ    0.011826  -0.028196  -0.007793   0.002210  -0.070593
   16  C  2  S    0.022221   0.018343   0.068003  -0.002158  -0.082071
   17  C  2  S    0.373313   0.094494   0.796999  -0.079034  -1.095502
   18  C  2  X   -0.095094  -0.006966   0.037939   0.000766   0.016675
   19  C  2  Y    0.019995  -0.095832   0.017451   0.127315   0.033356
   20  C  2  Z   -0.107220  -0.042198   0.046944  -0.026816   0.040899
   21  C  2  S   -0.906116  -0.272771  -2.947432   0.194203   4.066024
   22  C  2  X    0.818160   0.880937   1.266540   0.362773  -0.212492
   23  C  2  Y   -0.187783   0.070766  -0.400218  -0.013224   0.580692
   24  C  2  Z    0.700103  -0.477286   0.019416   0.036242  -0.298083
   25  C  2 XX    0.069776   0.030384   0.048138   0.371511   0.097769
   26  C  2 YY    0.038247   0.095549   0.009356  -0.598630  -0.194042
   27  C  2 ZZ   -0.022454  -0.042869   0.062364   0.213751   0.014191
   28  C  2 XY   -0.011503   0.070468   0.043624   0.076176   0.018031
   29  C  2 XZ   -0.017709   0.115541  -0.298843   0.198486  -0.444559
   30  C  2 YZ    0.075118  -0.096503   0.007826   0.045647  -0.074609
   31  O  3  S    0.006831  -0.009520   0.031326   0.019601   0.025507
   32  O  3  S    0.114011  -0.148122   0.555208   0.189066   0.257348
   33  O  3  X    0.329656  -0.100312  -0.264735  -0.019937   0.023914
   34  O  3  Y   -0.640964  -0.583308  -0.015519  -0.010456  -0.130031
   35  O  3  Z    0.491489  -0.583493   0.037108  -0.016037  -0.085351
   36  O  3  S   -0.311689   0.313538  -1.132961  -0.616252  -1.203360
   37  O  3  X   -0.428114   0.317039   0.423664   0.149078   0.415611
   38  O  3  Y    0.919475   1.263862   0.028002   0.242228   0.679312
   39  O  3  Z   -0.736530   1.139052  -0.103787  -0.037859   0.400882
   40  O  3 XX   -0.013419   0.005443   0.273149  -0.200669  -0.016769
   41  O  3 YY    0.106095  -0.036642   0.246676   0.312596   0.135570
   42  O  3 ZZ    0.013433  -0.095743  -0.031281   0.070462   0.130886
   43  O  3 XY    0.031170   0.001060   0.049462   0.157523   0.165926
   44  O  3 XZ   -0.052373   0.056349   0.099433  -0.079241   0.407694
   45  O  3 YZ   -0.026444  -0.073614   0.180269  -0.104989   0.045519
   46  H  4  S    0.002112  -0.301120   0.158835   0.015531  -0.267938
   47  H  4  S   -0.012403  -0.813440   0.096856  -0.061787  -0.207727
   48  H  5  S   -0.114785  -0.166092  -0.341463   0.102700   0.229057
   49  H  5  S   -0.185705  -0.135498  -0.308217  -0.017520   0.259635
   50  H  6  S    0.032284   0.057841  -0.477094  -0.078330   0.114801
   51  H  6  S   -0.066675  -0.046493  -0.460124  -0.111699   0.143532
   52  H  7  S    0.180162  -0.256807  -0.304156  -0.165218   0.248241
   53  H  7  S    0.120457   0.037413  -0.473657  -0.124596   0.160738
   54  H  8  S    0.168652  -0.193415   0.247386   0.061374  -0.344958
   55  H  8  S    0.216269   0.161882   0.108379  -0.052442  -0.397166
   56  H  9  S   -0.141359   0.145123   0.180376   0.062299  -0.294822
   57  H  9  S    0.000632   0.046554   0.244095  -0.116491  -0.262052

                     41         42         43         44         45
                    1.5792     1.7490     1.8292     1.8680     1.9470
                     A          A          A          A          A   
    1  C  1  S    0.023902  -0.035450   0.032555   0.004747  -0.007779
    2  C  1  S    0.156168  -0.038704   0.434135   0.052223   0.469706
    3  C  1  X   -0.169546   0.197868   0.023079  -0.004249   0.233536
    4  C  1  Y   -0.056021  -0.048299   0.072589   0.020533  -0.097267
    5  C  1  Z    0.025273  -0.000615  -0.019431   0.070469   0.008595
    6  C  1  S   -1.469580   1.121312  -1.631630  -0.248329  -0.472028
    7  C  1  X   -0.355033   0.026255  -0.689450  -0.106034  -0.238491
    8  C  1  Y    0.610805  -0.487408  -0.175694  -0.094257   0.374029
    9  C  1  Z    0.030903   0.013338   0.205258  -0.884856  -0.069339
   10  C  1 XX    0.013720  -0.379545  -0.205205  -0.011556  -0.311174
   11  C  1 YY   -0.136646   0.553605   0.450388   0.134375  -0.214499
   12  C  1 ZZ    0.139877  -0.161618  -0.263714  -0.132919   0.538188
   13  C  1 XY    0.062770   0.137043  -0.086858  -0.045805   0.367028
   14  C  1 XZ   -0.177008   0.037675   0.157345  -0.761114  -0.097197
   15  C  1 YZ    0.070974  -0.031102   0.000564  -0.150958   0.003406
   16  C  2  S   -0.088551   0.014942  -0.035432  -0.004831  -0.016655
   17  C  2  S   -1.077939   0.373264  -0.560225  -0.082859   0.271950
   18  C  2  X    0.134459  -0.096607   0.047669   0.027889  -0.260571
   19  C  2  Y    0.101893   0.012284  -0.065333  -0.019861   0.109028
   20  C  2  Z    0.016129  -0.000592   0.019752  -0.010175  -0.006936
   21  C  2  S    4.618064  -1.044564   1.991061   0.279789  -0.091533
   22  C  2  X    0.406518   0.908177   0.080541  -0.041439  -0.046482
   23  C  2  Y    0.711520  -0.210471   0.843872   0.232613  -0.366567
   24  C  2  Z   -0.072891   0.027771  -0.535187   1.388113   0.043563
   25  C  2 XX   -0.042699  -0.164764   0.138862   0.017500  -0.221630
   26  C  2 YY    0.080844   0.139710   0.184256   0.044233  -0.238358
   27  C  2 ZZ   -0.072377   0.035538  -0.342427  -0.073216   0.461428
   28  C  2 XY    0.146698   0.328663   0.080965  -0.016088   0.382663
   29  C  2 XZ    0.171679  -0.035030  -0.042648  -0.233010  -0.063552
   30  C  2 YZ    0.044488  -0.018727   0.124514  -0.403028   0.064262
   31  O  3  S    0.095868   0.011587   0.027165   0.006579  -0.005650
   32  O  3  S    1.283101  -0.041726   0.138638   0.023225  -0.213104
   33  O  3  X   -0.240616   0.167563   0.128958   0.017682   0.092808
   34  O  3  Y   -0.127127  -0.033091  -0.021023  -0.000024   0.022400
   35  O  3  Z    0.061367   0.003043  -0.053712   0.138768   0.000216
   36  O  3  S   -3.945932  -0.140163  -0.974536  -0.145749   0.526906
   37  O  3  X    1.259364  -0.172896   0.242657   0.038108  -0.241036
   38  O  3  Y    0.560468   0.189887   0.273584  -0.034240  -0.026444
   39  O  3  Z   -0.388470  -0.037638   0.175598  -0.429250   0.050420
   40  O  3 XX    0.419210   0.248757   0.430031   0.138153   0.019743
   41  O  3 YY    0.237188  -0.646603   0.264950   0.061036   0.253288
   42  O  3 ZZ    0.420084   0.400394  -0.548807  -0.178427  -0.381729
   43  O  3 XY    0.208217   0.110469  -0.332386  -0.063243  -0.139094
   44  O  3 XZ   -0.248565   0.031289  -0.265166   0.286033  -0.048359
   45  O  3 YZ    0.185196   0.044932   0.186426   0.142756   0.053474
   46  H  4  S    0.305119   0.020203  -0.057738   0.092996  -0.068153
   47  H  4  S    0.121604  -0.012879  -0.031874  -0.026319   0.001958
   48  H  5  S    0.100881  -0.223762   0.047716  -0.003668   0.045155
   49  H  5  S    0.306520  -0.156476  -0.066246  -0.032688   0.067365
   50  H  6  S    0.063354  -0.116425   0.200273  -0.146004  -0.212103
   51  H  6  S   -0.052321   0.057186   0.249555  -0.192341   0.066852
   52  H  7  S    0.003522  -0.099774   0.146856   0.228805  -0.170110
   53  H  7  S   -0.147383   0.058954   0.129178   0.256826   0.096602
   54  H  8  S   -0.381204   0.034361  -0.170574   0.493197  -0.182651
   55  H  8  S   -0.461986   0.048544  -0.187182   0.336923   0.044506
   56  H  9  S   -0.412017   0.016849   0.154008  -0.473349  -0.174959
   57  H  9  S   -0.356975   0.049353   0.100504  -0.336000   0.029019

                     46         47         48         49         50
                    2.0645     2.0883     2.1509     2.2222     2.3301
                     A          A          A          A          A   
    1  C  1  S   -0.000887   0.003105  -0.005240  -0.005805  -0.007011
    2  C  1  S    0.059743   0.027444  -0.066651  -0.011720   0.048642
    3  C  1  X    0.040792  -0.032087   0.034667   0.050424   0.058742
    4  C  1  Y    0.027025  -0.026146   0.072392   0.012984  -0.010770
    5  C  1  Z    0.031748   0.075268   0.014489   0.028954   0.037876
    6  C  1  S   -0.030704  -0.235375   0.223458   0.333173   0.250802
    7  C  1  X    0.158307  -0.250282   0.383355   0.149907   0.103343
    8  C  1  Y    0.150710  -0.055162   0.290537  -0.103265  -0.171360
    9  C  1  Z    0.153992   0.297559   0.009119   0.195587   0.171336
   10  C  1 XX   -0.304123   0.107005  -0.315594   0.018059   0.262881
   11  C  1 YY    0.103474   0.076057  -0.309339  -0.024985  -0.097864
   12  C  1 ZZ    0.170709  -0.172304   0.611768  -0.001101  -0.193170
   13  C  1 XY   -0.405919   0.290647  -0.572399  -0.163451   0.044387
   14  C  1 XZ    0.118815   0.208153   0.063698  -0.380461   0.098247
   15  C  1 YZ    0.268109   0.667390   0.049646   0.729753   0.319204
   16  C  2  S   -0.001721  -0.011445   0.011147   0.023179   0.016759
   17  C  2  S    0.059364  -0.052414  -0.072922   0.084156   0.010569
   18  C  2  X    0.248836  -0.095050  -0.037524  -0.050072  -0.052819
   19  C  2  Y    0.059064   0.017832  -0.075816  -0.067409  -0.097824
   20  C  2  Z    0.026829   0.075710   0.018409   0.019234   0.022182
   21  C  2  S    0.249497   0.331043  -0.391764  -0.834975  -0.575023
   22  C  2  X   -0.022901   0.008139  -0.016079  -0.007851   0.057881
   23  C  2  Y   -0.330401   0.354590  -0.065402  -0.298538  -0.369992
   24  C  2  Z    0.156934   0.316133   0.106488  -0.167279  -0.286631
   25  C  2 XX   -0.265098   0.030471   0.405746   0.024431   0.039378
   26  C  2 YY   -0.178518   0.141895  -0.079250  -0.019691  -0.321486
   27  C  2 ZZ    0.521021  -0.201276  -0.407237   0.001656   0.276020
   28  C  2 XY   -0.343297   0.192586   0.277957  -0.044928  -0.043158
   29  C  2 XZ    0.215407   0.398864   0.062344  -0.340352  -0.449163
   30  C  2 YZ   -0.155611  -0.377730  -0.225894   0.607759  -0.643100
   31  O  3  S   -0.001217   0.018184   0.019938  -0.026736  -0.028311
   32  O  3  S    0.316236   0.032648  -0.292797  -0.353247  -0.293606
   33  O  3  X   -0.181848   0.046693   0.184857   0.052589   0.046509
   34  O  3  Y   -0.198782   0.070534   0.144645   0.001240  -0.027101
   35  O  3  Z    0.058794   0.090824  -0.010582  -0.027258  -0.081757
   36  O  3  S   -0.433256  -0.368551   0.354045   1.058237   0.937761
   37  O  3  X    0.165890   0.082496  -0.194654  -0.335820  -0.299928
   38  O  3  Y    0.239390  -0.188537  -0.201525   0.096427   0.189228
   39  O  3  Z   -0.169255  -0.366489  -0.044919   0.298097   0.509735
   40  O  3 XX    0.309207  -0.025709   0.188581  -0.110120  -0.003670
   41  O  3 YY   -0.175410   0.240957  -0.195362  -0.120215  -0.213771
   42  O  3 ZZ    0.058894  -0.161078  -0.030612   0.032384   0.015571
   43  O  3 XY   -0.415932   0.110658   0.146952   0.103749   0.022157
   44  O  3 XZ    0.179642   0.377630  -0.009823   0.060595  -0.701238
   45  O  3 YZ    0.048886  -0.009266  -0.027569   0.330911   0.038348
   46  H  4  S    0.100574   0.246437   0.121416  -0.461660  -0.379294
   47  H  4  S    0.003136   0.006780  -0.082023  -0.045021  -0.092897
   48  H  5  S    0.336466  -0.242150   0.563490   0.071068  -0.109237
   49  H  5  S   -0.031025   0.029691   0.000008  -0.065945  -0.020075
   50  H  6  S    0.064792   0.483267  -0.227548   0.340372   0.255499
   51  H  6  S    0.038489  -0.015344  -0.010557  -0.051720   0.009982
   52  H  7  S   -0.281458  -0.309482  -0.291640  -0.398859  -0.097722
   53  H  7  S    0.020251  -0.012476   0.011580   0.117317   0.055035
   54  H  8  S   -0.113609   0.348909   0.337035  -0.238967   0.186619
   55  H  8  S   -0.011909   0.051929  -0.044453   0.090591  -0.206214
   56  H  9  S   -0.385949  -0.209290   0.099794   0.336843  -0.241056
   57  H  9  S   -0.045762  -0.020932  -0.027239  -0.040085   0.182105

                     51         52         53         54         55
                    2.3983     2.5078     2.6391     2.8248     3.7608
                     A          A          A          A          A   
    1  C  1  S    0.032620   0.018268   0.066609   0.008962  -0.026559
    2  C  1  S   -0.052128  -0.028003  -0.033584  -0.011768   0.265983
    3  C  1  X   -0.193387  -0.050830  -0.275960  -0.034258   0.078337
    4  C  1  Y    0.046222   0.045360   0.215372   0.042507  -0.009359
    5  C  1  Z   -0.001249   0.006940  -0.013925   0.000101   0.010787
    6  C  1  S   -0.970524  -0.196524  -1.267323   0.041486   0.073697
    7  C  1  X   -0.420306  -0.157000  -0.671309  -0.037187  -0.001720
    8  C  1  Y    0.421223   0.031544   0.389262   0.053043  -0.014731
    9  C  1  Z    0.076203   0.009677  -0.022975  -0.060327  -0.079968
   10  C  1 XX   -0.604933  -0.365495  -0.246093  -0.161519  -0.105313
   11  C  1 YY    0.319221   0.187554  -0.040536   0.064959  -0.133854
   12  C  1 ZZ    0.379505   0.243825   0.416091   0.085108  -0.073317
   13  C  1 XY    0.095450   0.006346   0.768654   0.092755  -0.055772
   14  C  1 XZ   -0.103823   0.111608  -0.041183  -0.023674   0.001236
   15  C  1 YZ    0.234913  -0.156785   0.029856   0.001045   0.017670
   16  C  2  S   -0.053756   0.013052  -0.075275   0.060486  -0.083978
   17  C  2  S   -0.030178   0.146681   0.093231  -0.328780   0.691135
   18  C  2  X    0.018215  -0.178210  -0.188024  -0.696466  -0.020964
   19  C  2  Y    0.220654   0.000547   0.215636  -0.406161  -0.025209
   20  C  2  Z   -0.032145   0.031637  -0.014354   0.040584  -0.024321
   21  C  2  S    1.549937  -0.695030   1.570596  -1.647220  -1.150748
   22  C  2  X   -0.286998  -0.423339  -0.485057  -0.839358  -0.589865
   23  C  2  Y    0.791910   0.019682   0.318512  -0.454560  -0.385542
   24  C  2  Z   -0.249155  -0.055815  -0.021194   0.170627   0.153913
   25  C  2 XX   -0.145352  -0.230972   0.779536  -0.395568  -0.269508
   26  C  2 YY    0.507112   0.313567  -0.430004   0.052950  -0.325957
   27  C  2 ZZ   -0.379103  -0.058477  -0.509146   0.411656  -0.344801
   28  C  2 XY   -0.212495  -0.305102  -0.578452  -0.817090   0.042870
   29  C  2 XZ   -0.376378   0.241858   0.059536   0.088695  -0.015265
   30  C  2 YZ   -0.130730  -0.229998   0.017422   0.084642  -0.015383
   31  O  3  S    0.035158  -0.047208   0.002884  -0.064211  -0.504174
   32  O  3  S    0.409302  -0.467965   0.062732  -0.626918  -0.010270
   33  O  3  X   -0.109008  -0.005702  -0.017380  -0.015646   0.139402
   34  O  3  Y   -0.013059  -0.010878  -0.045813   0.027220   0.037250
   35  O  3  Z   -0.031900  -0.020732   0.000725   0.038684  -0.071002
   36  O  3  S   -1.308845   1.534386  -0.223686   2.216839   4.765314
   37  O  3  X    0.619686  -0.342318   0.085771  -1.165098  -0.666783
   38  O  3  Y   -0.050930   0.085510   0.271650  -1.049183  -0.273210
   39  O  3  Z   -0.017580   0.486661   0.023708  -0.158046   0.233514
   40  O  3 XX   -0.307945  -0.559956   0.268709   0.605210  -1.573080
   41  O  3 YY    0.370295   0.249562  -0.341006  -0.152201  -1.637987
   42  O  3 ZZ    0.215724   0.081451   0.111496  -0.718527  -1.717879
   43  O  3 XY   -0.077316   0.255147  -0.240957   0.929249   0.143584
   44  O  3 XZ   -0.194584  -0.119819   0.036615  -0.056238  -0.011908
   45  O  3 YZ   -0.572260   0.824612   0.146991  -0.282625   0.028229
   46  H  4  S    0.372038  -1.018333  -0.104244   0.361979   0.081278
   47  H  4  S   -0.040137   0.038690  -0.014296   0.109635  -0.548902
   48  H  5  S    0.144053   0.087223  -0.134519   0.005878   0.051210
   49  H  5  S    0.061864  -0.103576   0.038859  -0.108481  -0.122821
   50  H  6  S   -0.025443  -0.145790  -0.029730  -0.034328   0.024783
   51  H  6  S   -0.040074   0.087481   0.029275   0.007489  -0.041747
   52  H  7  S   -0.253007  -0.014185  -0.030163  -0.015176  -0.014615
   53  H  7  S   -0.001365   0.006803   0.030443   0.025464   0.122273
   54  H  8  S   -0.054847   0.161742   0.065553  -0.005975   0.142447
   55  H  8  S   -0.013754   0.071351  -0.100232   0.185024   0.049329
   56  H  9  S    0.007463  -0.043951   0.086375   0.000443   0.107123
   57  H  9  S    0.112343   0.189350  -0.117881   0.089540  -0.033623

                     56         57
                    4.1391     4.3619
                     A          A   
    1  C  1  S   -0.386290   0.313500
    2  C  1  S    2.263352  -1.782271
    3  C  1  X    0.000123   0.117192
    4  C  1  Y   -0.014289  -0.071937
    5  C  1  Z   -0.001383   0.002432
    6  C  1  S    1.539825  -2.259784
    7  C  1  X   -0.124756  -0.269662
    8  C  1  Y    0.090561   0.138688
    9  C  1  Z    0.013317   0.010253
   10  C  1 XX   -1.409735   1.358731
   11  C  1 YY   -1.435897   1.244390
   12  C  1 ZZ   -1.488649   1.139829
   13  C  1 XY   -0.055979  -0.158939
   14  C  1 XZ    0.004522   0.012668
   15  C  1 YZ   -0.007616  -0.008365
   16  C  2  S   -0.303497  -0.385499
   17  C  2  S    1.709783   2.186927
   18  C  2  X   -0.100203   0.015465
   19  C  2  Y   -0.002639  -0.134165
   20  C  2  Z    0.010142   0.017749
   21  C  2  S    1.357426   2.495849
   22  C  2  X    0.130123  -0.250962
   23  C  2  Y    0.002777   0.106633
   24  C  2  Z   -0.032439  -0.044362
   25  C  2 XX   -1.115854  -1.726867
   26  C  2 YY   -1.111847  -1.542314
   27  C  2 ZZ   -1.161846  -1.403617
   28  C  2 XY   -0.171535   0.045850
   29  C  2 XZ    0.019195   0.000750
   30  C  2 YZ    0.004658   0.016276
   31  O  3  S    0.097981   0.050677
   32  O  3  S    0.055044  -0.040815
   33  O  3  X   -0.100120  -0.063719
   34  O  3  Y   -0.044524  -0.047891
   35  O  3  Z    0.019389   0.009858
   36  O  3  S   -1.156932  -0.644296
   37  O  3  X    0.128749  -0.022181
   38  O  3  Y   -0.009681  -0.026403
   39  O  3  Z   -0.057305  -0.005766
   40  O  3 XX    0.421167   0.351267
   41  O  3 YY    0.369858   0.246183
   42  O  3 ZZ    0.314169   0.085018
   43  O  3 XY    0.138749   0.163088
   44  O  3 XZ   -0.010412  -0.021249
   45  O  3 YZ   -0.024698  -0.017757
   46  H  4  S    0.015170  -0.006886
   47  H  4  S    0.097637   0.030993
   48  H  5  S    0.097510  -0.027692
   49  H  5  S   -0.364741   0.298176
   50  H  6  S    0.101241  -0.014967
   51  H  6  S   -0.387317   0.321186
   52  H  7  S    0.110431  -0.014580
   53  H  7  S   -0.422696   0.300497
   54  H  8  S    0.061630   0.023025
   55  H  8  S   -0.334441  -0.419726
   56  H  9  S    0.071062   0.035557
   57  H  9  S   -0.312289  -0.396670
 ...... END OF RHF CALCULATION ......
 STEP CPU TIME =    49.51 TOTAL CPU TIME =       49.7 (    0.8 MIN)
 TOTAL WALL CLOCK TIME=      107.0 SECONDS, CPU UTILIZATION IS  46.46%

     ---------------------------------------------------------------------
     PROPERTIES FOR THE M06      DFT FUNCTIONAL (RHF  TYPE) DENSITY MATRIX
     ---------------------------------------------------------------------

          -----------------
          ENERGY COMPONENTS
          -----------------

         WAVEFUNCTION NORMALIZATION =       1.0000000000

                ONE ELECTRON ENERGY =    -371.3898003100
                TWO ELECTRON ENERGY =     134.8873709418
           NUCLEAR REPULSION ENERGY =      81.5739432601
                                      ------------------
                       TOTAL ENERGY =    -154.9284861081

 ELECTRON-ELECTRON POTENTIAL ENERGY =     134.8873709418
  NUCLEUS-ELECTRON POTENTIAL ENERGY =    -524.6948856434
   NUCLEUS-NUCLEUS POTENTIAL ENERGY =      81.5739432601
                                      ------------------
             TOTAL POTENTIAL ENERGY =    -308.2335714415
               TOTAL KINETIC ENERGY =     153.3050853334
                 VIRIAL RATIO (V/T) =       2.0105893472

          ---------------------------------------
          MULLIKEN AND LOWDIN POPULATION ANALYSES
          ---------------------------------------

     ATOMIC MULLIKEN POPULATION IN EACH MOLECULAR ORBITAL

                      1          2          3          4          5

                  2.000000   2.000000   2.000000   2.000000   2.000000

    1            -0.000004   0.001086   1.997708   0.019254   0.920017
    2            -0.000337   1.997664   0.000939   0.235812   0.605068
    3             2.000489   0.000318   0.000001   1.615630   0.152807
    4            -0.000154   0.000018  -0.000000   0.117895   0.027061
    5            -0.000000   0.000001   0.000446   0.000124   0.075688
    6            -0.000001   0.000002   0.000450   0.000390   0.066323
    7             0.000001   0.000002   0.000454   0.001263   0.072791
    8             0.000006   0.000466   0.000001   0.006478   0.042770
    9            -0.000002   0.000442   0.000002   0.003155   0.037476

                      6          7          8          9         10

                  2.000000   2.000000   2.000000   2.000000   2.000000

    1             0.466721   0.207597   0.458517   0.666432   0.804799
    2             0.578843   0.602334   0.594165   0.454731   0.259646
    3             0.395488   0.665288   0.413598   0.462347   0.242352
    4             0.108397   0.181545   0.019376   0.034428   0.026459
    5             0.071941   0.001266   0.097630   0.206630   0.091498
    6             0.074478   0.098202   0.006897   0.019095   0.465350
    7             0.094814   0.000314   0.183503   0.065242   0.001197
    8             0.123500   0.002218   0.220650   0.001446   0.027138
    9             0.085818   0.241236   0.005664   0.089649   0.081561

                     11         12         13

                  2.000000   2.000000   2.000000

    1             0.600520   0.230271   0.138209
    2             0.215155   0.364920   0.139737
    3             0.462405   0.765026   1.460345
    4             0.003723   0.077224   0.000158
    5             0.213908   0.047814   0.028436
    6             0.013312   0.056178   0.021512
    7             0.345087   0.083697   0.000360
    8             0.145676   0.259486   0.006669
    9             0.000212   0.115384   0.204575

               ----- POPULATIONS IN EACH AO -----
                             MULLIKEN      LOWDIN
              1  C  1  S      1.98994     1.97797
              2  C  1  S      0.65982     0.36127
              3  C  1  X      0.70654     0.63847
              4  C  1  Y      0.69767     0.62942
              5  C  1  Z      0.70102     0.63098
              6  C  1  S      0.68687     0.34267
              7  C  1  X      0.30381     0.42495
              8  C  1  Y      0.35406     0.47382
              9  C  1  Z      0.38454     0.49840
             10  C  1 XX      0.00142     0.15179
             11  C  1 YY      0.00073     0.14650
             12  C  1 ZZ      0.00554     0.15330
             13  C  1 XY      0.00810     0.01576
             14  C  1 XZ      0.00168     0.00357
             15  C  1 YZ      0.00938     0.01971
             16  C  2  S      1.99003     1.97629
             17  C  2  S      0.67169     0.35297
             18  C  2  X      0.62434     0.55811
             19  C  2  Y      0.66800     0.60042
             20  C  2  Z      0.72916     0.64583
             21  C  2  S      0.57720     0.31700
             22  C  2  X      0.14402     0.29552
             23  C  2  Y      0.24196     0.37749
             24  C  2  Z      0.35410     0.46812
             25  C  2 XX      0.00462     0.15925
             26  C  2 YY     -0.00044     0.14654
             27  C  2 ZZ      0.00530     0.15067
             28  C  2 XY      0.01722     0.03244
             29  C  2 XZ      0.00698     0.01390
             30  C  2 YZ      0.01450     0.03162
             31  O  3  S      1.99189     1.97568
             32  O  3  S      0.90393     0.71704
             33  O  3  X      0.97032     0.92457
             34  O  3  Y      0.94429     0.89319
             35  O  3  Z      1.01035     0.96639
             36  O  3  S      0.96482     0.46414
             37  O  3  X      0.60797     0.65567
             38  O  3  Y      0.56094     0.62721
             39  O  3  Z      0.64285     0.70010
             40  O  3 XX      0.00398     0.17592
             41  O  3 YY      0.01155     0.18326
             42  O  3 ZZ      0.00671     0.17669
             43  O  3 XY      0.00394     0.00721
             44  O  3 XZ      0.00389     0.00618
             45  O  3 YZ      0.00866     0.01530
             46  H  4  S      0.48014     0.43716
             47  H  4  S      0.11599     0.21275
             48  H  5  S      0.52176     0.48165
             49  H  5  S      0.31362     0.35991
             50  H  6  S      0.52021     0.48247
             51  H  6  S      0.30198     0.35830
             52  H  7  S      0.52387     0.48620
             53  H  7  S      0.32486     0.36791
             54  H  8  S      0.53151     0.49805
             55  H  8  S      0.30499     0.35567
             56  H  9  S      0.53473     0.50423
             57  H  9  S      0.33044     0.37239

          ----- MULLIKEN ATOMIC OVERLAP POPULATIONS -----
          (OFF-DIAGONAL ELEMENTS NEED TO BE MULTIPLIED BY 2)

             1           2           3           4           5

    1    5.2289972
    2    0.3446029   4.8110998
    3   -0.0520566   0.2568704   8.2730285
    4   -0.0048286  -0.0314572   0.2367781   0.3885691
    5    0.3471154  -0.0236479   0.0035967  -0.0000347   0.5566193
    6    0.3703994  -0.0318366   0.0029388  -0.0009187  -0.0228425
    7    0.3714329  -0.0335362  -0.0022598   0.0057287  -0.0256297
    8   -0.0398184   0.3870275  -0.0422629   0.0074303  -0.0016295
    9   -0.0547163   0.3695538  -0.0405384  -0.0051374   0.0018338

             6           7           8           9

    6    0.5371622
    7   -0.0320436   0.5674017
    8   -0.0062123   0.0047687   0.5683874
    9    0.0055409  -0.0071351  -0.0411870   0.6369572

          TOTAL MULLIKEN AND LOWDIN ATOMIC POPULATIONS
       ATOM         MULL.POP.    CHARGE          LOW.POP.     CHARGE
    1 C             6.511128   -0.511128         6.468578   -0.468578
    2 C             6.048676   -0.048676         6.126169   -0.126169
    3 O             8.636095   -0.636095         8.488557   -0.488557
    4 H             0.596130    0.403870         0.649912    0.350088
    5 H             0.835381    0.164619         0.841557    0.158443
    6 H             0.822188    0.177812         0.840767    0.159233
    7 H             0.848728    0.151272         0.854118    0.145882
    8 H             0.836504    0.163496         0.853723    0.146277
    9 H             0.865171    0.134829         0.876618    0.123382

          -------------------------------
          BOND ORDER AND VALENCE ANALYSIS     BOND ORDER THRESHOLD=0.050
          -------------------------------

                   BOND                       BOND                       BOND
  ATOM PAIR DIST  ORDER      ATOM PAIR DIST  ORDER      ATOM PAIR DIST  ORDER
    1   2  1.511  0.994        1   5  1.116  0.935        1   6  1.116  0.939
    1   7  1.117  0.944        2   3  1.416  0.950        2   8  1.124  0.937
    2   9  1.124  0.927        3   4  0.964  0.780

                       TOTAL       BONDED        FREE
      ATOM            VALENCE     VALENCE     VALENCE
    1 C                 3.798       3.798       0.000
    2 C                 3.793       3.793      -0.000
    3 O                 1.759       1.759       0.000
    4 H                 0.799       0.799       0.000
    5 H                 0.933       0.933       0.000
    6 H                 0.930       0.930       0.000
    7 H                 0.936       0.936       0.000
    8 H                 0.929       0.929       0.000
    9 H                 0.926       0.926       0.000

          ---------------------
          ELECTROSTATIC MOMENTS
          ---------------------

 POINT   1           X           Y           Z (BOHR)    CHARGE
                 0.127150    0.005016   -0.024713        0.00 (A.U.)
         DX          DY          DZ         /D/  (DEBYE)
    -1.287290    0.313612    1.112814    1.730267
 ...... END OF PROPERTY EVALUATION ......
 STEP CPU TIME =     0.01 TOTAL CPU TIME =       49.7 (    0.8 MIN)
 TOTAL WALL CLOCK TIME=      107.2 SECONDS, CPU UTILIZATION IS  46.36%

 BEGINNING ONE ELECTRON GRADIENT...
 ..... END OF 1-ELECTRON GRADIENT ......
 STEP CPU TIME =     0.02 TOTAL CPU TIME =       49.7 (    0.8 MIN)
 TOTAL WALL CLOCK TIME=      107.2 SECONDS, CPU UTILIZATION IS  46.37%

          ----------------------
          GRADIENT OF THE ENERGY
          ----------------------
 MEMORY FOR GRID POINT CONTRIBUTIONS TO THE DFT GRADIENT=   1148947 WORDS.
 STEP CPU TIME =    17.07 TOTAL CPU TIME =       66.8 (    1.1 MIN)
 TOTAL WALL CLOCK TIME=      124.4 SECONDS, CPU UTILIZATION IS  53.72%

 THE MINIMUM MEMORY REQUIRED FOR THIS RUN IS      95879 WORDS.
 USING    1071399 WORDS FOR 2E- DERIVATIVE INTEGRAL CONTRIBUTIONS.
 THE COARSE/FINE SCHWARZ SCREENINGS SKIPPED         1078/        3232 BLOCKS.
 THE NUMBER OF GRADIENT INTEGRAL BLOCKS COMPUTED WAS     40639
 ...... END OF 2-ELECTRON GRADIENT ......
 STEP CPU TIME =     0.31 TOTAL CPU TIME =       67.1 (    1.1 MIN)
 TOTAL WALL CLOCK TIME=      124.7 SECONDS, CPU UTILIZATION IS  53.81%

                         ----------------------
                         GRADIENT OF THE ENERGY
                         ----------------------

 UNITS ARE HARTREE/BOHR    E'X               E'Y               E'Z 
    1 C                0.008424621      -0.002249860       0.002834395
    2 C               -0.009536394       0.008027813       0.002737497
    3 O                0.001645710       0.001383739       0.002131160
    4 H               -0.000353926      -0.001605237      -0.001989510
    5 H               -0.007142769      -0.009193133      -0.001024657
    6 H                0.000266129       0.006894742      -0.010235093
    7 H                0.000894695       0.006300234       0.008635427
    8 H                0.003175977      -0.006998520      -0.014706098
    9 H                0.002625958      -0.002559777       0.011616879

                   MAXIMUM GRADIENT =    0.014706098
                       RMS GRADIENT =    0.006355299
  $VIB   
          IVIB=   0 IATOM=   0 ICOORD=   0 E=     -154.9284861081
  8.424620507E-03-2.249859689E-03 2.834395498E-03-9.536394448E-03 8.027812815E-03
  2.737497326E-03 1.645710196E-03 1.383738740E-03 2.131160082E-03-3.539257604E-04
 -1.605237221E-03-1.989509920E-03-7.142769349E-03-9.193133455E-03-1.024657408E-03
  2.661286955E-04 6.894741683E-03-1.023509348E-02 8.946953615E-04 6.300233807E-03
  8.635427294E-03 3.175976547E-03-6.998519519E-03-1.470609841E-02 2.625958249E-03
 -2.559777160E-03 1.161687902E-02
 -1.287290103E+00 3.136119134E-01 1.112814151E+00

..... END OF SINGLE POINT GRADIENT .....
 STEP CPU TIME =     0.00 TOTAL CPU TIME =       67.1 (    1.1 MIN)
 TOTAL WALL CLOCK TIME=      124.7 SECONDS, CPU UTILIZATION IS  53.81%
              1187982  WORDS OF DYNAMIC MEMORY USED
 EXECUTION OF GAMESS TERMINATED NORMALLY Mon Nov 28 18:14:19 2016
 DDI: 263640 bytes (0.3 MB / 0 MWords) used by master data server.

 ----------------------------------------
 CPU timing information for all processes
 ========================================
 0: 67.00 + 0.120 = 67.121
 ----------------------------------------
 ddikick.x: exited gracefully.
unset echo
----- accounting info -----
Files used on the master node compute-3-0 were:
-rw-rw-r-- 1 sarom sarom    56101 Nov 29  2016 .//dft-etoh.dat
-rw-rw-r-- 1 sarom sarom     7011 Nov 29  2016 .//dft-etoh.F05
-rw-rw-r-- 1 sarom sarom 15841408 Nov 29  2016 .//dft-etoh.F08
-rw-rw-r-- 1 sarom sarom  1472400 Nov 29  2016 .//dft-etoh.F10
-rw-rw-r-- 1 sarom sarom  9055624 Nov 29  2016 .//dft-etoh.F22
-rw-rw-r-- 1 sarom sarom     7011 Nov 28 17:27 .//dft-etoh.inp
-rw-rw-r-- 1 sarom sarom    89292 Nov 29  2016 .//dft-etoh.log
Mon Nov 28 18:14:24 CST 2016
0.200u 0.397s 2:10.62 0.4%	0+0k 0+144io 0pf+0w
