-catch_rsh /opt/gridengine/default/spool/compute-0-1/active_jobs/23500.1/pe_hostfile
compute-0-1
The primary node assigned by SGE to this run is compute-0-1
Warning: no access to tty (Bad file descriptor).
Thus no job control in this shell.
source /home/sarom/gamess.github.2017-05-31.14.06/install.info
setenv GMS_PATH /home/sarom/gamess.github.2017-05-31.14.06
setenv GMS_BUILD_DIR /home/sarom/gamess.github.2017-05-31.14.06
setenv GMS_TARGET linux64
setenv GMS_FORTRAN gfortran
setenv GMS_GFORTRAN_VERNO 4.4
setenv GMS_MATHLIB mkl-so
setenv GMS_MATHLIB_PATH /share/apps/intel/compilers_and_libraries_2017.1.132/linux/mkl/lib/intel64
setenv GMS_MKL_VERNO 12
setenv GMS_DDI_COMM sockets
setenv GMS_LIBCCHEM false
setenv GMS_EIGEN_PATH
setenv GMS_PHI false
setenv GMS_SHMTYPE sysv
setenv GMS_OPENMP false
unset echo
dft-lc-bpbe
tests/dft
----- GAMESS execution script 'rungms' -----
This job is running on host compute-0-1.local
under operating system Linux at Fri Jun 2 00:52:57 CDT 2017
Available scratch disk space (Kbyte units) at beginning of the job is
Filesystem           1K-blocks      Used Available Use% Mounted on
/dev/sda1             16126920   3867344  11440376  26% /
GAMESS temporary binary files will be written to /scratch
GAMESS supplementary output files will be written to /home/sarom/restart
Copying input file dft-lc-bpbe.inp to your run's scratch directory...
cp tests/dft/dft-lc-bpbe.inp /scratch/dft-lc-bpbe.F05
unset echo
The generated host list is
compute-0-1.local
/home/sarom/gamess.github.2017-05-31.14.06/ddikick.x /home/sarom/gamess.github.2017-05-31.14.06/gamess.00.x dft-lc-bpbe -ddi 1 1 compute-0-1.local -scr /scratch

 Distributed Data Interface kickoff program.
 Initiating 1 compute processes on 1 nodes to run the following command:
 /home/sarom/gamess.github.2017-05-31.14.06/gamess.00.x dft-lc-bpbe 

          ******************************************************
          *         GAMESS VERSION = 20 APR 2017 (R1)          *
          *             FROM IOWA STATE UNIVERSITY             *
          * M.W.SCHMIDT, K.K.BALDRIDGE, J.A.BOATZ, S.T.ELBERT, *
          *   M.S.GORDON, J.H.JENSEN, S.KOSEKI, N.MATSUNAGA,   *
          *          K.A.NGUYEN, S.J.SU, T.L.WINDUS,           *
          *       TOGETHER WITH M.DUPUIS, J.A.MONTGOMERY       *
          *         J.COMPUT.CHEM.  14, 1347-1363(1993)        *
          **************** 64 BIT LINUX VERSION ****************

  SINCE 1993, STUDENTS AND POSTDOCS WORKING AT IOWA STATE UNIVERSITY
  AND ALSO IN THEIR VARIOUS JOBS AFTER LEAVING ISU HAVE MADE IMPORTANT
  CONTRIBUTIONS TO THE CODE:
     IVANA ADAMOVIC, CHRISTINE AIKENS, YURI ALEXEEV, POOJA ARORA,
     ANDREY ASADCHEV, ROB BELL, PRADIPTA BANDYOPADHYAY, JONATHAN BENTZ,
     BRETT BODE, KURT BRORSEN, CALEB CARLIN, GALINA CHABAN, WEI CHEN,
     CHEOL HO CHOI, PAUL DAY, ALBERT DEFUSCO, NUWAN DESILVA, TIM DUDLEY,
     DMITRI FEDOROV, GRAHAM FLETCHER, MARK FREITAG, KURT GLAESEMANN,
     DAN KEMP, GRANT MERRILL, NORIYUKI MINEZAWA, JONATHAN MULLIN,
     TAKESHI NAGATA, SEAN NEDD, HEATHER NETZLOFF, BOSILJKA NJEGIC, RYAN OLSON,
     MIKE PAK, SPENCER PRUITT, LUKE ROSKOP, JIM SHOEMAKER, LYUDMILA SLIPCHENKO,
     TONY SMITH, SAROM SOK LEANG, JIE SONG, TETSUYA TAKETSUGU, SIMON WEBB,
     PENG XU, SOOHAENG YOO, FEDERICO ZAHARIEV

  ADDITIONAL CODE HAS BEEN PROVIDED BY COLLABORATORS IN OTHER GROUPS:
     IOWA STATE UNIVERSITY:
          JOE IVANIC, AARON WEST, LAIMUTIS BYTAUTAS, KLAUS RUEDENBERG
     UNIVERSITY OF TOKYO: KIMIHIKO HIRAO, TAKAHITO NAKAJIMA,
          TAKAO TSUNEDA, MUNEAKI KAMIYA, SUSUMU YANAGISAWA,
          KIYOSHI YAGI, MAHITO CHIBA, SEIKEN TOKURA, NAOAKI KAWAKAMI
     UNIVERSITY OF AARHUS: FRANK JENSEN
     UNIVERSITY OF IOWA: VISVALDAS KAIRYS, HUI LI
     NATIONAL INST. OF STANDARDS AND TECHNOLOGY: WALT STEVENS, DAVID GARMER
     UNIVERSITY OF PISA: BENEDETTA MENNUCCI, JACOPO TOMASI
     UNIVERSITY OF MEMPHIS: HENRY KURTZ, PRAKASHAN KORAMBATH
     UNIVERSITY OF ALBERTA: TOBY ZENG, MARIUSZ KLOBUKOWSKI
     UNIVERSITY OF NEW ENGLAND: MARK SPACKMAN
     MIE UNIVERSITY: HIROAKI UMEDA
     NAT. INST. OF ADVANCED INDUSTRIAL SCIENCE AND TECHNOLOGY: KAZUO KITAURA
     MICHIGAN STATE UNIVERSITY:
          KAROL KOWALSKI, MARTA WLOCH, JEFFREY GOUR, JESSE LUTZ,
          WEI LI, PIOTR PIECUCH
     UNIVERSITY OF SILESIA: MONIKA MUSIAL, STANISLAW KUCHARSKI
     FACULTES UNIVERSITAIRES NOTRE-DAME DE LA PAIX:
          OLIVIER QUINET, BENOIT CHAMPAGNE
     UNIVERSITY OF CALIFORNIA - SANTA BARBARA: BERNARD KIRTMAN
     INSTITUTE FOR MOLECULAR SCIENCE:
          KAZUYA ISHIMURA, MICHIO KATOUDA, AND SHIGERU NAGASE
     UNIVERSITY OF NOTRE DAME: ANNA POMOGAEVA, DAN CHIPMAN
     KYUSHU UNIVERSITY:
          HARUYUKI NAKANO,
          FENG LONG GU, JACEK KORCHOWIEC, MARCIN MAKOWSKI, AND YURIKO AOKI,
          HIROTOSHI MORI AND EISAKU MIYOSHI
     PENNSYLVANIA STATE UNIVERSITY:
          TZVETELIN IORDANOV, CHET SWALINA, JONATHAN SKONE,
          SHARON HAMMES-SCHIFFER
     WASEDA UNIVERSITY:
          MASATO KOBAYASHI, TOMOKO AKAMA, TSUGUKI TOUMA,
          TAKESHI YOSHIKAWA, YASUHIRO IKABATA, JUNJI SEINO,
          YUYA NAKAJIMA, HIROMI NAKAI
     NANJING UNIVERSITY: SHUHUA LI
     UNIVERSITY OF NEBRASKA:
          PEIFENG SU, DEJUN SI, NANDUN THELLAMUREGE, YALI WANG, HUI LI
     UNIVERSITY OF ZURICH: ROBERTO PEVERATI, KIM BALDRIDGE
     N. COPERNICUS UNIVERSITY AND JACKSON STATE UNIVERSITY:
          MARIA BARYSZ
     UNIVERSITY OF COPENHAGEN: Jimmy Kromann, CASPER STEINMANN
     TOKYO INSTITUTE OF TECHNOLOGY: HIROYA NAKATA
     NAGOYA UNIVERSITY: YOSHIO NISHIMOTO, STEPHAN IRLE
     MOSCOW STATE UNIVERSITY: VLADIMIR MIRONOV

 EXECUTION OF GAMESS BEGUN Fri Jun  2 00:52:57 2017

            ECHO OF THE FIRST FEW INPUT CARDS -
 INPUT CARD>!  formaldehyde...test of long range correction.                                
 INPUT CARD>!                                                                               
 INPUT CARD>!  Very small range separation parameter should reproduce pure DFT,             
 INPUT CARD>!  as the HF exchange part is effectively turned off.                           
 INPUT CARD>!  Very large range separation parameter should reproduce HF exchange,          
 INPUT CARD>!  as the DFT exchange part is effectively turned off,                          
 INPUT CARD>!  so this amounts to using only a correlation functional.                      
 INPUT CARD>!                                                                               
 INPUT CARD>!  pure BPBE: F.NAL U-BPBE ENERGY= -114.3257391032, 11 iters                    
 INPUT CARD>!   0.000001: F.NAL U-BPBE ENERGY= -114.3257370156, 11 iters                    
 INPUT CARD>!    0.33:    FINAL U-BPBE ENERGY= -114.0989909669, 11 iters  <--default run    
 INPUT CARD>!   99,999.9: F.NAL U-BPBE ENERGY= -114.2807463595, 11 iters                    
 INPUT CARD>!  pure PBEC: F.NAL U-PBEC ENERGY= -114.2807448551, 11 iters                    
 INPUT CARD>!                                                                               
 INPUT CARD>!  This run takes 25 seconds on 2.66 GHz Cloverton (31 Mar 2015)                
 INPUT CARD>!                                                                               
 INPUT CARD> $contrl scftyp=uhf dfttyp=bpbe runtyp=energy  mult=3 $end                      
 INPUT CARD> $system mwords=4 memddi=0 $end                                                 
 INPUT CARD>!    select the following, one at a time, to get the energies shown above.      
 INPUT CARD>!    default for MU is 0.33.                                                    
 INPUT CARD>x$contrl dfttyp=bpbe $end                                                       
 INPUT CARD>x$dft    lc=.true. mu=0.000001 $end                                             
 INPUT CARD> $dft    lc=.true. $end                                                         
 INPUT CARD>x$dft    lc=.true. mu=99999.9 $end                                              
 INPUT CARD>x$contrl dfttyp=pbec $end                                                       
 INPUT CARD>                                                                                
 INPUT CARD> $guess  guess=moread norb=32 $end                                              
 INPUT CARD> $scf    dirscf=.t. $end                                                        
 INPUT CARD> $dft    nrad0=96 nrad=144 nleb0=590 nleb=1202 swoff=0.0 $end                   
 INPUT CARD> $data                                                                          
 INPUT CARD>CH2O...unknown basis set, probably 6-31G(d)                                     
 INPUT CARD>C1                                                                              
 INPUT CARD>C 6 0.248913563,-0.1766364546,0.0013923669                                      
 INPUT CARD> S   6                                                                          
 INPUT CARD> 1    0.3047524880D+04  0.1834737132D-02                                        
 INPUT CARD> 2    0.4573695180D+03  0.1403732281D-01                                        
 INPUT CARD> 3    0.1039486850D+03  0.6884262226D-01                                        
 INPUT CARD> 4    0.2921015530D+02  0.2321844432D+00                                        
 INPUT CARD> 5    0.9286662960D+01  0.4679413484D+00                                        
 INPUT CARD> 6    0.3163926960D+01  0.3623119853D+00                                        
 INPUT CARD> L    3                                                                         
 INPUT CARD> 1    0.7868272350D+01 -0.1193324198D+00  0.6899906659D-01                      
 INPUT CARD> 2    0.1881288540D+01 -0.1608541517D+00  0.3164239610D+00                      
 INPUT CARD> 3    0.5442492580D+00  0.1143456438D+01  0.7443082909D+00                      
 INPUT CARD> L    1                                                                         
 INPUT CARD> 1    0.1687144782D+00  0.1000000000D+01  0.1000000000D+01                      
 INPUT CARD> D   1                                                                          
 INPUT CARD> 1    0.8000000000D+00  0.1000000000D+01                                        
 INPUT CARD>                                                                                
 INPUT CARD>O 8 0.2347951927,-1.3947064608,-0.0052436694                                    
    4000000 WORDS OF MEMORY AVAILABLE


     RUN TITLE
     ---------
 CH2O...unknown basis set, probably 6-31G(d)                                     

 THE POINT GROUP OF THE MOLECULE IS C1      
 THE ORDER OF THE PRINCIPAL AXIS IS     0

 ATOM      ATOMIC                      COORDINATES (BOHR)
           CHARGE         X                   Y                   Z
 C           6.0     0.4703784287       -0.3337944986        0.0026311919
 O           8.0     0.4436985774       -2.6356130442       -0.0099090983
 H           1.0    -1.3020629088        0.8258244218        0.0147786843
 H           1.0     2.2692081234        0.7844921907        0.0028927151

          INTERNUCLEAR DISTANCES (ANGS.)
          ------------------------------

                1 C          2 O          3 H          4 H     

   1 C       0.0000000    1.2181699 *  1.1208584 *  1.1208511 *
   2 O       1.2181699 *  0.0000000    2.0515324 *  2.0515274 *
   3 H       1.1208584 *  2.0515324 *  0.0000000    1.8899724 *
   4 H       1.1208511 *  2.0515274 *  1.8899724 *  0.0000000  

  * ... LESS THAN  3.000


     ATOMIC BASIS SET
     ----------------
 THE CONTRACTED PRIMITIVE FUNCTIONS HAVE BEEN UNNORMALIZED
 THE CONTRACTED BASIS FUNCTIONS ARE NOW NORMALIZED TO UNITY

  SHELL TYPE  PRIMITIVE        EXPONENT          CONTRACTION COEFFICIENT(S)

 C         

      1   S       1          3047.5248800    0.001834737132
      1   S       2           457.3695180    0.014037322811
      1   S       3           103.9486850    0.068842622266
      1   S       4            29.2101553    0.232184443219
      1   S       5             9.2866630    0.467941348438
      1   S       6             3.1639270    0.362311985329

      2   L       7             7.8682724   -0.119332419782    0.068999066587
      2   L       8             1.8812885   -0.160854151676    0.316423960988
      2   L       9             0.5442493    1.143456437829    0.744308290872

      3   L      10             0.1687145    1.000000000000    1.000000000000

      4   D      11             0.8000000    1.000000000000

 O         

      5   S      12          5484.6716600    0.001831074430
      5   S      13           825.2349460    0.013950172200
      5   S      14           188.0469580    0.068445078098
      5   S      15            52.9645000    0.232714335992
      5   S      16            16.8975704    0.470192897984
      5   S      17             5.7996353    0.358520852987

      6   L      18            15.5396163   -0.110777549537    0.070874268235
      6   L      19             3.5999336   -0.148026262749    0.339752839123
      6   L      20             1.0137618    1.130767015375    0.727158577349

      7   L      21             0.2700058    1.000000000000    1.000000000000

      8   D      22             0.8000000    1.000000000000

 H         

      9   S      23            18.7311370    0.033494604341
      9   S      24             2.8253944    0.234726953509
      9   S      25             0.6401217    0.813757326131

     10   S      26             0.1612778    1.000000000000

 H         

     11   S      27            18.7311370    0.033494604341
     11   S      28             2.8253944    0.234726953509
     11   S      29             0.6401217    0.813757326131

     12   S      30             0.1612778    1.000000000000

 TOTAL NUMBER OF BASIS SET SHELLS             =   12
 NUMBER OF CARTESIAN GAUSSIAN BASIS FUNCTIONS =   34
 NUMBER OF ELECTRONS                          =   16
 CHARGE OF MOLECULE                           =    0
 SPIN MULTIPLICITY                            =    3
 NUMBER OF OCCUPIED ORBITALS (ALPHA)          =    9
 NUMBER OF OCCUPIED ORBITALS (BETA )          =    7
 TOTAL NUMBER OF ATOMS                        =    4
 THE NUCLEAR REPULSION ENERGY IS       30.9238760090

     LEBEDEV GRID-BASED DFT OPTIONS
     ------------------------------
     DFTTYP=BPBE    
     NRAD  =     144     NLEB  =    1202
     NRAD0 =      96     NLEB0 =     590
     SWOFF =    0.00E+00 (PURE SCF -> DFT)
     SWITCH=    3.00E-04 (COARSE -> TIGHT GRID)
     THRESH=    0.00E+00 GTHRE=    1.00E+00
     LONG RANGE CORRECTION= T MU=       0.330000

 GRIMME'S EMPIRICAL DISPERSION CORRECTION= F

     $CONTRL OPTIONS
     ---------------
 SCFTYP=UHF          RUNTYP=ENERGY       EXETYP=RUN     
 MPLEVL=       0     CITYP =NONE         CCTYP =NONE         VBTYP =NONE    
 DFTTYP=BPBE         TDDFT =NONE    
 MULT  =       3     ICHARG=       0     NZVAR =       0     COORD =UNIQUE  
 PP    =NONE         RELWFN=NONE         LOCAL =NONE         NUMGRD=       F
 ISPHER=      -1     NOSYM =       0     MAXIT =      30     UNITS =ANGS    
 PLTORB=       F     MOLPLT=       F     AIMPAC=       F     FRIEND=        
 NPRINT=       7     IREST =       0     GEOM  =INPUT   
 NORMF =       0     NORMP =       0     ITOL  =      20     ICUT  =       9
 INTTYP=BEST         GRDTYP=BEST         QMTTOL= 1.0E-06

     $SYSTEM OPTIONS
     ---------------
  REPLICATED MEMORY=     4000000 WORDS (ON EVERY NODE).
 DISTRIBUTED MEMDDI=           0 MILLION WORDS IN AGGREGATE,
 MEMDDI DISTRIBUTED OVER   1 PROCESSORS IS           0 WORDS/PROCESSOR.
 TOTAL MEMORY REQUESTED ON EACH PROCESSOR=     4000000 WORDS.
 TIMLIM=      525600.00 MINUTES, OR     365.0 DAYS.
 PARALL= F  BALTYP=  DLB     KDIAG=    0  COREFL= F
 MXSEQ2=     300 MXSEQ3=     150  mem10=         0

          ----------------
          PROPERTIES INPUT
          ----------------

     MOMENTS            FIELD           POTENTIAL          DENSITY
 IEMOM =       1   IEFLD =       0   IEPOT =       0   IEDEN =       0
 WHERE =COMASS     WHERE =NUCLEI     WHERE =NUCLEI     WHERE =NUCLEI  
 OUTPUT=BOTH       OUTPUT=BOTH       OUTPUT=BOTH       OUTPUT=BOTH    
 IEMINT=       0   IEFINT=       0                     IEDINT=       0
                                                       MORB  =       0
          EXTRAPOLATION IN EFFECT
          DIIS IN EFFECT
          DIIS or SOSCF will be reset if energy rises
 ORBITAL PRINTING OPTION: NPREO=     1    34     2     1

     -------------------------------
     INTEGRAL TRANSFORMATION OPTIONS
     -------------------------------
     NWORD  =            0
     CUTOFF = 1.0E-09     MPTRAN =       0
     DIRTRF =       T     AOINTS =DUP     

          ----------------------
          INTEGRAL INPUT OPTIONS
          ----------------------
 NOPK  =       1 NORDER=       0 SCHWRZ=       T

     ------------------------------------------
     THE POINT GROUP IS C1 , NAXIS= 0, ORDER= 1
     ------------------------------------------

     DIMENSIONS OF THE SYMMETRY SUBSPACES ARE
 A   =   34

 ..... DONE SETTING UP THE RUN .....
 STEP CPU TIME =     0.04 TOTAL CPU TIME =        0.0 (    0.0 MIN)
 TOTAL WALL CLOCK TIME=        0.1 SECONDS, CPU UTILIZATION IS  80.00%

          ********************
          1 ELECTRON INTEGRALS
          ********************
 ...... END OF ONE-ELECTRON INTEGRALS ......
 STEP CPU TIME =     0.00 TOTAL CPU TIME =        0.0 (    0.0 MIN)
 TOTAL WALL CLOCK TIME=        0.1 SECONDS, CPU UTILIZATION IS  80.00%

          -------------
          GUESS OPTIONS
          -------------
          GUESS =MOREAD            NORB  =      32          NORDER=       0
          MIX   =       F          PRTMO =       F          PUNMO =       F
          TOLZ  = 1.0E-08          TOLE  = 1.0E-05
          SYMDEN=       F          PURIFY=       F

 INITIAL GUESS ORBITALS GENERATED BY MOREAD   ROUTINE.

 SYMMETRIES FOR INITIAL GUESS ORBITALS FOLLOW.  ALPHA SET(S).
     9 ORBITALS ARE OCCUPIED (    2 CORE ORBITALS).
     3=A        4=A        5=A        6=A        7=A        8=A        9=A   
    10=A       11=A       12=A       13=A       14=A       15=A       16=A   
    17=A       18=A       19=A   

 SYMMETRIES FOR INITIAL GUESS ORBITALS FOLLOW.   BETA SET(S).
     7 ORBITALS ARE OCCUPIED (    2 CORE ORBITALS).
     3=A        4=A        5=A        6=A        7=A        8=A        9=A   
    10=A       11=A       12=A       13=A       14=A       15=A       16=A   
    17=A   
 ...... END OF INITIAL ORBITAL SELECTION ......
 STEP CPU TIME =     0.01 TOTAL CPU TIME =        0.0 (    0.0 MIN)
 TOTAL WALL CLOCK TIME=        0.1 SECONDS, CPU UTILIZATION IS 100.00%

                    ----------------------
                    AO INTEGRAL TECHNOLOGY
                    ----------------------
     S,P,L SHELL ROTATED AXIS INTEGRALS, REPROGRAMMED BY
        KAZUYA ISHIMURA (IMS) AND JOSE SIERRA (SYNSTAR).
     S,P,D,L SHELL ROTATED AXIS INTEGRALS PROGRAMMED BY
        KAZUYA ISHIMURA (INSTITUTE FOR MOLECULAR SCIENCE).
     S,P,D,F,G SHELL TO TOTAL QUARTET ANGULAR MOMENTUM SUM 5,
        ERIC PROGRAM BY GRAHAM FLETCHER (ELORET AND NASA ADVANCED
        SUPERCOMPUTING DIVISION, AMES RESEARCH CENTER).
     S,P,D,F,G,L SHELL GENERAL RYS QUADRATURE PROGRAMMED BY
        MICHEL DUPUIS (PACIFIC NORTHWEST NATIONAL LABORATORY).

          --------------------------------
          2 ELECTRON LC EXCHANGE INTEGRALS
          --------------------------------

 DIRECT SCF METHOD SKIPS INTEGRAL STORAGE ON DISK.
 DIRECT TRANSFORMATION SKIPS AO INTEGRAL STORAGE ON DISK.
  ...... END OF TWO-ELECTRON INTEGRALS .....
 STEP CPU TIME =     0.01 TOTAL CPU TIME =        0.1 (    0.0 MIN)
 TOTAL WALL CLOCK TIME=        0.1 SECONDS, CPU UTILIZATION IS  85.71%

          --------------------
          2 ELECTRON INTEGRALS
          --------------------

 DIRECT SCF METHOD SKIPS INTEGRAL STORAGE ON DISK.
 DIRECT TRANSFORMATION SKIPS AO INTEGRAL STORAGE ON DISK.
  ...... END OF TWO-ELECTRON INTEGRALS .....
 STEP CPU TIME =     0.00 TOTAL CPU TIME =        0.1 (    0.0 MIN)
 TOTAL WALL CLOCK TIME=        0.1 SECONDS, CPU UTILIZATION IS  85.71%

          ---------------------------
               U-BPBE SCF CALCULATION
          ---------------------------

     NUCLEAR ENERGY =        30.9238760090
     MAXIT = 30     NPUNCH=  2     MULT=  3
     EXTRAP=T  DAMP=F  SHIFT=F  RSTRCT=F  DIIS=T  SOSCF=F
         DENSITY MATRIX CONVERGENCE THRESHOLD=  2.00E-05
     COARSE -> FINE DFT GRID SWITCH THRESHOLD=  3.00E-04 (SWITCH IN $DFT)
                   HF -> DFT SWITCH THRESHOLD=  0.00E+00 (SWOFF IN $DFT)
     MEMORY REQUIRED FOR UHF/ROHF ITERS=    820474 WORDS.

 DIRECT SCF CALCULATION, SCHWRZ=T   FDIFF=T
 SCHWARZ INEQUALITY OVERHEAD:       595 INTEGRALS, T=        0.00

 DFT CODE IS SWITCHING FROM THE FINE GRID NRAD=144,  NLEB= 1202
                      TO THE COARSE GRID NRAD0= 96, NLEB0=  590

     EXCHANGE FUNCTIONAL   =BECKE88   
     CORRELATION FUNCTIONAL=PBE       
     DFT THRESHOLD         =.217E-08
     GRID CHANGE THRESHOLD =.300E-03
 FOR AN EULER-MACLAURIN QUADRATURE USING 144 RADIAL POINTS:
 SMALLEST GAUSSIAN PRIMITIVE EXPONENT=        0.1612777588 OF TYPE -S-
 ON ATOM NUMBER   3 HAS RADIAL NORMALIZATION=  1.000000
  LARGEST GAUSSIAN PRIMITIVE EXPONENT=     5484.6716600000 OF TYPE -S-
 ON ATOM NUMBER   2 HAS RADIAL NORMALIZATION=  1.000000

                                                                                NONZERO     BLOCKS
 ITER EX      TOTAL ENERGY        E CHANGE  DENSITY CHANGE    DIIS ERROR      INTEGRALS    SKIPPED
          * * *   INITIATING DIIS PROCEDURE   * * *
   1  0     -114.0574294534  -114.0574294534   0.227801903   0.158691565         165123          1
   2  1     -114.0778870238    -0.0204575704   0.091185301   0.103052178         165118          6
   3  2     -114.0935419808    -0.0156549570   0.040039959   0.057250537         165118          6
   4  3     -114.0984230563    -0.0048810755   0.020290342   0.010270820         165118          6
   5  4     -114.0988294436    -0.0004063873   0.006872461   0.004854380         165104         10
   6  5     -114.0989607013    -0.0001312577   0.003977569   0.002079357         165098         13
   7  6     -114.0989901816    -0.0000294803   0.000775104   0.000416011         165077         18
   8  7     -114.0989909261    -0.0000007446   0.000193606   0.000093338         164928         38
 DFT CODE IS SWITCHING BACK TO THE FINE GRID
          * * *   INITIATING DIIS PROCEDURE   * * *
   9  8     -114.0989909650    -0.0000000389   0.000033711   0.000022452         165123          1
  10  9     -114.0989909666    -0.0000000015   0.000013049   0.000011842         164196        134
  11 10     -114.0989909669    -0.0000000003   0.000012679   0.000007277         163797        166

          -----------------
          DENSITY CONVERGED
          -----------------
     TIME TO FORM FOCK OPERATORS=      17.4 SECONDS (       1.6 SEC/ITER)
     FOCK TIME ON FIRST ITERATION=       1.0, LAST ITERATION=       3.0
     TIME TO SOLVE SCF EQUATIONS=       0.0 SECONDS (       0.0 SEC/ITER)

 FINAL U-BPBE ENERGY IS     -114.0989909669 AFTER  11 ITERATIONS
 DFT EXCHANGE + CORRELATION ENERGY =       -11.6476356902
 TOTAL ELECTRON NUMBER             =        15.9999999993

          --------------------
          SPIN SZ   =    1.000
          S-SQUARED =    2.004
          --------------------

  ----- ALPHA SET ----- 

          ------------
          EIGENVECTORS
          ------------

                      1          2          3          4          5
                  -19.0286   -10.1111    -1.1974    -0.7550    -0.6312
                     A          A          A          A          A   
    1  C  1  S    0.000031   0.991599  -0.106937  -0.168729   0.000001
    2  C  1  S    0.000706   0.056455   0.194787   0.327027  -0.000002
    3  C  1  X   -0.000001  -0.000017  -0.002015   0.001825   0.365768
    4  C  1  Y   -0.000091  -0.001505  -0.173836   0.157181  -0.004232
    5  C  1  Z   -0.000000  -0.000008  -0.000947   0.000856  -0.001217
    6  C  1  S   -0.003305  -0.007331   0.078599   0.351361   0.000004
    7  C  1  X    0.000028  -0.000020   0.000150   0.000749   0.147006
    8  C  1  Y    0.002436  -0.001704   0.012901   0.064798  -0.001700
    9  C  1  Z    0.000013  -0.000009   0.000070   0.000353  -0.000489
   10  C  1 XX   -0.000031  -0.012343  -0.013752   0.015715  -0.000087
   11  C  1 YY   -0.000795  -0.011153   0.025749  -0.011008   0.000086
   12  C  1 ZZ    0.000001  -0.012242  -0.017811  -0.008829  -0.000000
   13  C  1 XY   -0.000010   0.000016   0.000529  -0.000357  -0.004329
   14  C  1 XZ    0.000000   0.000000  -0.000012  -0.000094  -0.000023
   15  C  1 YZ   -0.000005   0.000007   0.000274  -0.000013   0.000015
   16  O  2  S    0.992130  -0.000156  -0.203583   0.090570  -0.000001
   17  O  2  S    0.027688   0.000200   0.457399  -0.203518   0.000002
   18  O  2  X    0.000013  -0.000001   0.001843   0.001912   0.436830
   19  O  2  Y    0.001106  -0.000097   0.158966   0.164866  -0.005059
   20  O  2  Z    0.000006  -0.000001   0.000866   0.000898  -0.001454
   21  O  2  S    0.014897  -0.001864   0.391877  -0.298679   0.000003
   22  O  2  X    0.000017  -0.000022   0.000500   0.000878   0.236703
   23  O  2  Y    0.001473  -0.001925   0.043105   0.075577  -0.002742
   24  O  2  Z    0.000008  -0.000011   0.000235   0.000412  -0.000788
   25  O  2 XX   -0.009123   0.000199   0.004346  -0.003461   0.000544
   26  O  2 YY   -0.008901  -0.000632   0.004216   0.021559  -0.000543
   27  O  2 ZZ   -0.009282   0.000254  -0.010857   0.002637  -0.000001
   28  O  2 XY    0.000003  -0.000011  -0.000001   0.000335   0.027078
   29  O  2 XZ   -0.000001   0.000000  -0.000057   0.000025   0.000146
   30  O  2 YZ    0.000002  -0.000006   0.000095   0.000119  -0.000092
   31  H  3  S    0.000083  -0.000345   0.023367   0.171649  -0.154926
   32  H  3  S   -0.000214   0.002090  -0.004567   0.074172  -0.100917
   33  H  4  S    0.000083  -0.000345   0.023368   0.171653   0.154924
   34  H  4  S   -0.000214   0.002090  -0.004567   0.074177   0.100910

                      6          7          8          9         10
                   -0.5846    -0.5460    -0.4400    -0.2438     0.1907
                     A          A          A          A          A   
    1  C  1  S   -0.012161   0.000000   0.000000  -0.000000  -0.139085
    2  C  1  S    0.047869   0.000000   0.000000  -0.000000   0.209481
    3  C  1  X   -0.004193   0.001013  -0.255575   0.001777   0.002561
    4  C  1  Y   -0.361856  -0.001702   0.002958  -0.002987   0.221643
    5  C  1  Z   -0.001970   0.310364   0.000851   0.544422   0.001208
    6  C  1  S   -0.033735  -0.000000  -0.000006   0.000004   1.879034
    7  C  1  X   -0.000935   0.000561  -0.082858   0.001846   0.007542
    8  C  1  Y   -0.081097  -0.000943   0.000956  -0.003104   0.649373
    9  C  1  Z   -0.000441   0.171703   0.000276   0.565330   0.003537
   10  C  1 XX   -0.020151  -0.000002  -0.000914   0.000002  -0.013182
   11  C  1 YY    0.009050   0.000232   0.000913  -0.000246  -0.013670
   12  C  1 ZZ   -0.007854  -0.000231   0.000002   0.000245   0.004370
   13  C  1 XY    0.000390  -0.000078  -0.045523   0.000083  -0.000007
   14  C  1 XZ    0.000048  -0.000284  -0.000246   0.000301   0.000066
   15  C  1 YZ    0.000106  -0.024454   0.000154   0.025941  -0.000115
   16  O  2  S    0.070017  -0.000000   0.000000   0.000000   0.008047
   17  O  2  S   -0.138332   0.000000  -0.000000   0.000000  -0.028773
   18  O  2  X    0.006146   0.001852   0.531681  -0.001359  -0.001057
   19  O  2  Y    0.529971  -0.003114  -0.006154   0.002283  -0.091392
   20  O  2  Z    0.002889   0.567373  -0.001769  -0.416288  -0.000497
   21  O  2  S   -0.332792  -0.000000  -0.000000  -0.000005   0.004466
   22  O  2  X    0.003042   0.001074   0.364489  -0.001303  -0.001073
   23  O  2  Y    0.262424  -0.001806  -0.004218   0.002187  -0.092355
   24  O  2  Z    0.001430   0.329019  -0.001213  -0.399127  -0.000504
   25  O  2 XX   -0.004638   0.000002   0.000260   0.000001  -0.010266
   26  O  2 YY    0.037298  -0.000269  -0.000260  -0.000038   0.004488
   27  O  2 ZZ    0.001598   0.000267  -0.000000   0.000038   0.004492
   28  O  2 XY    0.000561   0.000090   0.012943   0.000013   0.000197
   29  O  2 XZ    0.000027   0.000328   0.000070   0.000046   0.000057
   30  O  2 YZ    0.000224   0.028260  -0.000044   0.003966  -0.000001
   31  H  3  S   -0.101710   0.000000   0.215422   0.000000  -0.095867
   32  H  3  S   -0.088425   0.000001   0.243471   0.000000  -1.349360
   33  H  4  S   -0.101710   0.000000  -0.215419  -0.000000  -0.095865
   34  H  4  S   -0.088430   0.000001  -0.243459  -0.000000  -1.349392

                     11         12         13         14         15
                    0.2686     0.2968     0.6112     0.7066     0.7177
                     A          A          A          A          A   
    1  C  1  S    0.000003   0.052038   0.000000  -0.000017  -0.081241
    2  C  1  S   -0.000001  -0.004209   0.000001  -0.000080  -0.246366
    3  C  1  X   -0.514211   0.001800  -0.003333  -0.728236  -0.008313
    4  C  1  Y    0.005960   0.152785   0.005601   0.008274  -0.730459
    5  C  1  Z    0.001712   0.000835  -1.020216   0.002425  -0.003984
    6  C  1  S   -0.000102  -1.538671  -0.000005   0.000292   1.060979
    7  C  1  X   -1.397890   0.022688   0.003846   1.993589   0.012860
    8  C  1  Y    0.016267   1.952546  -0.006456  -0.022811   1.145559
    9  C  1  Z    0.004653   0.010635   1.176421  -0.006636   0.006247
   10  C  1 XX    0.000119  -0.019466   0.000002  -0.001241  -0.133227
   11  C  1 YY   -0.000118   0.014014  -0.000212   0.001178  -0.141607
   12  C  1 ZZ    0.000000  -0.010029   0.000211   0.000021   0.098324
   13  C  1 XY    0.005933   0.000449   0.000072  -0.060163  -0.000102
   14  C  1 XZ    0.000032   0.000038   0.000260  -0.000325   0.000872
   15  C  1 YZ   -0.000020   0.000151   0.022375   0.000204  -0.001520
   16  O  2  S   -0.000006  -0.112808  -0.000000   0.000006   0.028077
   17  O  2  S    0.000003   0.108590   0.000003  -0.000060  -0.300728
   18  O  2  X    0.165065   0.002335  -0.000158  -0.408593  -0.002684
   19  O  2  Y   -0.001900   0.202161   0.000267   0.004685  -0.239824
   20  O  2  Z   -0.000549   0.001101  -0.048321   0.001360  -0.001306
   21  O  2  S    0.000111   2.119231  -0.000002   0.000102   0.528996
   22  O  2  X    0.350860   0.010270  -0.000430  -0.060263  -0.001738
   23  O  2  Y   -0.004012   0.887214   0.000723   0.000659  -0.150243
   24  O  2  Z   -0.001168   0.004834  -0.131512   0.000201  -0.000820
   25  O  2 XX   -0.000350  -0.072959  -0.000004  -0.000503  -0.114182
   26  O  2 YY    0.000345  -0.008496   0.000706   0.000489   0.053158
   27  O  2 ZZ   -0.000004  -0.073399  -0.000700  -0.000011  -0.068882
   28  O  2 XY   -0.017222   0.000864  -0.000238  -0.023951   0.002243
   29  O  2 XZ   -0.000093   0.000003  -0.000862  -0.000130   0.000183
   30  O  2 YZ    0.000058   0.000409  -0.074247   0.000082   0.000765
   31  H  3  S   -0.034507   0.025952   0.000002   0.347964  -0.516806
   32  H  3  S   -1.566003  -0.224240   0.000003   0.711548  -0.161242
   33  H  4  S    0.034510   0.025951   0.000001  -0.348201  -0.516640
   34  H  4  S    1.566004  -0.224386  -0.000001  -0.711645  -0.160968

                     16         17         18         19         20
                    0.7740     0.9036     0.9096     0.9866     1.0195
                     A          A          A          A          A   
    1  C  1  S    0.018317   0.000000  -0.056819   0.013497   0.000000
    2  C  1  S   -0.967062   0.000014   0.055404  -1.486780  -0.000024
    3  C  1  X    0.007574  -0.760701   0.004639  -0.005056   0.000182
    4  C  1  Y    0.653060   0.008803   0.399445  -0.436058  -0.000312
    5  C  1  Z    0.003559   0.002532   0.002177  -0.002377   0.055659
    6  C  1  S    1.300361  -0.000029  -0.954301   3.089370   0.000049
    7  C  1  X   -0.002395   1.328343  -0.003289   0.007388  -0.001576
    8  C  1  Y   -0.205595  -0.015388  -0.282434   0.636325   0.002659
    9  C  1  Z   -0.001121  -0.004422  -0.001540   0.003474  -0.482542
   10  C  1 XX   -0.211732   0.003764   0.018019   0.017629   0.000001
   11  C  1 YY    0.091891  -0.003756  -0.210384  -0.151676  -0.000160
   12  C  1 ZZ   -0.021260  -0.000008   0.097716  -0.106946   0.000155
   13  C  1 XY    0.004063   0.187265  -0.003061  -0.002265   0.000053
   14  C  1 XZ    0.000740   0.001013   0.000284  -0.000482   0.000192
   15  C  1 YZ    0.000703  -0.000635  -0.001941  -0.000277   0.016561
   16  O  2  S   -0.033769   0.000000  -0.005075   0.006665   0.000000
   17  O  2  S   -0.042883   0.000015   0.526014   0.245708   0.000001
   18  O  2  X    0.004550   0.175107  -0.007663  -0.001829  -0.003031
   19  O  2  Y    0.391571  -0.002036  -0.660704  -0.158830   0.005093
   20  O  2  Z    0.002134  -0.000583  -0.003601  -0.000851  -0.928585
   21  O  2  S    0.051461  -0.000028  -0.613599  -0.720651  -0.000006
   22  O  2  X    0.000860  -0.220111   0.013917   0.001839   0.004124
   23  O  2  Y    0.074685   0.002557   1.200199   0.160184  -0.006929
   24  O  2  Z    0.000406   0.000733   0.006541   0.000853   1.263455
   25  O  2 XX    0.010740  -0.002563   0.190819   0.090285  -0.000001
   26  O  2 YY   -0.231902   0.002571   0.242693   0.067844   0.000293
   27  O  2 ZZ    0.024524   0.000008   0.176543   0.124055  -0.000290
   28  O  2 XY   -0.003249  -0.127903   0.000696  -0.000301  -0.000099
   29  O  2 XZ    0.000034  -0.000692  -0.000050   0.000126  -0.000358
   30  O  2 YZ   -0.001614   0.000434   0.000417  -0.000355  -0.030833
   31  H  3  S   -0.400919  -0.710503  -0.247481   0.484782   0.000008
   32  H  3  S   -0.018384   1.431282   0.484064  -1.336713  -0.000023
   33  H  4  S   -0.400889   0.710516  -0.247499   0.484783   0.000007
   34  H  4  S   -0.018406  -1.431262   0.484101  -1.336732  -0.000021

                     21         22         23         24         25
                    1.0955     1.4358     1.5861     1.5889     1.7314
                     A          A          A          A          A   
    1  C  1  S    0.000000  -0.026922   0.000000   0.000000  -0.018490
    2  C  1  S    0.000021  -0.013279   0.000000  -0.000001  -0.183429
    3  C  1  X   -0.302519   0.001799  -0.000000   0.000710  -0.000587
    4  C  1  Y    0.003506   0.155850   0.000000  -0.001193  -0.050779
    5  C  1  Z    0.001007   0.000849   0.000014   0.217351  -0.000276
    6  C  1  S   -0.000016  -2.650367   0.000000   0.000011   1.042201
    7  C  1  X    1.703711   0.019780   0.000001  -0.000446  -0.000337
    8  C  1  Y   -0.019735   1.704341  -0.000001   0.000742  -0.028289
    9  C  1  Z   -0.005671   0.009286  -0.000009  -0.136415  -0.000154
   10  C  1 XX   -0.003338   0.224497   0.004278   0.000041   0.346485
   11  C  1 YY    0.003336  -0.168901   0.000083  -0.006194   0.042489
   12  C  1 ZZ    0.000004  -0.050048  -0.004361   0.006152  -0.403305
   13  C  1 XY   -0.166212  -0.005260  -0.004178   0.002087  -0.004058
   14  C  1 XZ   -0.000899  -0.001064   0.756465   0.007520  -0.002849
   15  C  1 YZ    0.000564  -0.000732  -0.008699   0.651831   0.002838
   16  O  2  S    0.000001  -0.090440   0.000000   0.000000   0.017823
   17  O  2  S    0.000013  -1.700249   0.000001   0.000006   0.255513
   18  O  2  X    0.800524  -0.003771   0.000000   0.000371   0.000477
   19  O  2  Y   -0.009261  -0.325764   0.000000  -0.000622   0.041407
   20  O  2  Z   -0.002664  -0.001774   0.000007   0.113652   0.000225
   21  O  2  S   -0.000033   5.052109  -0.000002  -0.000019  -0.816385
   22  O  2  X   -1.511905   0.020772  -0.000000   0.000394  -0.003717
   23  O  2  Y    0.017484   1.793107  -0.000001  -0.000669  -0.321094
   24  O  2  Z    0.005031   0.009769   0.000008   0.120689  -0.001749
   25  O  2 XX    0.002398  -0.264877   0.003220  -0.000037   0.779275
   26  O  2 YY   -0.002387  -0.583787   0.000063   0.005370   0.093927
   27  O  2 ZZ   -0.000001  -0.414281  -0.003282  -0.005328  -0.691626
   28  O  2 XY    0.119217  -0.004263  -0.003145  -0.001808  -0.009139
   29  O  2 XZ    0.000645  -0.000587   0.569326  -0.006594  -0.005596
   30  O  2 YZ   -0.000404  -0.001061  -0.006614  -0.564876   0.005005
   31  H  3  S    0.207181   0.090432  -0.000001   0.000000  -0.251673
   32  H  3  S    0.653799  -0.055145   0.000001  -0.000001  -0.158031
   33  H  4  S   -0.207187   0.090430   0.000000   0.000000  -0.251667
   34  H  4  S   -0.653774  -0.055173  -0.000000  -0.000000  -0.158026

                     26         27         28         29         30
                    1.8895     1.9735     2.1855     2.3449     2.6072
                     A          A          A          A          A   
    1  C  1  S   -0.000000   0.000000   0.057269  -0.056732  -0.000000
    2  C  1  S    0.000004  -0.000000   0.178415  -0.005581  -0.000004
    3  C  1  X    0.284341   0.000000  -0.000493  -0.001258  -0.000824
    4  C  1  Y   -0.003288  -0.000000  -0.041983  -0.108388   0.001388
    5  C  1  Z   -0.000946   0.000000  -0.000229  -0.000590  -0.252445
    6  C  1  S    0.000002   0.000000  -0.841882   0.132160   0.000002
    7  C  1  X    0.819083   0.000000  -0.000340  -0.005167  -0.000934
    8  C  1  Y   -0.009475   0.000000  -0.028738  -0.445625   0.001569
    9  C  1  Z   -0.002726   0.000000  -0.000156  -0.002428  -0.285809
   10  C  1 XX    0.009823  -0.003760  -0.585340  -0.876385   0.000065
   11  C  1 YY   -0.009812  -0.000073  -0.256698   0.983361  -0.009312
   12  C  1 ZZ   -0.000013   0.003833   0.997804  -0.328583   0.009246
   13  C  1 XY    0.489394   0.003673   0.004367   0.024883   0.003138
   14  C  1 XZ    0.002648  -0.664965   0.005993   0.002202   0.011375
   15  C  1 YZ   -0.001660   0.007683  -0.007960   0.008229   0.979866
   16  O  2  S    0.000000   0.000000   0.005763   0.002369  -0.000000
   17  O  2  S   -0.000000  -0.000000  -0.004332  -0.513228  -0.000001
   18  O  2  X    0.258658   0.000000   0.001648  -0.007119  -0.000021
   19  O  2  Y   -0.002993  -0.000000   0.142294  -0.614148   0.000035
   20  O  2  Z   -0.000861   0.000000   0.000775  -0.003346  -0.006305
   21  O  2  S    0.000003   0.000000   0.231043   0.137904   0.000005
   22  O  2  X   -0.479375  -0.000000   0.000310   0.003504   0.001578
   23  O  2  Y    0.005548  -0.000000   0.026280   0.302198  -0.002646
   24  O  2  Z    0.001595  -0.000000   0.000143   0.001646   0.483009
   25  O  2 XX   -0.014657   0.004698   0.555588  -0.065201   0.000064
   26  O  2 YY    0.014642   0.000091  -0.098458   0.024527  -0.009687
   27  O  2 ZZ    0.000015  -0.004790  -0.336280  -0.316577   0.009621
   28  O  2 XY   -0.730437  -0.004590  -0.008726   0.001209   0.003266
   29  O  2 XZ   -0.003952   0.830833  -0.003410  -0.000941   0.011840
   30  O  2 YZ    0.002478  -0.009600   0.001536   0.002156   1.019885
   31  H  3  S    0.564803   0.000001   0.409624   0.238737   0.000000
   32  H  3  S    0.124256  -0.000001   0.059751  -0.018928  -0.000002
   33  H  4  S   -0.564806  -0.000000   0.409634   0.238738  -0.000000
   34  H  4  S   -0.124261  -0.000000   0.059755  -0.018926  -0.000001

                     31         32         33         34
                    2.7024     2.9539     3.6929     4.1543
                     A          A          A          A   
    1  C  1  S   -0.000001  -0.042831   0.000242  -0.476337
    2  C  1  S   -0.000009  -1.266471  -0.163596   2.938852
    3  C  1  X   -0.108203   0.015525  -0.000589   0.003412
    4  C  1  Y    0.001266   1.339438  -0.050733   0.294507
    5  C  1  Z    0.000360   0.007298  -0.000276   0.001605
    6  C  1  S   -0.000002  -1.404256  -1.806954   1.134604
    7  C  1  X   -0.276937   0.009221   0.011906   0.004832
    8  C  1  Y    0.003211   0.794775   1.026791   0.416849
    9  C  1  Z    0.000922   0.004331   0.005594   0.002271
   10  C  1 XX    0.022813   0.281396   0.045131  -1.774168
   11  C  1 YY   -0.022779  -0.782298   0.148010  -2.149462
   12  C  1 ZZ   -0.000040   0.380723   0.141045  -1.732694
   13  C  1 XY    1.135850  -0.014251   0.001373  -0.005027
   14  C  1 XZ    0.006145   0.000296   0.000369   0.000129
   15  C  1 YZ   -0.003853  -0.007324   0.000039  -0.002624
   16  O  2  S   -0.000001  -0.048626  -0.512740  -0.027162
   17  O  2  S   -0.000002  -0.686593  -0.086791   0.036328
   18  O  2  X    0.041881   0.003332  -0.002876   0.002907
   19  O  2  Y   -0.000481   0.287458  -0.248111   0.250853
   20  O  2  Z   -0.000139   0.001566  -0.001352   0.001367
   21  O  2  S    0.000021   2.864465   5.212357   0.548920
   22  O  2  X    0.399195   0.020515   0.012266   0.005129
   23  O  2  Y   -0.004607   1.770474   1.058402   0.442500
   24  O  2  Z   -0.001329   0.009644   0.005766   0.002411
   25  O  2 XX    0.018363  -0.662366  -1.747929  -0.120654
   26  O  2 YY   -0.018331   1.499915  -1.526968   0.287353
   27  O  2 ZZ   -0.000036  -0.703224  -1.776714  -0.158062
   28  O  2 XY    0.915061   0.028936   0.002957   0.005461
   29  O  2 XZ    0.004951   0.000004  -0.000092  -0.000111
   30  O  2 YZ   -0.003104   0.013859   0.001572   0.002803
   31  H  3  S    0.373522   0.062459   0.083598   0.174779
   32  H  3  S   -0.295281  -0.020765  -0.012852  -0.448254
   33  H  4  S   -0.373534   0.062466   0.083599   0.174785
   34  H  4  S    0.295280  -0.020778  -0.012857  -0.448259

  ----- BETA SET ----- 

          ------------
          EIGENVECTORS
          ------------

                      1          2          3          4          5
                  -19.0013   -10.1005    -1.1448    -0.6996    -0.5609
                     A          A          A          A          A   
    1  C  1  S    0.000021   0.992077  -0.113186  -0.162149   0.000001
    2  C  1  S    0.000540   0.053470   0.202789   0.317084  -0.000004
    3  C  1  X    0.000000  -0.000021  -0.002130   0.002022   0.433133
    4  C  1  Y    0.000040  -0.001801  -0.183796   0.174104  -0.005001
    5  C  1  Z    0.000000  -0.000010  -0.001001   0.000948  -0.001441
    6  C  1  S   -0.002511  -0.007437   0.088285   0.307045   0.000005
    7  C  1  X    0.000022  -0.000022   0.000078   0.000927   0.208869
    8  C  1  Y    0.001912  -0.001877   0.006712   0.080139  -0.002413
    9  C  1  Z    0.000010  -0.000010   0.000037   0.000436  -0.000695
   10  C  1 XX   -0.000006  -0.010930  -0.010623   0.023054  -0.000015
   11  C  1 YY   -0.000825  -0.009479   0.029912  -0.003404   0.000014
   12  C  1 ZZ    0.000005  -0.011734  -0.023022  -0.021584  -0.000000
   13  C  1 XY   -0.000011   0.000019   0.000543  -0.000353  -0.000760
   14  C  1 XZ   -0.000000  -0.000003  -0.000044  -0.000170  -0.000004
   15  C  1 YZ   -0.000005   0.000014   0.000334   0.000116   0.000003
   16  O  2  S    0.992635  -0.000169  -0.196592   0.092542  -0.000003
   17  O  2  S    0.026634   0.000150   0.429448  -0.213209   0.000007
   18  O  2  X    0.000013  -0.000003   0.001972   0.001779   0.263210
   19  O  2  Y    0.001160  -0.000254   0.170108   0.153359  -0.003066
   20  O  2  Z    0.000006  -0.000001   0.000927   0.000835  -0.000876
   21  O  2  S    0.012435  -0.002133   0.383386  -0.271812   0.000014
   22  O  2  X    0.000013  -0.000025   0.000575   0.001040   0.141970
   23  O  2  Y    0.001157  -0.002179   0.049604   0.089588  -0.001654
   24  O  2  Z    0.000006  -0.000012   0.000270   0.000488  -0.000473
   25  O  2 XX   -0.008373   0.000212  -0.008422   0.000462   0.000509
   26  O  2 YY   -0.007720  -0.000810   0.015325   0.010623  -0.000510
   27  O  2 ZZ   -0.008295   0.000359  -0.007860  -0.001163  -0.000001
   28  O  2 XY    0.000009  -0.000014   0.000318   0.000136   0.025362
   29  O  2 XZ    0.000000   0.000000   0.000004  -0.000005   0.000137
   30  O  2 YZ    0.000004  -0.000007   0.000146   0.000074  -0.000086
   31  H  3  S    0.000063  -0.000458   0.026467   0.172817  -0.190175
   32  H  3  S   -0.000181   0.002177  -0.001184   0.085683  -0.123427
   33  H  4  S    0.000063  -0.000458   0.026468   0.172822   0.190179
   34  H  4  S   -0.000181   0.002177  -0.001185   0.085690   0.123424

                      6          7          8          9         10
                   -0.5511    -0.4770    -0.0809     0.1064     0.2180
                     A          A          A          A          A   
    1  C  1  S   -0.011773   0.000000   0.000000  -0.000000  -0.134569
    2  C  1  S    0.050381   0.000000   0.000000  -0.000000   0.201917
    3  C  1  X   -0.004150   0.000927  -0.114133   0.001556   0.002689
    4  C  1  Y   -0.359394  -0.001557   0.001321  -0.002614   0.232450
    5  C  1  Z   -0.001958   0.283812   0.000380   0.476443   0.001267
    6  C  1  S   -0.031874  -0.000000  -0.000002   0.000004   1.794159
    7  C  1  X   -0.000904   0.000551   0.092402   0.002152   0.009023
    8  C  1  Y   -0.079020  -0.000926  -0.001072  -0.003620   0.776800
    9  C  1  Z   -0.000430   0.168607  -0.000307   0.659050   0.004232
   10  C  1 XX   -0.020136  -0.000002  -0.000987   0.000001  -0.006389
   11  C  1 YY    0.009765   0.000310   0.000986  -0.000191  -0.006260
   12  C  1 ZZ   -0.006302  -0.000307   0.000002   0.000190  -0.010921
   13  C  1 XY    0.000400  -0.000104  -0.049152   0.000064   0.000002
   14  C  1 XZ    0.000054  -0.000378  -0.000266   0.000234  -0.000017
   15  C  1 YZ    0.000100  -0.032581   0.000167   0.020121   0.000029
   16  O  2  S    0.075938   0.000000   0.000000   0.000000   0.000024
   17  O  2  S   -0.143026   0.000000  -0.000000   0.000000  -0.021701
   18  O  2  X    0.006051   0.001805   0.559728  -0.001260  -0.000828
   19  O  2  Y    0.521120  -0.003033  -0.006478   0.002116  -0.071553
   20  O  2  Z    0.002839   0.552858  -0.001863  -0.385837  -0.000389
   21  O  2  S   -0.361009  -0.000001  -0.000002  -0.000006   0.143627
   22  O  2  X    0.003111   0.001175   0.426620  -0.001417  -0.000399
   23  O  2  Y    0.267989  -0.001975  -0.004938   0.002377  -0.034202
   24  O  2  Z    0.001460   0.359963  -0.001420  -0.433856  -0.000187
   25  O  2 XX    0.003323   0.000002   0.000366   0.000001  -0.015364
   26  O  2 YY    0.033727  -0.000341  -0.000366  -0.000064   0.002187
   27  O  2 ZZ    0.003839   0.000339  -0.000001   0.000064  -0.000370
   28  O  2 XY    0.000408   0.000115   0.018231   0.000022   0.000234
   29  O  2 XZ    0.000004   0.000417   0.000099   0.000078   0.000058
   30  O  2 YZ    0.000188   0.035886  -0.000062   0.006749   0.000015
   31  H  3  S   -0.096896   0.000000   0.178071   0.000000  -0.069152
   32  H  3  S   -0.089462   0.000001   0.357427   0.000001  -1.383678
   33  H  4  S   -0.096884   0.000000  -0.178070   0.000000  -0.069151
   34  H  4  S   -0.089459   0.000001  -0.357419   0.000000  -1.383721

                     11         12         13         14         15
                    0.2983     0.3188     0.6638     0.7354     0.7553
                     A          A          A          A          A   
    1  C  1  S   -0.000004   0.059922   0.000000  -0.000011  -0.087254
    2  C  1  S    0.000001  -0.017193   0.000001  -0.000054  -0.177086
    3  C  1  X    0.512408   0.001315  -0.003446  -0.773758  -0.009169
    4  C  1  Y   -0.005941   0.110097   0.005792   0.008856  -0.799584
    5  C  1  Z   -0.001706   0.000603  -1.054938   0.002577  -0.004362
    6  C  1  S    0.000132  -1.674141  -0.000007   0.000216   1.120058
    7  C  1  X    1.392111   0.022572   0.003674   2.170976   0.012921
    8  C  1  Y   -0.016235   1.940567  -0.006168  -0.024963   1.138318
    9  C  1  Z   -0.004634   0.010571   1.123780  -0.007227   0.006208
   10  C  1 XX   -0.000011  -0.025291   0.000002  -0.001062  -0.108733
   11  C  1 YY    0.000011   0.007305  -0.000252   0.001024  -0.143429
   12  C  1 ZZ   -0.000001   0.001770   0.000251   0.000010   0.082491
   13  C  1 XY   -0.000589   0.000437   0.000085  -0.051882  -0.000460
   14  C  1 XZ   -0.000003   0.000104   0.000309  -0.000281   0.000718
   15  C  1 YZ    0.000002   0.000034   0.026621   0.000176  -0.001430
   16  O  2  S    0.000008  -0.114470  -0.000000   0.000004   0.036576
   17  O  2  S   -0.000005   0.102545   0.000003  -0.000037  -0.329313
   18  O  2  X   -0.208717   0.002222  -0.000147  -0.387963  -0.002969
   19  O  2  Y    0.002403   0.192870   0.000248   0.004465  -0.261081
   20  O  2  Z    0.000695   0.001050  -0.044902   0.001291  -0.001422
   21  O  2  S   -0.000151   2.151762  -0.000002   0.000050   0.482472
   22  O  2  X   -0.419907   0.010343  -0.000282  -0.169388  -0.002511
   23  O  2  Y    0.004795   0.894389   0.000475   0.001926  -0.217945
   24  O  2  Z    0.001397   0.004873  -0.086321   0.000564  -0.001188
   25  O  2 XX    0.000245  -0.076131  -0.000004  -0.000617  -0.115231
   26  O  2 YY   -0.000238  -0.000614   0.000778   0.000608   0.057679
   27  O  2 ZZ    0.000006  -0.073284  -0.000772  -0.000006  -0.080019
   28  O  2 XY    0.011894   0.001012  -0.000262  -0.030104   0.002317
   29  O  2 XZ    0.000064   0.000016  -0.000950  -0.000163   0.000145
   30  O  2 YZ   -0.000040   0.000457  -0.081856   0.000102   0.000864
   31  H  3  S    0.003487   0.016415   0.000002   0.319507  -0.471815
   32  H  3  S    1.562385  -0.127559   0.000003   0.846740  -0.220100
   33  H  4  S   -0.003488   0.016416   0.000001  -0.319647  -0.471719
   34  H  4  S   -1.562381  -0.127757  -0.000001  -0.846827  -0.219906

                     16         17         18         19         20
                    0.8029     0.9317     0.9341     1.0178     1.0601
                     A          A          A          A          A   
    1  C  1  S    0.009006  -0.000001  -0.061588   0.019645   0.000000
    2  C  1  S   -0.981246   0.000012  -0.030194  -1.480881  -0.000017
    3  C  1  X    0.006899  -0.717186   0.004178  -0.005141   0.000269
    4  C  1  Y    0.594363   0.008310   0.358088  -0.443474  -0.000457
    5  C  1  Z    0.003239   0.002387   0.001951  -0.002417   0.082368
    6  C  1  S    1.366262  -0.000048  -0.760797   3.040102   0.000034
    7  C  1  X   -0.000957   1.148944  -0.002200   0.007535  -0.001608
    8  C  1  Y   -0.080159  -0.013315  -0.186238   0.649622   0.002710
    9  C  1  Z   -0.000437  -0.003825  -0.001015   0.003545  -0.492370
   10  C  1 XX   -0.228996   0.003991   0.022357   0.013181   0.000002
   11  C  1 YY    0.077870  -0.003989  -0.225334  -0.150458  -0.000260
   12  C  1 ZZ   -0.012278  -0.000005   0.087553  -0.102904   0.000256
   13  C  1 XY    0.004106   0.198565  -0.003324  -0.002188   0.000087
   14  C  1 XZ    0.000840   0.001074   0.000228  -0.000449   0.000316
   15  C  1 YZ    0.000557  -0.000673  -0.001971  -0.000295   0.027182
   16  O  2  S   -0.035154   0.000000  -0.004951   0.004402  -0.000000
   17  O  2  S   -0.076425   0.000027   0.506717   0.206824   0.000000
   18  O  2  X    0.004252   0.191625  -0.007991  -0.001362  -0.003097
   19  O  2  Y    0.365730  -0.002244  -0.688618  -0.118437   0.005203
   20  O  2  Z    0.001993  -0.000638  -0.003752  -0.000635  -0.948645
   21  O  2  S    0.158844  -0.000039  -0.574660  -0.624239  -0.000002
   22  O  2  X    0.001067  -0.163457   0.014177   0.001424   0.004081
   23  O  2  Y    0.092294   0.001933   1.222443   0.123884  -0.006856
   24  O  2  Z    0.000502   0.000545   0.006661   0.000661   1.250088
   25  O  2 XX   -0.015233  -0.002507   0.183685   0.076063  -0.000002
   26  O  2 YY   -0.230028   0.002525   0.252415   0.050399   0.000307
   27  O  2 ZZ    0.020642   0.000012   0.180480   0.113112  -0.000305
   28  O  2 XY   -0.002876  -0.125319   0.000925  -0.000344  -0.000104
   29  O  2 XZ    0.000119  -0.000678  -0.000007   0.000138  -0.000376
   30  O  2 YZ   -0.001579   0.000425   0.000453  -0.000396  -0.032355
   31  H  3  S   -0.439372  -0.733953  -0.236562   0.513226   0.000006
   32  H  3  S   -0.047594   1.340600   0.390009  -1.335632  -0.000016
   33  H  4  S   -0.439341   0.733950  -0.236618   0.513230   0.000005
   34  H  4  S   -0.047600  -1.340559   0.390109  -1.335645  -0.000015

                     21         22         23         24         25
                    1.1551     1.4682     1.6317     1.6384     1.7891
                     A          A          A          A          A   
    1  C  1  S    0.000000  -0.023128   0.000000  -0.000000  -0.017766
    2  C  1  S    0.000017   0.004928  -0.000001   0.000000  -0.221674
    3  C  1  X   -0.293527   0.001838   0.000779  -0.000000  -0.000296
    4  C  1  Y    0.003401   0.159172  -0.001309   0.000000  -0.025643
    5  C  1  Z    0.000977   0.000867   0.238499  -0.000006  -0.000139
    6  C  1  S   -0.000004  -2.727320   0.000011  -0.000000   0.993077
    7  C  1  X    1.615427   0.019722  -0.000426   0.000001   0.000282
    8  C  1  Y   -0.018712   1.699230   0.000708  -0.000000   0.025118
    9  C  1  Z   -0.005377   0.009258  -0.130241   0.000003   0.000137
   10  C  1 XX   -0.003404   0.228670   0.000041   0.004313   0.371175
   11  C  1 YY    0.003401  -0.172999  -0.006096   0.000084   0.031762
   12  C  1 ZZ    0.000004  -0.035875   0.006054  -0.004397  -0.421031
   13  C  1 XY   -0.169499  -0.005371   0.002054  -0.004213  -0.004532
   14  C  1 XZ   -0.000917  -0.001027   0.007467   0.762720  -0.003012
   15  C  1 YZ    0.000575  -0.000848   0.641526  -0.008829   0.002883
   16  O  2  S    0.000001  -0.094507   0.000000   0.000000   0.010193
   17  O  2  S    0.000015  -1.707514   0.000006   0.000000   0.224749
   18  O  2  X    0.847862  -0.003639   0.000417   0.000000   0.000484
   19  O  2  Y   -0.009809  -0.314415  -0.000699   0.000000   0.042030
   20  O  2  Z   -0.002822  -0.001712   0.127665  -0.000003   0.000229
   21  O  2  S   -0.000040   5.112099  -0.000018  -0.000001  -0.658755
   22  O  2  X   -1.488807   0.020714   0.000342  -0.000000  -0.002963
   23  O  2  Y    0.017215   1.788256  -0.000582  -0.000000  -0.256020
   24  O  2  Z    0.004955   0.009742   0.104885  -0.000003  -0.001394
   25  O  2 XX    0.002367  -0.297687  -0.000037   0.003175   0.753058
   26  O  2 YY   -0.002354  -0.599003   0.005450   0.000062   0.084943
   27  O  2 ZZ    0.000000  -0.410081  -0.005409  -0.003237  -0.700218
   28  O  2 XY    0.117637  -0.004028  -0.001836  -0.003101  -0.008909
   29  O  2 XZ    0.000636  -0.000446  -0.006641   0.561443  -0.005528
   30  O  2 YZ   -0.000399  -0.001185  -0.573321  -0.006472   0.005002
   31  H  3  S    0.173542   0.097812   0.000000  -0.000000  -0.256987
   32  H  3  S    0.637891  -0.038397  -0.000001   0.000001  -0.166224
   33  H  4  S   -0.173547   0.097810   0.000000   0.000000  -0.256980
   34  H  4  S   -0.637873  -0.038425  -0.000000  -0.000000  -0.166220

                     26         27         28         29         30
                    1.9308     2.0415     2.2549     2.3694     2.6498
                     A          A          A          A          A   
    1  C  1  S   -0.000000   0.000000   0.048279  -0.059919  -0.000000
    2  C  1  S    0.000004  -0.000000   0.175920  -0.017745  -0.000004
    3  C  1  X    0.286835   0.000000  -0.000448  -0.001350  -0.000823
    4  C  1  Y   -0.003317  -0.000000  -0.038176  -0.116401   0.001386
    5  C  1  Z   -0.000955   0.000000  -0.000208  -0.000634  -0.252034
    6  C  1  S    0.000004   0.000000  -0.823905   0.188886   0.000002
    7  C  1  X    0.811074  -0.000000  -0.000710  -0.004965  -0.000931
    8  C  1  Y   -0.009382   0.000000  -0.060725  -0.428261   0.001564
    9  C  1  Z   -0.002699   0.000000  -0.000331  -0.002333  -0.284853
   10  C  1 XX    0.010170  -0.003720  -0.644893  -0.821432   0.000065
   11  C  1 YY   -0.010157  -0.000072  -0.177397   1.004566  -0.009373
   12  C  1 ZZ   -0.000015   0.003792   0.964794  -0.416487   0.009306
   13  C  1 XY    0.506598   0.003633   0.006225   0.024434   0.003158
   14  C  1 XZ    0.002741  -0.657780   0.006103   0.001661   0.011448
   15  C  1 YZ   -0.001718   0.007600  -0.007255   0.008922   0.986203
   16  O  2  S   -0.000000  -0.000000   0.004653   0.001180  -0.000000
   17  O  2  S   -0.000000  -0.000000  -0.046704  -0.524428  -0.000001
   18  O  2  X    0.271529   0.000000   0.001003  -0.007305  -0.000008
   19  O  2  Y   -0.003142  -0.000000   0.086669  -0.630252   0.000014
   20  O  2  Z   -0.000904   0.000000   0.000472  -0.003434  -0.002406
   21  O  2  S    0.000002   0.000000   0.254833   0.152723   0.000005
   22  O  2  X   -0.477668  -0.000000   0.000745   0.003503   0.001567
   23  O  2  Y    0.005528   0.000000   0.063822   0.302162  -0.002628
   24  O  2  Z    0.001590  -0.000000   0.000348   0.001646   0.479641
   25  O  2 XX   -0.014339   0.004729   0.558473  -0.108556   0.000064
   26  O  2 YY    0.014325   0.000092  -0.085205   0.014003  -0.009634
   27  O  2 ZZ    0.000014  -0.004821  -0.382886  -0.295446   0.009568
   28  O  2 XY   -0.714588  -0.004619  -0.008587   0.001646   0.003248
   29  O  2 XZ   -0.003866   0.836181  -0.003596  -0.000696   0.011775
   30  O  2 YZ    0.002424  -0.009662   0.001915   0.001954   1.014273
   31  H  3  S    0.569803   0.000000   0.414519   0.207231   0.000000
   32  H  3  S    0.118125  -0.000000   0.060264  -0.027121  -0.000002
   33  H  4  S   -0.569808  -0.000000   0.414528   0.207232  -0.000000
   34  H  4  S   -0.118130  -0.000000   0.060268  -0.027119  -0.000001

                     31         32         33         34
                    2.7379     2.9822     3.7423     4.1894
                     A          A          A          A   
    1  C  1  S   -0.000001  -0.044686   0.001168  -0.475621
    2  C  1  S   -0.000009  -1.256153  -0.165632   2.945330
    3  C  1  X   -0.109117   0.015488  -0.000594   0.003390
    4  C  1  Y    0.001277   1.336310  -0.051150   0.292614
    5  C  1  Z    0.000363   0.007281  -0.000279   0.001594
    6  C  1  S   -0.000002  -1.397021  -1.800875   1.122896
    7  C  1  X   -0.284413   0.009164   0.011801   0.004828
    8  C  1  Y    0.003298   0.789803   1.017733   0.416574
    9  C  1  Z    0.000947   0.004304   0.005545   0.002270
   10  C  1 XX    0.022618   0.274351   0.048181  -1.774741
   11  C  1 YY   -0.022584  -0.777911   0.149486  -2.148061
   12  C  1 ZZ   -0.000040   0.371319   0.145497  -1.731833
   13  C  1 XY    1.126141  -0.014098   0.001352  -0.005001
   14  C  1 XZ    0.006092   0.000288   0.000374   0.000134
   15  C  1 YZ   -0.003820  -0.007237   0.000020  -0.002621
   16  O  2  S   -0.000001  -0.046594  -0.512021  -0.028030
   17  O  2  S   -0.000002  -0.697598  -0.071647   0.036761
   18  O  2  X    0.043444   0.003322  -0.002858   0.002903
   19  O  2  Y   -0.000499   0.286555  -0.246584   0.250532
   20  O  2  Z   -0.000145   0.001561  -0.001343   0.001365
   21  O  2  S    0.000022   2.859918   5.180387   0.556571
   22  O  2  X    0.400591   0.020469   0.012172   0.005128
   23  O  2  Y   -0.004623   1.766519   1.050291   0.442415
   24  O  2  Z   -0.001334   0.009622   0.005722   0.002410
   25  O  2 XX    0.018621  -0.672736  -1.748198  -0.121662
   26  O  2 YY   -0.018589   1.501002  -1.521840   0.281961
   27  O  2 ZZ   -0.000036  -0.698086  -1.770294  -0.160264
   28  O  2 XY    0.927910   0.029089   0.003029   0.005403
   29  O  2 XZ    0.005020   0.000064  -0.000067  -0.000116
   30  O  2 YZ   -0.003148   0.013833   0.001563   0.002783
   31  H  3  S    0.368147   0.062622   0.083060   0.175415
   32  H  3  S   -0.296198  -0.020664  -0.010652  -0.445396
   33  H  4  S   -0.368158   0.062630   0.083061   0.175421
   34  H  4  S    0.296197  -0.020678  -0.010657  -0.445401
 ...... END OF UHF CALCULATION ......
 STEP CPU TIME =    17.52 TOTAL CPU TIME =       17.6 (    0.3 MIN)
 TOTAL WALL CLOCK TIME=       17.6 SECONDS, CPU UTILIZATION IS  99.94%

     ---------------------------------------------------------------------
     PROPERTIES FOR THE BPBE     DFT FUNCTIONAL (UHF  TYPE) DENSITY MATRIX
     ---------------------------------------------------------------------

          -----------------
          ENERGY COMPONENTS
          -----------------

         WAVEFUNCTION NORMALIZATION =       1.0000000000

                ONE ELECTRON ENERGY =    -216.5212053914
                TWO ELECTRON ENERGY =      71.4983384155
           NUCLEAR REPULSION ENERGY =      30.9238760090
                                      ------------------
                       TOTAL ENERGY =    -114.0989909669

 ELECTRON-ELECTRON POTENTIAL ENERGY =      71.4983384155
  NUCLEUS-ELECTRON POTENTIAL ENERGY =    -329.8690577434
   NUCLEUS-NUCLEUS POTENTIAL ENERGY =      30.9238760090
                                      ------------------
             TOTAL POTENTIAL ENERGY =    -227.4468433189
               TOTAL KINETIC ENERGY =     113.3478523520
                 VIRIAL RATIO (V/T) =       2.0066268447

          ---------------------------------------
          MULLIKEN AND LOWDIN POPULATION ANALYSES
          ---------------------------------------

     ATOMIC MULLIKEN POPULATION IN EACH MOLECULAR ORBITAL
        ALPHA ORBITALS

                      1          2          3          4          5

                  1.000000   1.000000   1.000000   1.000000   1.000000

    1            -0.000452   1.000125   0.227327   0.545681   0.371394
    2             1.000457  -0.000507   0.770902   0.197434   0.436439
    3            -0.000003   0.000191   0.000885   0.128439   0.096086
    4            -0.000003   0.000191   0.000885   0.128446   0.096081

                      6          7          8          9

                  1.000000   1.000000   1.000000   1.000000

    1             0.227938   0.284453   0.146952   0.734066
    2             0.675122   0.715547   0.513728   0.265934
    3             0.048470   0.000000   0.169664   0.000000
    4             0.048471   0.000000   0.169656  -0.000000

     ATOMIC MULLIKEN POPULATION IN EACH MOLECULAR ORBITAL
         BETA ORBITALS

                      1          2          3          4          5

                  1.000000   1.000000   1.000000   1.000000   1.000000

    1            -0.000368   1.000198   0.254927   0.519520   0.522078
    2             1.000372  -0.000589   0.740539   0.207388   0.193727
    3            -0.000002   0.000195   0.002267   0.136541   0.142096
    4            -0.000002   0.000195   0.002267   0.136550   0.142099

                      6          7

                  1.000000   1.000000

    1             0.218149   0.264211
    2             0.688339   0.735789
    3             0.046761   0.000000
    4             0.046751   0.000000

     ATOMIC SPIN POPULATION (ALPHA MINUS BETA)
       ATOM         MULL.POP.                    LOW.POP.
    1 C             0.758769                     0.764927
    2 O             1.009490                     1.036543
    3 H             0.115874                     0.099248
    4 H             0.115867                     0.099282


          ********* ALL ELECTRONS ********

               ----- POPULATIONS IN EACH AO -----
                             MULLIKEN      LOWDIN
              1  C  1  S      1.99010     1.97362
              2  C  1  S      0.66045     0.35090
              3  C  1  X      0.69564     0.60625
              4  C  1  Y      0.68728     0.61695
              5  C  1  Z      0.71733     0.68205
              6  C  1  S      0.54322     0.35581
              7  C  1  X      0.32743     0.45164
              8  C  1  Y      0.10084     0.27959
              9  C  1  Z      0.54742     0.55626
             10  C  1 XX      0.01530     0.16247
             11  C  1 YY      0.02545     0.20325
             12  C  1 ZZ     -0.02955     0.09619
             13  C  1 XY      0.01732     0.04210
             14  C  1 XZ      0.00000     0.00001
             15  C  1 YZ      0.01796     0.04244
             16  O  2  S      1.99209     1.97641
             17  O  2  S      0.92484     0.72255
             18  O  2  X      0.73610     0.69954
             19  O  2  Y      0.98121     0.90478
             20  O  2  Z      1.08749     1.04674
             21  O  2  S      0.98103     0.48511
             22  O  2  X      0.39972     0.43007
             23  O  2  Y      0.41410     0.52680
             24  O  2  Z      0.61940     0.64585
             25  O  2 XX     -0.00215     0.17402
             26  O  2 YY      0.00146     0.18868
             27  O  2 ZZ     -0.01314     0.16631
             28  O  2 XY      0.00811     0.01615
             29  O  2 XZ      0.00000     0.00000
             30  O  2 YZ      0.01036     0.02662
             31  H  3  S      0.46916     0.42763
             32  H  3  S      0.30243     0.35774
             33  H  4  S      0.46916     0.42771
             34  H  4  S      0.30243     0.35775

          ----- MULLIKEN ATOMIC OVERLAP POPULATIONS -----
          (OFF-DIAGONAL ELEMENTS NEED TO BE MULTIPLIED BY 2)

             1           2           3           4

    1    5.3406215
    2    0.2815546   7.9065875
    3    0.3470080  -0.0237601   0.4801469
    4    0.3470160  -0.0237611  -0.0318049   0.4801391

          TOTAL MULLIKEN AND LOWDIN ATOMIC POPULATIONS
       ATOM         MULL.POP.    CHARGE          LOW.POP.     CHARGE
    1 C             6.316200   -0.316200         6.419549   -0.419549
    2 O             8.140621   -0.140621         8.009627   -0.009627
    3 H             0.771590    0.228410         0.785364    0.214636
    4 H             0.771589    0.228411         0.785460    0.214540

          -------------------------------
          BOND ORDER AND VALENCE ANALYSIS     BOND ORDER THRESHOLD=0.050
          -------------------------------

                   BOND                       BOND                       BOND
  ATOM PAIR DIST  ORDER      ATOM PAIR DIST  ORDER      ATOM PAIR DIST  ORDER
    1   2  1.218  1.484        1   3  1.121  0.840        1   4  1.121  0.840
    2   3  2.052  0.063        2   4  2.052  0.063

                       TOTAL       BONDED        FREE
      ATOM            VALENCE     VALENCE     VALENCE
    1 C                 3.745       3.164       0.581
    2 O                 2.262       1.610       0.652
    3 H                 0.921       0.908       0.014
    4 H                 0.921       0.908       0.014

          -----------------------------------------
          ATOMIC SPIN DENSITY AT THE NUCLEUS (A.U.)
          -----------------------------------------
                            SPIN DENS    ALPHA DENS     BETA DENS
    1  C            6.0    -0.0132742      58.64685      58.66012
    2  O            8.0     0.1057218     145.15410     145.04838
    3  H            1.0     0.0559336       0.21113       0.15519
    4  H            1.0     0.0559321       0.21113       0.15520

          ---------------------
          ELECTROSTATIC MOMENTS
          ---------------------

 POINT   1           X           Y           Z (BOHR)    CHARGE
                 0.457045   -1.484111   -0.003636       -0.00 (A.U.)
         DX          DY          DZ         /D/  (DEBYE)
     0.018296    1.577497    0.008591    1.577627
 ...... END OF PROPERTY EVALUATION ......
 STEP CPU TIME =     0.00 TOTAL CPU TIME =       17.6 (    0.3 MIN)
 TOTAL WALL CLOCK TIME=       17.6 SECONDS, CPU UTILIZATION IS  99.89%
               864574  WORDS OF DYNAMIC MEMORY USED
 EXECUTION OF GAMESS TERMINATED NORMALLY Fri Jun  2 00:53:15 2017
 DDI: 263640 bytes (0.3 MB / 0 MWords) used by master data server.

 ----------------------------------------
 CPU timing information for all processes
 ========================================
 0: 17.577 + 0.17 = 17.595
 ----------------------------------------
 ddikick.x: exited gracefully.
unset echo
----- accounting info -----
Files used on the master node compute-0-1.local were:
-rw-rw-r-- 1 sarom sarom   38475 Jun  2 00:52 /scratch/dft-lc-bpbe.F05
-rw-rw-r-- 1 sarom sarom 1799600 Jun  2 00:53 /scratch/dft-lc-bpbe.F10
rm: cannot remove `/scratch/sarom': Is a directory
rm: cannot remove `/scratch/tmp': Is a directory
ls: No match.
ls: No match.
ls: No match.
Fri Jun  2 00:53:18 CDT 2017
0.252u 0.127s 0:21.06 1.7%	0+0k 80+424io 0pf+0w
/opt/gridengine/default/spool/compute-0-1/active_jobs/23500.1/pe_hostfile compute-0-1.local
