-catch_rsh /opt/gridengine/default/spool/compute-0-8/active_jobs/23503.1/pe_hostfile
compute-0-8
The primary node assigned by SGE to this run is compute-0-8
Warning: no access to tty (Bad file descriptor).
Thus no job control in this shell.
Deleting shmid=2785280.
Deleting shmid=2818049.
source /home/sarom/gamess.github.2017-05-31.14.06/install.info
setenv GMS_PATH /home/sarom/gamess.github.2017-05-31.14.06
setenv GMS_BUILD_DIR /home/sarom/gamess.github.2017-05-31.14.06
setenv GMS_TARGET linux64
setenv GMS_FORTRAN gfortran
setenv GMS_GFORTRAN_VERNO 4.4
setenv GMS_MATHLIB mkl-so
setenv GMS_MATHLIB_PATH /share/apps/intel/compilers_and_libraries_2017.1.132/linux/mkl/lib/intel64
setenv GMS_MKL_VERNO 12
setenv GMS_DDI_COMM sockets
setenv GMS_LIBCCHEM false
setenv GMS_EIGEN_PATH
setenv GMS_PHI false
setenv GMS_SHMTYPE sysv
setenv GMS_OPENMP false
unset echo
h3po-pcseg
tests/dft
----- GAMESS execution script 'rungms' -----
This job is running on host compute-0-8.local
under operating system Linux at Fri Jun 2 00:54:12 CDT 2017
Available scratch disk space (Kbyte units) at beginning of the job is
Filesystem           1K-blocks      Used Available Use% Mounted on
/dev/sda1             16126920   3867344  11440376  26% /
GAMESS temporary binary files will be written to /scratch
GAMESS supplementary output files will be written to /home/sarom/restart
Copying input file h3po-pcseg.inp to your run's scratch directory...
cp tests/dft/h3po-pcseg.inp /scratch/h3po-pcseg.F05
unset echo
The generated host list is
compute-0-8.local
/home/sarom/gamess.github.2017-05-31.14.06/ddikick.x /home/sarom/gamess.github.2017-05-31.14.06/gamess.00.x h3po-pcseg -ddi 1 1 compute-0-8.local -scr /scratch

 Distributed Data Interface kickoff program.
 Initiating 1 compute processes on 1 nodes to run the following command:
 /home/sarom/gamess.github.2017-05-31.14.06/gamess.00.x h3po-pcseg 

          ******************************************************
          *         GAMESS VERSION = 20 APR 2017 (R1)          *
          *             FROM IOWA STATE UNIVERSITY             *
          * M.W.SCHMIDT, K.K.BALDRIDGE, J.A.BOATZ, S.T.ELBERT, *
          *   M.S.GORDON, J.H.JENSEN, S.KOSEKI, N.MATSUNAGA,   *
          *          K.A.NGUYEN, S.J.SU, T.L.WINDUS,           *
          *       TOGETHER WITH M.DUPUIS, J.A.MONTGOMERY       *
          *         J.COMPUT.CHEM.  14, 1347-1363(1993)        *
          **************** 64 BIT LINUX VERSION ****************

  SINCE 1993, STUDENTS AND POSTDOCS WORKING AT IOWA STATE UNIVERSITY
  AND ALSO IN THEIR VARIOUS JOBS AFTER LEAVING ISU HAVE MADE IMPORTANT
  CONTRIBUTIONS TO THE CODE:
     IVANA ADAMOVIC, CHRISTINE AIKENS, YURI ALEXEEV, POOJA ARORA,
     ANDREY ASADCHEV, ROB BELL, PRADIPTA BANDYOPADHYAY, JONATHAN BENTZ,
     BRETT BODE, KURT BRORSEN, CALEB CARLIN, GALINA CHABAN, WEI CHEN,
     CHEOL HO CHOI, PAUL DAY, ALBERT DEFUSCO, NUWAN DESILVA, TIM DUDLEY,
     DMITRI FEDOROV, GRAHAM FLETCHER, MARK FREITAG, KURT GLAESEMANN,
     DAN KEMP, GRANT MERRILL, NORIYUKI MINEZAWA, JONATHAN MULLIN,
     TAKESHI NAGATA, SEAN NEDD, HEATHER NETZLOFF, BOSILJKA NJEGIC, RYAN OLSON,
     MIKE PAK, SPENCER PRUITT, LUKE ROSKOP, JIM SHOEMAKER, LYUDMILA SLIPCHENKO,
     TONY SMITH, SAROM SOK LEANG, JIE SONG, TETSUYA TAKETSUGU, SIMON WEBB,
     PENG XU, SOOHAENG YOO, FEDERICO ZAHARIEV

  ADDITIONAL CODE HAS BEEN PROVIDED BY COLLABORATORS IN OTHER GROUPS:
     IOWA STATE UNIVERSITY:
          JOE IVANIC, AARON WEST, LAIMUTIS BYTAUTAS, KLAUS RUEDENBERG
     UNIVERSITY OF TOKYO: KIMIHIKO HIRAO, TAKAHITO NAKAJIMA,
          TAKAO TSUNEDA, MUNEAKI KAMIYA, SUSUMU YANAGISAWA,
          KIYOSHI YAGI, MAHITO CHIBA, SEIKEN TOKURA, NAOAKI KAWAKAMI
     UNIVERSITY OF AARHUS: FRANK JENSEN
     UNIVERSITY OF IOWA: VISVALDAS KAIRYS, HUI LI
     NATIONAL INST. OF STANDARDS AND TECHNOLOGY: WALT STEVENS, DAVID GARMER
     UNIVERSITY OF PISA: BENEDETTA MENNUCCI, JACOPO TOMASI
     UNIVERSITY OF MEMPHIS: HENRY KURTZ, PRAKASHAN KORAMBATH
     UNIVERSITY OF ALBERTA: TOBY ZENG, MARIUSZ KLOBUKOWSKI
     UNIVERSITY OF NEW ENGLAND: MARK SPACKMAN
     MIE UNIVERSITY: HIROAKI UMEDA
     NAT. INST. OF ADVANCED INDUSTRIAL SCIENCE AND TECHNOLOGY: KAZUO KITAURA
     MICHIGAN STATE UNIVERSITY:
          KAROL KOWALSKI, MARTA WLOCH, JEFFREY GOUR, JESSE LUTZ,
          WEI LI, PIOTR PIECUCH
     UNIVERSITY OF SILESIA: MONIKA MUSIAL, STANISLAW KUCHARSKI
     FACULTES UNIVERSITAIRES NOTRE-DAME DE LA PAIX:
          OLIVIER QUINET, BENOIT CHAMPAGNE
     UNIVERSITY OF CALIFORNIA - SANTA BARBARA: BERNARD KIRTMAN
     INSTITUTE FOR MOLECULAR SCIENCE:
          KAZUYA ISHIMURA, MICHIO KATOUDA, AND SHIGERU NAGASE
     UNIVERSITY OF NOTRE DAME: ANNA POMOGAEVA, DAN CHIPMAN
     KYUSHU UNIVERSITY:
          HARUYUKI NAKANO,
          FENG LONG GU, JACEK KORCHOWIEC, MARCIN MAKOWSKI, AND YURIKO AOKI,
          HIROTOSHI MORI AND EISAKU MIYOSHI
     PENNSYLVANIA STATE UNIVERSITY:
          TZVETELIN IORDANOV, CHET SWALINA, JONATHAN SKONE,
          SHARON HAMMES-SCHIFFER
     WASEDA UNIVERSITY:
          MASATO KOBAYASHI, TOMOKO AKAMA, TSUGUKI TOUMA,
          TAKESHI YOSHIKAWA, YASUHIRO IKABATA, JUNJI SEINO,
          YUYA NAKAJIMA, HIROMI NAKAI
     NANJING UNIVERSITY: SHUHUA LI
     UNIVERSITY OF NEBRASKA:
          PEIFENG SU, DEJUN SI, NANDUN THELLAMUREGE, YALI WANG, HUI LI
     UNIVERSITY OF ZURICH: ROBERTO PEVERATI, KIM BALDRIDGE
     N. COPERNICUS UNIVERSITY AND JACKSON STATE UNIVERSITY:
          MARIA BARYSZ
     UNIVERSITY OF COPENHAGEN: Jimmy Kromann, CASPER STEINMANN
     TOKYO INSTITUTE OF TECHNOLOGY: HIROYA NAKATA
     NAGOYA UNIVERSITY: YOSHIO NISHIMOTO, STEPHAN IRLE
     MOSCOW STATE UNIVERSITY: VLADIMIR MIRONOV

 EXECUTION OF GAMESS BEGUN Fri Jun  2 00:54:12 2017

            ECHO OF THE FIRST FEW INPUT CARDS -
 INPUT CARD>!   H3PO...using Frank Jensen's systematic bases for SCF and DFT.               
 INPUT CARD>!      test created December 2012, revised for PCseg bases in 2015.             
 INPUT CARD>!      test case uses the meta-GGA "revised TPSS".                              
 INPUT CARD>!      test exercises h-orbitals in the grid integration code.                  
 INPUT CARD>!      test illustrates need to use big grids to converge PCseg series.         
 INPUT CARD>!                                                                               
 INPUT CARD>!                  H            O             P           #AOs  #MOs            
 INPUT CARD>!     PCseg-0=   2s           3s2p          4s3p            28    28            
 INPUT CARD>!     PCseg-1=   2s1p         3s2p1d        4s3p1d          49    47            
 INPUT CARD>!     PCseg-2=   3s2p1d       4s3p2d1f      5s4p2d1f       119   106            
 INPUT CARD>!     PCseg-3=   4s4p2d1f     6s4p4d2f1g    6s5p4d2f1g     270   223            
 INPUT CARD>!     PCseg-4=   5s5p3d2f1g   6s5p5d3f2g1h  7s6p6d3f2g1h   508   389            
 INPUT CARD>!                                                                               
 INPUT CARD>!     PCseg-4 has FINAL E= -418.6589300084, after 22 iters.                     
 INPUT CARD>!                                                                               
 INPUT CARD>!     This run takes 1210 seconds on 2.66 GHz Cloverton (31 Mar 2015)           
 INPUT CARD>!                                                                               
 INPUT CARD>!   --------------------------------------------------------------------        
 INPUT CARD>!   Note that serious radial grid issues turn up for 3rd row PC4 bases!         
 INPUT CARD>!   The PC bases try to converge the nuclear cusp,                              
 INPUT CARD>!   leading to an exponent about 5d+6 for phosphorus for PC4 or PCseg-4.        
 INPUT CARD>!   Some care must be taken with the integration grid for this!                 
 INPUT CARD>!   Using coarse grid=99,302 and fine grid=200,590:                             
 INPUT CARD>!                                       radial norms for the     total          
 INPUT CARD>!                                         smallest  biggest     electron        
 INPUT CARD>!                                            exponents           number         
 INPUT CARD>!     PCseg-0:  E= -417.8358054290      1.000000  1.000000   26.0000007112      
 INPUT CARD>!     PCseg-1:  E= -418.5450250752      1.000000  1.000000   26.0000004387      
 INPUT CARD>!     PCseg-2:  E= -418.6423866811      1.000000  1.000000   26.0000006238      
 INPUT CARD>!     PCseg-3:  E= -418.6579311470      1.000000  0.999999   26.0000007265      
 INPUT CARD>!     PCseg-4:  E= -418.6589300084      1.000000  1.000051   26.0000007736      
 INPUT CARD>!                                                                               
 INPUT CARD>!   Using default grids,      data was collected for older generation bases!    
 INPUT CARD>!      default coarse grid for metaGGA= 24 radial, 110 Lebedev                  
 INPUT CARD>!      default   fine grid for metaGGA= 99 radial, 590 Lebedev                  
 INPUT CARD>!                                         radial norms for the                  
 INPUT CARD>!                                          smallest  biggest                    
 INPUT CARD>!                                              exponent          dipole         
 INPUT CARD>!     PC0: revTPSS E= -418.0583343606      1.000000  1.000000   3.795808        
 INPUT CARD>!     PC1: revTPSS E= -418.5559693616      1.000000  0.999999   3.561750        
 INPUT CARD>!     PC2: revTPSS E= -418.6452211229      1.000000  0.999995   3.582193        
 INPUT CARD>!     PC3: revTPSS E= -418.6582861737      1.000000  1.004286   3.436299        
 INPUT CARD>!     PC4: revTPSS E= -418.6593521314(*)   1.000000  1.068111   3.419307        
 INPUT CARD>!     (*) this number could not be obtained with the default coarse grid,       
 INPUT CARD>!         which must be very bad for the big exponent!  Making the              
 INPUT CARD>!         coarse grid the same size as the fine grid converged well.            
 INPUT CARD>!     Note that the integrated electron count stays close to 26.0000,           
 INPUT CARD>!     but the energy agrees to only 3 decimals.                                 
 INPUT CARD>!     These radial normalizations are indeed a good check on grid quality.      
 INPUT CARD>!                                                                               
    5000000 WORDS OF MEMORY AVAILABLE

     BASIS OPTIONS
     -------------
     GBASIS=PCSEG-4      IGAUSS=       0      POLAR=NONE    
     NDFUNC=       0     NFFUNC=       0     DIFFSP=       F
     NPFUNC=       0      DIFFS=       F     BASNAM=        


     RUN TITLE
     ---------
 phosphine oxide...RHF/CCT geometry                                              

 THE POINT GROUP OF THE MOLECULE IS CNV     
 THE ORDER OF THE PRINCIPAL AXIS IS     3

 ATOM      ATOMIC                      COORDINATES (BOHR)
           CHARGE         X                   Y                   Z
 P          15.0     0.0000000000        0.0000000000       -0.0137576137
 O           8.0     0.0000000000        0.0000000000        2.7218539264
 H           1.0    -1.1812911774        2.0460563378       -1.1900671172
 H           1.0    -1.1812911774       -2.0460563378       -1.1900671172
 H           1.0     2.3625823548        0.0000000000       -1.1900671172

          INTERNUCLEAR DISTANCES (ANGS.)
          ------------------------------

                1 P          2 O          3 H          4 H          5 H     

   1 P       0.0000000    1.4476234 *  1.3966169 *  1.3966169 *  1.3966169 *
   2 O       1.4476234 *  0.0000000    2.4183413 *  2.4183413 *  2.4183413 *
   3 H       1.3966169 *  2.4183413 *  0.0000000    2.1654529 *  2.1654529 *
   4 H       1.3966169 *  2.4183413 *  2.1654529 *  0.0000000    2.1654529 *
   5 H       1.3966169 *  2.4183413 *  2.1654529 *  2.1654529 *  0.0000000  

  * ... LESS THAN  3.000


     ATOMIC BASIS SET
     ----------------
 THE CONTRACTED PRIMITIVE FUNCTIONS HAVE BEEN UNNORMALIZED
 THE CONTRACTED BASIS FUNCTIONS ARE NOW NORMALIZED TO UNITY

  SHELL TYPE  PRIMITIVE        EXPONENT          CONTRACTION COEFFICIENT(S)

 P         

      1   S       1       5965790.0000000    0.000001451590
      1   S       2        893799.0000000    0.000011250813
      1   S       3        204197.0000000    0.000058889898
      1   S       4         57957.8000000    0.000248575521
      1   S       5         18929.4000000    0.000904731944
      1   S       6          6845.5500000    0.002943072551
      1   S       7          2676.3600000    0.008735678368
      1   S       8          1113.1000000    0.023837221108
      1   S       9           486.4430000    0.059415762880
      1   S      10           220.8360000    0.130691330416
      1   S      11           103.5800000    0.242488288557
      1   S      12            49.3513000    0.335458637069
      1   S      13            23.7215000    0.267762413191
      1   S      14            11.4209000    0.078842172553

      2   S      15           235.2120000   -0.006934623161
      2   S      16            73.7031000   -0.052170989379
      2   S      17            27.9552000   -0.143949192577
      2   S      18             5.5805900    0.444607857916
      2   S      19             2.5708500    0.658969230736

      3   S      20             3.6768900    0.262637800446
      3   S      21             1.3880600    0.768657006024

      4   S      22             0.8746450    1.000000000000

      5   S      23             0.3532670    1.000000000000

      6   S      24             0.1600970    1.000000000000

      7   S      25             0.0705043    1.000000000000

      8   P      26          8166.0300000    0.000019739356
      8   P      27          1949.0800000    0.000173490716
      8   P      28           636.9130000    0.000998013445
      8   P      29           243.5160000    0.004505775253
      8   P      30           102.3590000    0.016386374770
      8   P      31            47.8673000    0.045507836904
      8   P      32            23.2877000    0.109714998579
      8   P      33            11.8691000    0.202706678485
      8   P      34             6.2968800    0.294943891917
      8   P      35             3.3878700    0.300183275213
      8   P      36             1.8417200    0.213501035042

      9   P      37             6.9985300   -0.186101068218
      9   P      38             1.0119300    1.051779753824

     10   P      39             0.5572520    1.000000000000

     11   P      40             0.2606250    1.000000000000

     12   P      41             0.1152180    1.000000000000

     13   P      42             0.0472829    1.000000000000

     14   D      43            21.2300000    1.000000000000

     15   D      44             6.0700000    1.000000000000

     16   D      45             2.0900000    1.000000000000

     17   D      46             0.7500000    1.000000000000

     18   D      47             0.3250000    1.000000000000

     19   D      48             0.1350000    1.000000000000

     20   F      49             3.1200000    1.000000000000

     21   F      50             0.7300000    1.000000000000

     22   F      51             0.3000000    1.000000000000

     23   G      52             1.5500000    1.000000000000

     24   G      53             0.5200000    1.000000000000

     25   H      54             0.8700000    1.000000000000

 O         

     26   S      55       1142210.0000000    0.000003492493
     26   S      56        171021.0000000    0.000027158802
     26   S      57         38925.0000000    0.000142824410
     26   S      58         11029.1000000    0.000603014537
     26   S      59          3600.5600000    0.002193482311
     26   S      60          1301.0000000    0.007128805316
     26   S      61           508.0490000    0.021046408546
     26   S      62           211.0870000    0.056432903036
     26   S      63            92.7409000    0.125726881366
     26   S      64            42.2504000    0.263636433054
     26   S      65            18.3876000    0.406522634836
     26   S      66             8.3462700    0.251888741952

     27   S      67            84.1167000    0.016253945173
     27   S      68            25.3595000    0.145449771217
     27   S      69             9.5913800    0.441741304646
     27   S      70             4.2590400    0.465227868351

     28   S      71             1.9078900    1.000000000000

     29   S      72             0.8326170    1.000000000000

     30   S      73             0.3527550    1.000000000000

     31   S      74             0.1445450    1.000000000000

     32   P      75           892.8060000    0.000209423563
     32   P      76           211.4150000    0.001842294767
     32   P      77            68.3366000    0.010254896083
     32   P      78            26.2298000    0.039094589398
     32   P      79            11.6039000    0.117989640800
     32   P      80             5.0976500    0.311258844948
     32   P      81             2.3397500    0.629568861141

     33   P      82             1.0668100    1.000000000000

     34   P      83             0.4704230    1.000000000000

     35   P      84             0.1962210    1.000000000000

     36   P      85             0.0770339    1.000000000000

     37   D      86            18.2000000    1.000000000000

     38   D      87             6.0000000    1.000000000000

     39   D      88             2.4000000    1.000000000000

     40   D      89             1.1000000    1.000000000000

     41   D      90             0.5000000    1.000000000000

     42   D      91             0.2000000    1.000000000000

     43   F      92             2.6000000    1.000000000000

     44   F      93             1.1500000    1.000000000000

     45   F      94             0.5000000    1.000000000000

     46   G      95             3.0500000    1.000000000000

     47   G      96             1.3000000    1.000000000000

     48   H      97             2.0500000    1.000000000000

 H         

     83   S      98          3009.9600000    0.000138227275
     83   S      99           451.3730000    0.001073389115
     83   S     100           102.8060000    0.005639545124
     83   S     101            29.1474000    0.023753664590
     83   S     102             9.5287800    0.085537199455
     83   S     103             3.4563800    0.266764530094
     83   S     104             1.3563800    0.694645027978

     84   S     105             0.5613000    1.000000000000

     85   S     106             0.2410260    1.000000000000

     86   S     107             0.1042730    1.000000000000

     87   S     108             0.0439734    1.000000000000

     88   P     109            30.0000000    1.000000000000

     89   P     110             6.6000000    1.000000000000

     90   P     111             2.1000000    1.000000000000

     91   P     112             0.9500000    1.000000000000

     92   P     113             0.4500000    1.000000000000

     93   P     114             0.1500000    1.000000000000

     94   D     115             2.1000000    1.000000000000

     95   D     116             0.7000000    1.000000000000

     96   D     117             0.3000000    1.000000000000

     97   F     118             2.5000000    1.000000000000

     98   F     119             0.9000000    1.000000000000

     99   G     120             3.2000000    1.000000000000

 TOTAL NUMBER OF BASIS SET SHELLS             =   99
 NUMBER OF CARTESIAN GAUSSIAN BASIS FUNCTIONS =  508
 NOTE: THIS RUN WILL RESTRICT THE MO VARIATION SPACE TO SPHERICAL HARMONICS.
 THE NUMBER OF ORBITALS KEPT IN THE VARIATIONAL SPACE WILL BE PRINTED LATER.
 NUMBER OF ELECTRONS                          =   26
 CHARGE OF MOLECULE                           =    0
 SPIN MULTIPLICITY                            =    1
 NUMBER OF OCCUPIED ORBITALS (ALPHA)          =   13
 NUMBER OF OCCUPIED ORBITALS (BETA )          =   13
 TOTAL NUMBER OF ATOMS                        =    5
 THE NUCLEAR REPULSION ENERGY IS       66.9011044140

     LEBEDEV GRID-BASED DFT OPTIONS
     ------------------------------
     DFTTYP=REVTPSS 
     NRAD  =     200     NLEB  =     590
     NRAD0 =      99     NLEB0 =     302
     SWOFF =    5.00E-03 (PURE SCF -> DFT)
     SWITCH=    3.00E-04 (COARSE -> TIGHT GRID)
     THRESH=    0.00E+00 GTHRE=    1.00E+00

 GRIMME'S EMPIRICAL DISPERSION CORRECTION= F

     $CONTRL OPTIONS
     ---------------
 SCFTYP=RHF          RUNTYP=ENERGY       EXETYP=RUN     
 MPLEVL=       0     CITYP =NONE         CCTYP =NONE         VBTYP =NONE    
 DFTTYP=REVTPSS      TDDFT =NONE    
 MULT  =       1     ICHARG=       0     NZVAR =       0     COORD =UNIQUE  
 PP    =NONE         RELWFN=NONE         LOCAL =NONE         NUMGRD=       F
 ISPHER=       1     NOSYM =       0     MAXIT =      30     UNITS =ANGS    
 PLTORB=       F     MOLPLT=       F     AIMPAC=       F     FRIEND=        
 NPRINT=       7     IREST =       0     GEOM  =INPUT   
 NORMF =       0     NORMP =       0     ITOL  =      20     ICUT  =       9
 INTTYP=BEST         GRDTYP=BEST         QMTTOL= 1.0E-06

     $SYSTEM OPTIONS
     ---------------
  REPLICATED MEMORY=     5000000 WORDS (ON EVERY NODE).
 DISTRIBUTED MEMDDI=           0 MILLION WORDS IN AGGREGATE,
 MEMDDI DISTRIBUTED OVER   1 PROCESSORS IS           0 WORDS/PROCESSOR.
 TOTAL MEMORY REQUESTED ON EACH PROCESSOR=     5000000 WORDS.
 TIMLIM=      525600.00 MINUTES, OR     365.0 DAYS.
 PARALL= F  BALTYP=  DLB     KDIAG=    0  COREFL= F
 MXSEQ2=     300 MXSEQ3=     150  mem10=         0

          ----------------
          PROPERTIES INPUT
          ----------------

     MOMENTS            FIELD           POTENTIAL          DENSITY
 IEMOM =       1   IEFLD =       0   IEPOT =       0   IEDEN =       0
 WHERE =COMASS     WHERE =NUCLEI     WHERE =NUCLEI     WHERE =NUCLEI  
 OUTPUT=BOTH       OUTPUT=BOTH       OUTPUT=BOTH       OUTPUT=BOTH    
 IEMINT=       0   IEFINT=       0                     IEDINT=       0
                                                       MORB  =       0
          EXTRAPOLATION IN EFFECT
          DIIS IN EFFECT
 ORBITAL PRINTING OPTION: NPREO=     1   508     2     1

     -------------------------------
     INTEGRAL TRANSFORMATION OPTIONS
     -------------------------------
     NWORD  =            0
     CUTOFF = 1.0E-09     MPTRAN =       0
     DIRTRF =       F     AOINTS =DUP     

          ----------------------
          INTEGRAL INPUT OPTIONS
          ----------------------
 NOPK  =       1 NORDER=       0 SCHWRZ=       F

     ------------------------------------------
     THE POINT GROUP IS CNV, NAXIS= 3, ORDER= 6
     ------------------------------------------

 -- VARIATIONAL SPACE WILL BE RESTRICTED TO PURE SPHERICAL HARMONICS ONLY --
 AFTER EXCLUDING CONTAMINANT COMBINATIONS FROM THE CARTESIAN GAUSSIAN BASIS
 SET, THE NUMBER OF SPHERICAL HARMONICS KEPT IN THE VARIATION SPACE IS  389

     DIMENSIONS OF THE SYMMETRY SUBSPACES ARE
 A1  =   99     A2  =   34     E   =  128

 ..... DONE SETTING UP THE RUN .....
 STEP CPU TIME =     0.13 TOTAL CPU TIME =        0.1 (    0.0 MIN)
 TOTAL WALL CLOCK TIME=        0.1 SECONDS, CPU UTILIZATION IS 100.00%

          ********************
          1 ELECTRON INTEGRALS
          ********************
 ...... END OF ONE-ELECTRON INTEGRALS ......
 STEP CPU TIME =     0.03 TOTAL CPU TIME =        0.2 (    0.0 MIN)
 TOTAL WALL CLOCK TIME=        0.2 SECONDS, CPU UTILIZATION IS 100.00%

          -------------
          GUESS OPTIONS
          -------------
          GUESS =HUCKEL            NORB  =       0          NORDER=       0
          MIX   =       F          PRTMO =       F          PUNMO =       F
          TOLZ  = 1.0E-08          TOLE  = 1.0E-05
          SYMDEN=       F          PURIFY=       F

 INITIAL GUESS ORBITALS GENERATED BY HUCKEL   ROUTINE.
 HUCKEL GUESS REQUIRES   1826432 WORDS.

 STATISTICS FOR GENERATION OF SYMMETRY ORBITAL -Q- MATRIX
 NUMBER OF CARTESIAN ATOMIC ORBITALS=        508
 NUMBER OF SPHERICAL CONTAMINANTS DROPPED=   119
 NUMBER OF LINEARLY DEPENDENT MOS DROPPED=     0
 TOTAL NUMBER OF MOS IN VARIATION SPACE=     389

 SYMMETRIES FOR INITIAL GUESS ORBITALS FOLLOW.   BOTH SET(S).
    13 ORBITALS ARE OCCUPIED (    6 CORE ORBITALS).
     7=?A1      8=?A1      9=?E      10=E       11=?A1     12=?E      13=E   
    14=?E      15=?E      16=?A1     17=?A1     18=A1      19=A1      20=A1  
    21=A1      22=A1      23=A1  
 ...... END OF INITIAL ORBITAL SELECTION ......
 STEP CPU TIME =     0.63 TOTAL CPU TIME =        0.8 (    0.0 MIN)
 TOTAL WALL CLOCK TIME=        0.8 SECONDS, CPU UTILIZATION IS  98.75%

                    ----------------------
                    AO INTEGRAL TECHNOLOGY
                    ----------------------
     S,P,L SHELL ROTATED AXIS INTEGRALS, REPROGRAMMED BY
        KAZUYA ISHIMURA (IMS) AND JOSE SIERRA (SYNSTAR).
     S,P,D,L SHELL ROTATED AXIS INTEGRALS PROGRAMMED BY
        KAZUYA ISHIMURA (INSTITUTE FOR MOLECULAR SCIENCE).
     S,P,D,F,G SHELL TO TOTAL QUARTET ANGULAR MOMENTUM SUM 5,
        ERIC PROGRAM BY GRAHAM FLETCHER (ELORET AND NASA ADVANCED
        SUPERCOMPUTING DIVISION, AMES RESEARCH CENTER).
     S,P,D,F,G,L SHELL GENERAL RYS QUADRATURE PROGRAMMED BY
        MICHEL DUPUIS (PACIFIC NORTHWEST NATIONAL LABORATORY).

          --------------------
          2 ELECTRON INTEGRALS
          --------------------

 THE -PK- OPTION IS OFF, THE INTEGRALS ARE NOT IN SUPERMATRIX FORM.
 STORING   15000 INTEGRALS/RECORD ON DISK, USING 16 BYTES/INTEGRAL.
 TWO ELECTRON INTEGRAL EVALUATION REQUIRES  288531 WORDS OF MEMORY.
 II,JST,KST,LST =  1  1  1  1 NREC =         1 INTLOC =    1
 II,JST,KST,LST =  2  1  1  1 NREC =         1 INTLOC =    2
 II,JST,KST,LST =  3  1  1  1 NREC =         1 INTLOC =    7
 II,JST,KST,LST =  4  1  1  1 NREC =         1 INTLOC =   22
 II,JST,KST,LST =  5  1  1  1 NREC =         1 INTLOC =   56
 II,JST,KST,LST =  6  1  1  1 NREC =         1 INTLOC =  121
 II,JST,KST,LST =  7  1  1  1 NREC =         1 INTLOC =  232
 II,JST,KST,LST =  8  1  1  1 NREC =         1 INTLOC =  407
 II,JST,KST,LST =  9  1  1  1 NREC =         1 INTLOC =  584
 II,JST,KST,LST = 10  1  1  1 NREC =         1 INTLOC = 1049
 II,JST,KST,LST = 11  1  1  1 NREC =         1 INTLOC = 1910
 II,JST,KST,LST = 12  1  1  1 NREC =         1 INTLOC = 3338
 II,JST,KST,LST = 13  1  1  1 NREC =         1 INTLOC = 5567
 II,JST,KST,LST = 14  1  1  1 NREC =         1 INTLOC = 8894
 II,JST,KST,LST = 15  1  1  1 NREC =         2 INTLOC = 3821
 II,JST,KST,LST = 16  1  1  1 NREC =         3 INTLOC = 6425
 II,JST,KST,LST = 17  1  1  1 NREC =         5 INTLOC = 4586
 II,JST,KST,LST = 18  1  1  1 NREC =         8 INTLOC = 2192
 II,JST,KST,LST = 19  1  1  1 NREC =        12 INTLOC = 4139
 II,JST,KST,LST = 20  1  1  1 NREC =        18 INTLOC = 1331
 II,JST,KST,LST = 21  1  1  1 NREC =        30 INTLOC = 7697
 II,JST,KST,LST = 22  1  1  1 NREC =        49 INTLOC =12230
 II,JST,KST,LST = 23  1  1  1 NREC =        77 INTLOC =10262
 II,JST,KST,LST = 24  1  1  1 NREC =       140 INTLOC = 5159
 II,JST,KST,LST = 25  1  1  1 NREC =       236 INTLOC =  344
 II,JST,KST,LST = 26  1  1  1 NREC =       440 INTLOC = 8171
 II,JST,KST,LST = 27  1  1  1 NREC =       460 INTLOC =13297
 II,JST,KST,LST = 28  1  1  1 NREC =       484 INTLOC = 1216
 II,JST,KST,LST = 29  1  1  1 NREC =       510 INTLOC = 8940
 II,JST,KST,LST = 30  1  1  1 NREC =       537 INTLOC =14203
 II,JST,KST,LST = 31  1  1  1 NREC =       565 INTLOC =14404
 II,JST,KST,LST = 32  1  1  1 NREC =       594 INTLOC = 9515
 II,JST,KST,LST = 33  1  1  1 NREC =       677 INTLOC = 7567
 II,JST,KST,LST = 34  1  1  1 NREC =       768 INTLOC = 6419
 II,JST,KST,LST = 35  1  1  1 NREC =       864 INTLOC =14394
 II,JST,KST,LST = 36  1  1  1 NREC =       967 INTLOC = 2797
 II,JST,KST,LST = 37  1  1  1 NREC =      1075 INTLOC = 4078
 II,JST,KST,LST = 38  1  1  1 NREC =      1259 INTLOC = 9125
 II,JST,KST,LST = 39  1  1  1 NREC =      1489 INTLOC = 3683
 II,JST,KST,LST = 40  1  1  1 NREC =      1764 INTLOC = 1037
 II,JST,KST,LST = 41  1  1  1 NREC =      2075 INTLOC =12881
 II,JST,KST,LST = 42  1  1  1 NREC =      2419 INTLOC =14925
 II,JST,KST,LST = 43  1  1  1 NREC =      2797 INTLOC =  520
 II,JST,KST,LST = 44  1  1  1 NREC =      3473 INTLOC = 5396
 II,JST,KST,LST = 45  1  1  1 NREC =      4272 INTLOC = 1564
 II,JST,KST,LST = 46  1  1  1 NREC =      5186 INTLOC = 4421
 II,JST,KST,LST = 47  1  1  1 NREC =      6731 INTLOC = 8828
 II,JST,KST,LST = 48  1  1  1 NREC =      8626 INTLOC = 5499
 II,JST,KST,LST = 49  1  1  1 NREC =     11802 INTLOC =11227
 II,JST,KST,LST = 50  1  1  1 NREC =     11802 INTLOC =11227
 II,JST,KST,LST = 51  1  1  1 NREC =     11802 INTLOC =11227
 II,JST,KST,LST = 52  1  1  1 NREC =     11802 INTLOC =11227
 II,JST,KST,LST = 53  1  1  1 NREC =     11802 INTLOC =11227
 II,JST,KST,LST = 54  1  1  1 NREC =     11802 INTLOC =11227
 II,JST,KST,LST = 55  1  1  1 NREC =     11802 INTLOC =11227
 II,JST,KST,LST = 56  1  1  1 NREC =     11802 INTLOC =11227
 II,JST,KST,LST = 57  1  1  1 NREC =     11802 INTLOC =11227
 II,JST,KST,LST = 58  1  1  1 NREC =     11802 INTLOC =11227
 II,JST,KST,LST = 59  1  1  1 NREC =     11802 INTLOC =11227
 II,JST,KST,LST = 60  1  1  1 NREC =     11802 INTLOC =11227
 II,JST,KST,LST = 61  1  1  1 NREC =     11802 INTLOC =11227
 II,JST,KST,LST = 62  1  1  1 NREC =     11802 INTLOC =11227
 II,JST,KST,LST = 63  1  1  1 NREC =     11802 INTLOC =11227
 II,JST,KST,LST = 64  1  1  1 NREC =     11802 INTLOC =11227
 II,JST,KST,LST = 65  1  1  1 NREC =     11802 INTLOC =11227
 II,JST,KST,LST = 66  1  1  1 NREC =     11802 INTLOC =11227
 II,JST,KST,LST = 67  1  1  1 NREC =     11802 INTLOC =11227
 II,JST,KST,LST = 68  1  1  1 NREC =     11802 INTLOC =11227
 II,JST,KST,LST = 69  1  1  1 NREC =     11802 INTLOC =11227
 II,JST,KST,LST = 70  1  1  1 NREC =     11802 INTLOC =11227
 II,JST,KST,LST = 71  1  1  1 NREC =     11802 INTLOC =11227
 II,JST,KST,LST = 72  1  1  1 NREC =     11802 INTLOC =11227
 II,JST,KST,LST = 73  1  1  1 NREC =     11802 INTLOC =11227
 II,JST,KST,LST = 74  1  1  1 NREC =     11802 INTLOC =11227
 II,JST,KST,LST = 75  1  1  1 NREC =     11802 INTLOC =11227
 II,JST,KST,LST = 76  1  1  1 NREC =     11802 INTLOC =11227
 II,JST,KST,LST = 77  1  1  1 NREC =     11802 INTLOC =11227
 II,JST,KST,LST = 78  1  1  1 NREC =     11802 INTLOC =11227
 II,JST,KST,LST = 79  1  1  1 NREC =     11802 INTLOC =11227
 II,JST,KST,LST = 80  1  1  1 NREC =     11802 INTLOC =11227
 II,JST,KST,LST = 81  1  1  1 NREC =     11802 INTLOC =11227
 II,JST,KST,LST = 82  1  1  1 NREC =     11802 INTLOC =11227
 II,JST,KST,LST = 83  1  1  1 NREC =     11802 INTLOC =11227
 II,JST,KST,LST = 84  1  1  1 NREC =     12126 INTLOC = 3787
 II,JST,KST,LST = 85  1  1  1 NREC =     12510 INTLOC =13285
 II,JST,KST,LST = 86  1  1  1 NREC =     12912 INTLOC = 9397
 II,JST,KST,LST = 87  1  1  1 NREC =     13328 INTLOC =  302
 II,JST,KST,LST = 88  1  1  1 NREC =     13756 INTLOC = 3476
 II,JST,KST,LST = 89  1  1  1 NREC =     14412 INTLOC = 8088
 II,JST,KST,LST = 90  1  1  1 NREC =     15236 INTLOC =  466
 II,JST,KST,LST = 91  1  1  1 NREC =     16350 INTLOC = 7643
 II,JST,KST,LST = 92  1  1  1 NREC =     17884 INTLOC = 1856
 II,JST,KST,LST = 93  1  1  1 NREC =     19656 INTLOC = 9236
 II,JST,KST,LST = 94  1  1  1 NREC =     21600 INTLOC = 8990
 II,JST,KST,LST = 95  1  1  1 NREC =     24917 INTLOC = 5769
 II,JST,KST,LST = 96  1  1  1 NREC =     29772 INTLOC =14729
 II,JST,KST,LST = 97  1  1  1 NREC =     35518 INTLOC = 2209
 II,JST,KST,LST = 98  1  1  1 NREC =     43971 INTLOC = 7490
 PWRT: NODE   0 ENCOUNTERED I/O ERROR WRITING UNIT   8
 EXECUTION OF GAMESS TERMINATED -ABNORMALLY- AT Fri Jun  2 00:56:12 2017
              1826816  WORDS OF DYNAMIC MEMORY USED
 STEP CPU TIME =    50.12 TOTAL CPU TIME =       50.9 (    0.8 MIN)
 TOTAL WALL CLOCK TIME=      119.5 SECONDS, CPU UTILIZATION IS  42.58%
 DDI Process 0: error code 911
 ddikick.x: application process 0 quit unexpectedly.
 ddikick.x: Fatal error detected.
 The error is most likely to be in the application, so check for
 input errors, disk space, memory needs, application bugs, etc.
 ddikick.x will now clean up all processes, and exit...
 ddikick.x: Sending kill signal to DDI processes.
 ddikick.x: Execution terminated due to error(s).
unset echo
----- accounting info -----
Files used on the master node compute-0-8.local were:
-rw-rw-r-- 1 sarom sarom        3694 Jun  2 00:54 /scratch/h3po-pcseg.F05
-rw-rw-r-- 1 sarom sarom 11699339264 Jun  2 00:56 /scratch/h3po-pcseg.F08
-rw-rw-r-- 1 sarom sarom    13480640 Jun  2 00:56 /scratch/h3po-pcseg.F10
rm: cannot remove `/scratch/sarom': Is a directory
rm: cannot remove `/scratch/tmp': Is a directory
ls: No match.
ls: No match.
ls: No match.
Fri Jun  2 00:56:15 CDT 2017
0.251u 1.533s 2:03.44 1.4%	0+0k 8+376io 0pf+0w
Deleting shmid=2785280.
Deleting shmid=2818049.
/opt/gridengine/default/spool/compute-0-8/active_jobs/23503.1/pe_hostfile compute-0-8.local
