----- GAMESS execution script 'rungms' -----
This job is running on host compute-3-0
under operating system Linux at Mon Nov 28 18:40:31 CST 2016
Available scratch disk space (Kbyte units) at beginning of the job is
Filesystem            1K-blocks       Used  Available Use% Mounted on
bolt.local:/export/home/sarom
                     9590469632 1552146432 7551155200  18% /home/sarom
Copying input file loc-boys-tri.inp to your run's scratch directory...
cp loc-boys-tri.inp .//loc-boys-tri.F05
unset echo
/home/sarom/gamessGH/ddikick.x /home/sarom/gamessGH/gamess.00.x loc-boys-tri -ddi 1 1 localhost -scr ./

 Distributed Data Interface kickoff program.
 Initiating 1 compute processes on 1 nodes to run the following command:
 /home/sarom/gamessGH/gamess.00.x loc-boys-tri 

          ******************************************************
          *         GAMESS VERSION = 18 AUG 2016 (R1)          *
          *             FROM IOWA STATE UNIVERSITY             *
          * M.W.SCHMIDT, K.K.BALDRIDGE, J.A.BOATZ, S.T.ELBERT, *
          *   M.S.GORDON, J.H.JENSEN, S.KOSEKI, N.MATSUNAGA,   *
          *          K.A.NGUYEN, S.J.SU, T.L.WINDUS,           *
          *       TOGETHER WITH M.DUPUIS, J.A.MONTGOMERY       *
          *         J.COMPUT.CHEM.  14, 1347-1363(1993)        *
          **************** 64 BIT LINUX VERSION ****************

  SINCE 1993, STUDENTS AND POSTDOCS WORKING AT IOWA STATE UNIVERSITY
  AND ALSO IN THEIR VARIOUS JOBS AFTER LEAVING ISU HAVE MADE IMPORTANT
  CONTRIBUTIONS TO THE CODE:
     IVANA ADAMOVIC, CHRISTINE AIKENS, YURI ALEXEEV, POOJA ARORA,
     ANDREY ASADCHEV, ROB BELL, PRADIPTA BANDYOPADHYAY, JONATHAN BENTZ,
     BRETT BODE, KURT BRORSEN, CALEB CARLIN, GALINA CHABAN, WEI CHEN,
     CHEOL HO CHOI, PAUL DAY, ALBERT DEFUSCO, NUWAN DESILVA, TIM DUDLEY,
     DMITRI FEDOROV, GRAHAM FLETCHER, MARK FREITAG, KURT GLAESEMANN,
     DAN KEMP, GRANT MERRILL, NORIYUKI MINEZAWA, JONATHAN MULLIN,
     TAKESHI NAGATA, SEAN NEDD, HEATHER NETZLOFF, BOSILJKA NJEGIC, RYAN OLSON,
     MIKE PAK, SPENCER PRUITT, LUKE ROSKOP, JIM SHOEMAKER, LYUDMILA SLIPCHENKO,
     TONY SMITH, SAROM SOK LEANG, JIE SONG, TETSUYA TAKETSUGU, SIMON WEBB,
     PENG XU, SOOHAENG YOO, FEDERICO ZAHARIEV

  ADDITIONAL CODE HAS BEEN PROVIDED BY COLLABORATORS IN OTHER GROUPS:
     IOWA STATE UNIVERSITY:
          JOE IVANIC, AARON WEST, LAIMUTIS BYTAUTAS, KLAUS RUEDENBERG
     UNIVERSITY OF TOKYO: KIMIHIKO HIRAO, TAKAHITO NAKAJIMA,
          TAKAO TSUNEDA, MUNEAKI KAMIYA, SUSUMU YANAGISAWA,
          KIYOSHI YAGI, MAHITO CHIBA, SEIKEN TOKURA, NAOAKI KAWAKAMI
     UNIVERSITY OF AARHUS: FRANK JENSEN
     UNIVERSITY OF IOWA: VISVALDAS KAIRYS, HUI LI
     NATIONAL INST. OF STANDARDS AND TECHNOLOGY: WALT STEVENS, DAVID GARMER
     UNIVERSITY OF PISA: BENEDETTA MENNUCCI, JACOPO TOMASI
     UNIVERSITY OF MEMPHIS: HENRY KURTZ, PRAKASHAN KORAMBATH
     UNIVERSITY OF ALBERTA: TOBY ZENG, MARIUSZ KLOBUKOWSKI
     UNIVERSITY OF NEW ENGLAND: MARK SPACKMAN
     MIE UNIVERSITY: HIROAKI UMEDA
     NAT. INST. OF ADVANCED INDUSTRIAL SCIENCE AND TECHNOLOGY: KAZUO KITAURA
     MICHIGAN STATE UNIVERSITY:
          KAROL KOWALSKI, MARTA WLOCH, JEFFREY GOUR, JESSE LUTZ,
          WEI LI, PIOTR PIECUCH
     UNIVERSITY OF SILESIA: MONIKA MUSIAL, STANISLAW KUCHARSKI
     FACULTES UNIVERSITAIRES NOTRE-DAME DE LA PAIX:
          OLIVIER QUINET, BENOIT CHAMPAGNE
     UNIVERSITY OF CALIFORNIA - SANTA BARBARA: BERNARD KIRTMAN
     INSTITUTE FOR MOLECULAR SCIENCE:
          KAZUYA ISHIMURA, MICHIO KATOUDA, AND SHIGERU NAGASE
     UNIVERSITY OF NOTRE DAME: ANNA POMOGAEVA, DAN CHIPMAN
     KYUSHU UNIVERSITY:
          HARUYUKI NAKANO,
          FENG LONG GU, JACEK KORCHOWIEC, MARCIN MAKOWSKI, AND YURIKO AOKI,
          HIROTOSHI MORI AND EISAKU MIYOSHI
     PENNSYLVANIA STATE UNIVERSITY:
          TZVETELIN IORDANOV, CHET SWALINA, JONATHAN SKONE,
          SHARON HAMMES-SCHIFFER
     WASEDA UNIVERSITY:
          MASATO KOBAYASHI, TOMOKO AKAMA, TSUGUKI TOUMA,
          TAKESHI YOSHIKAWA, YASUHIRO IKABATA, JUNJI SEINO,
          YUYA NAKAJIMA, HIROMI NAKAI
     NANJING UNIVERSITY: SHUHUA LI
     UNIVERSITY OF NEBRASKA:
          PEIFENG SU, DEJUN SI, NANDUN THELLAMUREGE, YALI WANG, HUI LI
     UNIVERSITY OF ZURICH: ROBERTO PEVERATI, KIM BALDRIDGE
     N. COPERNICUS UNIVERSITY AND JACKSON STATE UNIVERSITY:
          MARIA BARYSZ
     UNIVERSITY OF COPENHAGEN: Jimmy Kromann, CASPER STEINMANN
     TOKYO INSTITUTE OF TECHNOLOGY: HIROYA NAKATA
     NAGOYA UNIVERSITY: YOSHIO NISHIMOTO, STEPHAN IRLE
     MOSCOW STATE UNIVERSITY: VLADIMIR MIRONOV

 EXECUTION OF GAMESS BEGUN Mon Nov 28 18:40:31 2016

            ECHO OF THE FIRST FEW INPUT CARDS -
 INPUT CARD>!   hexatriene...three conjugated but localizable pi bonds.                     
 INPUT CARD>!   6-311G(3df,2p) basis has 318 AOs, 282 MOs, 19 core                          
 INPUT CARD>!                                                                               
 INPUT CARD>!   Boys and Edmiston/Ruedenberg localization yield "banana" bonds,             
 INPUT CARD>!   while Pipek/Mezey yields signa/pi bonds (this is commonplace                
 INPUT CARD>!   for these three procedures).  Standard test runs a Boys-like                
 INPUT CARD>!   algorithm, implemented by Jacobi rotations on a different                   
 INPUT CARD>!   localization sum formula than Boys had suggested.                           
 INPUT CARD>!                                                                               
 INPUT CARD>!   FINAL E= -231.8863168109 in 12 iters, but the point of test is:             
 INPUT CARD>!       BOYS loc sums: initial= 0.000000 final= 2021.668410 Debye**2, 41 iters  
 INPUT CARD>!   RUEDNBRG loc sums: initial= 4.601980 final=   10.849209 Hartree, 517 pairs  
 INPUT CARD>!        POP loc sums: initial= 2.251960 final=    9.423823, 40 iters.          
 INPUT CARD>!                                                                               
 INPUT CARD>!   This run takes 69 seconds on 2.66 GHz Cloverton (30 Apr 2015)               
 INPUT CARD>!          Boys/ER/pop localization step needs 0/73/0 secs                      
 INPUT CARD>!                                                                               
 INPUT CARD> $contrl scftyp=rhf runtyp=energy local=boys ispher=1 nzvar=36 $end             
 INPUT CARD> $system mwords=5 $end                                                          
 INPUT CARD> $guess  guess=huckel $end                                                      
 INPUT CARD> $basis  gbasis=n311 ngauss=6 ndfunc=3 nffunc=1 npfunc=2 $end                   
 INPUT CARD> $zmat   izmat(1)=1,9,5,  1,5,1,  1,1,2,  1,2,6,  1,6,10,                       
 INPUT CARD>           1,9,13, 1,9,11, 1,5,7, 1,1,3, 1,2,4, 1,6,8, 1,10,12, 1,10,14         
 INPUT CARD>           2,9,5,1,  2,5,1,2,  2,1,2,6,  2,2,6,10,                              
 INPUT CARD>           2,13,9,5,  2,11,9,5,  2,7,5,1,  2,3,1,2,                             
 INPUT CARD>           2,4,2,1,  2,8,6,2,  2,12,10,6,  2,14,10,6,                           
 INPUT CARD>           3,9,5,1,2,  3,5,1,2,6,  3,1,2,6,10,                                  
 INPUT CARD>           3,13,9,5,1,  3,11,9,5,1,  3,7,5,1,2,  3,3,1,2,6,                     
 INPUT CARD>           3,4,1,2,5,  3,8,6,2,1,  3,12,10,6,2,  3,14,10,6,2  $end              
 INPUT CARD> $data                                                                          
 INPUT CARD>all trans hexatriene...RHF/6-311G(3df,2p) geometry                              
 INPUT CARD>Cnh 2                                                                           
 INPUT CARD>                                                                                
 INPUT CARD>CARBON      6.0    .0160550308    .6620495360    .0000000000                    
 INPUT CARD>HYDROGEN    1.0   -.9088685175   1.2143761439    .0000000000                    
 INPUT CARD>CARBON      6.0   1.2469966006   1.4481056985    .0000000000                    
 INPUT CARD>HYDROGEN    1.0   2.1697651157    .8933065541    .0000000000                    
 INPUT CARD>CARBON      6.0   1.2832058660   2.7666474087    .0000000000                    
 INPUT CARD>HYDROGEN    1.0    .3839590113   3.3560351433    .0000000000                    
 INPUT CARD>HYDROGEN    1.0   2.2131685980   3.3023456558    .0000000000                    
 INPUT CARD> $end                                                                           
    5000000 WORDS OF MEMORY AVAILABLE

     BASIS OPTIONS
     -------------
     GBASIS=N311         IGAUSS=       6      POLAR=POPN311 
     NDFUNC=       3     NFFUNC=       1     DIFFSP=       F
     NPFUNC=       2      DIFFS=       F     BASNAM=        
     SPLIT2=     2.00000000     0.50000000
     SPLIT3=     4.00000000     1.00000000     0.25000000


     RUN TITLE
     ---------
 all trans hexatriene...RHF/6-311G(3df,2p) geometry                              

 THE POINT GROUP OF THE MOLECULE IS CNH     
 THE ORDER OF THE PRINCIPAL AXIS IS     2

 ATOM      ATOMIC                      COORDINATES (BOHR)
           CHARGE         X                   Y                   Z
 CARBON      6.0    -0.0303396089       -1.2510922133        0.0000000000
 CARBON      6.0     0.0303396089        1.2510922133        0.0000000000
 HYDROGEN    1.0     1.7175124569       -2.2948381580        0.0000000000
 HYDROGEN    1.0    -1.7175124569        2.2948381580        0.0000000000
 CARBON      6.0    -2.3564818828       -2.7365229714        0.0000000000
 CARBON      6.0     2.3564818828        2.7365229714        0.0000000000
 HYDROGEN    1.0    -4.1002615264       -1.6881046103        0.0000000000
 HYDROGEN    1.0     4.1002615264        1.6881046103        0.0000000000
 CARBON      6.0    -2.4249074726       -5.2282055071        0.0000000000
 CARBON      6.0     2.4249074726        5.2282055071        0.0000000000
 HYDROGEN    1.0    -0.7255773219       -6.3419868260        0.0000000000
 HYDROGEN    1.0     0.7255773219        6.3419868260        0.0000000000
 HYDROGEN    1.0    -4.1822822149       -6.2405284062        0.0000000000
 HYDROGEN    1.0     4.1822822149        6.2405284062        0.0000000000

          INTERNUCLEAR DISTANCES (ANGS.)
          ------------------------------

                1 CARB       2 CARB       3 HYDR       4 HYDR       5 CARB  

   1 CARB    0.0000000    1.3244884 *  1.0772875 *  2.0780013 *  1.4605141 *
   2 CARB    1.3244884 *  0.0000000    2.0780013 *  1.0772875 *  2.4592793 *
   3 HYDR    1.0772875 *  2.0780013 *  0.0000000    3.0336456    2.1684981 *
   4 HYDR    2.0780013 *  1.0772875 *  3.0336456    0.0000000    2.6838666 *
   5 CARB    1.4605141 *  2.4592793 *  2.1684981 *  2.6838666 *  0.0000000  
   6 CARB    2.4592793 *  1.4605141 *  2.6838666 *  2.1684981 *  3.8220469  
   7 HYDR    2.1660902 *  2.6827117 *  3.0953305    2.4560510 *  1.0767097 *
   8 HYDR    2.6827117 *  2.1660902 *  2.4560510 *  3.0953305    4.1420372  
   9 CARB    2.4566244 *  3.6666117    2.6860261 *  3.9985844    1.3190388 *
  10 CARB    3.6666117    2.4566244 *  3.9985844    2.6860261 *  4.9158995  
  11 HYDR    2.7189910 *  4.0379470    2.5016207 *  4.6004553    2.0940460 *
  12 HYDR    4.0379470    2.7189910 *  4.6004553    2.5016207 *  5.0734392  
  13 HYDR    3.4348903    4.5481719    3.7558930    4.7012737    2.0908597 *
  14 HYDR    4.5481719    3.4348903    4.7012737    3.7558930    5.8770342  

                6 CARB       7 HYDR       8 HYDR       9 CARB      10 CARB  

   1 CARB    2.4592793 *  2.1660902 *  2.6827117 *  2.4566244 *  3.6666117  
   2 CARB    1.4605141 *  2.6827117 *  2.1660902 *  3.6666117    2.4566244 *
   3 HYDR    2.6838666 *  3.0953305    2.4560510 *  2.6860261 *  3.9985844  
   4 HYDR    2.1684981 *  2.4560510 *  3.0953305    3.9985844    2.6860261 *
   5 CARB    3.8220469    1.0767097 *  4.1420372    1.3190388 *  4.9158995  
   6 CARB    0.0000000    4.1420372    1.0767097 *  4.9158995    1.3190388 *
   7 HYDR    4.1420372    0.0000000    4.6929212    2.0725331 *  5.0317265  
   8 HYDR    1.0767097 *  4.6929212    0.0000000    5.0317265    2.0725331 *
   9 CARB    4.9158995    2.0725331 *  5.0317265    0.0000000    6.0994935  
  10 CARB    1.3190388 *  5.0317265    2.0725331 *  6.0994935    0.0000000  
  11 HYDR    5.0734392    3.0420611    4.9576619    1.0751850 *  6.3456032  
  12 HYDR    2.0940460 *  4.9576619    3.0420611    6.3456032    1.0751850 *
  13 HYDR    5.8770342    2.4094301 *  6.0674216    1.0732210 *  7.0040925  
  14 HYDR    2.0908597 *  6.0674216    2.4094301 *  7.0040925    1.0732210 *

               11 HYDR      12 HYDR      13 HYDR      14 HYDR  

   1 CARB    2.7189910 *  4.0379470    3.4348903    4.5481719  
   2 CARB    4.0379470    2.7189910 *  4.5481719    3.4348903  
   3 HYDR    2.5016207 *  4.6004553    3.7558930    4.7012737  
   4 HYDR    4.6004553    2.5016207 *  4.7012737    3.7558930  
   5 CARB    2.0940460 *  5.0734392    2.0908597 *  5.8770342  
   6 CARB    5.0734392    2.0940460 *  5.8770342    2.0908597 *
   7 HYDR    3.0420611    4.9576619    2.4094301 *  6.0674216  
   8 HYDR    4.9576619    3.0420611    6.0674216    2.4094301 *
   9 CARB    1.0751850 *  6.3456032    1.0732210 *  7.0040925  
  10 CARB    6.3456032    1.0751850 *  7.0040925    1.0732210 *
  11 HYDR    0.0000000    6.7558557    1.8299973 *  7.1469649  
  12 HYDR    6.7558557    0.0000000    7.1469649    1.8299973 *
  13 HYDR    1.8299973 *  7.1469649    0.0000000    7.9507489  
  14 HYDR    7.1469649    1.8299973 *  7.9507489    0.0000000  

  * ... LESS THAN  3.000


     ATOMIC BASIS SET
     ----------------
 THE CONTRACTED PRIMITIVE FUNCTIONS HAVE BEEN UNNORMALIZED
 THE CONTRACTED BASIS FUNCTIONS ARE NOW NORMALIZED TO UNITY

  SHELL TYPE  PRIMITIVE        EXPONENT          CONTRACTION COEFFICIENT(S)

 CARBON    

      9   S       1          4563.2400000    0.001966650249
      9   S       2           682.0240000    0.015230601932
      9   S       3           154.9730000    0.076126909656
      9   S       4            44.4553000    0.260801033080
      9   S       5            13.0290000    0.616462078191
      9   S       6             1.8277300    0.221006028032

     10   L       7            20.9642000    0.114660080729    0.040248692673
     10   L       8             4.8033100    0.919999647749    0.237593956746
     10   L       9             1.4593300   -0.003030682134    0.815853851473

     11   L      10             0.4834560    1.000000000000    1.000000000000

     12   L      11             0.1455850    1.000000000000    1.000000000000

     13   D      12             2.5040000    1.000000000000

     14   D      13             0.6260000    1.000000000000

     15   D      14             0.1565000    1.000000000000

     16   F      15             0.8000000    1.000000000000

 HYDROGEN  

     22   S      16            33.8650000    0.025493814541
     22   S      17             5.0947900    0.190373108582
     22   S      18             1.1587900    0.852161486043

     23   S      19             0.3258400    1.000000000000

     24   S      20             0.1027410    1.000000000000

     25   P      21             1.5000000    1.000000000000

     26   P      22             0.3750000    1.000000000000

 CARBON    

     35   S      23          4563.2400000    0.001966650249
     35   S      24           682.0240000    0.015230601932
     35   S      25           154.9730000    0.076126909656
     35   S      26            44.4553000    0.260801033080
     35   S      27            13.0290000    0.616462078191
     35   S      28             1.8277300    0.221006028032

     36   L      29            20.9642000    0.114660080729    0.040248692673
     36   L      30             4.8033100    0.919999647749    0.237593956746
     36   L      31             1.4593300   -0.003030682134    0.815853851473

     37   L      32             0.4834560    1.000000000000    1.000000000000

     38   L      33             0.1455850    1.000000000000    1.000000000000

     39   D      34             2.5040000    1.000000000000

     40   D      35             0.6260000    1.000000000000

     41   D      36             0.1565000    1.000000000000

     42   F      37             0.8000000    1.000000000000

 HYDROGEN  

     48   S      38            33.8650000    0.025493814541
     48   S      39             5.0947900    0.190373108582
     48   S      40             1.1587900    0.852161486043

     49   S      41             0.3258400    1.000000000000

     50   S      42             0.1027410    1.000000000000

     51   P      43             1.5000000    1.000000000000

     52   P      44             0.3750000    1.000000000000

 CARBON    

     61   S      45          4563.2400000    0.001966650249
     61   S      46           682.0240000    0.015230601932
     61   S      47           154.9730000    0.076126909656
     61   S      48            44.4553000    0.260801033080
     61   S      49            13.0290000    0.616462078191
     61   S      50             1.8277300    0.221006028032

     62   L      51            20.9642000    0.114660080729    0.040248692673
     62   L      52             4.8033100    0.919999647749    0.237593956746
     62   L      53             1.4593300   -0.003030682134    0.815853851473

     63   L      54             0.4834560    1.000000000000    1.000000000000

     64   L      55             0.1455850    1.000000000000    1.000000000000

     65   D      56             2.5040000    1.000000000000

     66   D      57             0.6260000    1.000000000000

     67   D      58             0.1565000    1.000000000000

     68   F      59             0.8000000    1.000000000000

 HYDROGEN  

     74   S      60            33.8650000    0.025493814541
     74   S      61             5.0947900    0.190373108582
     74   S      62             1.1587900    0.852161486043

     75   S      63             0.3258400    1.000000000000

     76   S      64             0.1027410    1.000000000000

     77   P      65             1.5000000    1.000000000000

     78   P      66             0.3750000    1.000000000000

 HYDROGEN  

     84   S      67            33.8650000    0.025493814541
     84   S      68             5.0947900    0.190373108582
     84   S      69             1.1587900    0.852161486043

     85   S      70             0.3258400    1.000000000000

     86   S      71             0.1027410    1.000000000000

     87   P      72             1.5000000    1.000000000000

     88   P      73             0.3750000    1.000000000000

 TOTAL NUMBER OF BASIS SET SHELLS             =   88
 NUMBER OF CARTESIAN GAUSSIAN BASIS FUNCTIONS =  318
 NOTE: THIS RUN WILL RESTRICT THE MO VARIATION SPACE TO SPHERICAL HARMONICS.
 THE NUMBER OF ORBITALS KEPT IN THE VARIATIONAL SPACE WILL BE PRINTED LATER.
 NUMBER OF ELECTRONS                          =   44
 CHARGE OF MOLECULE                           =    0
 SPIN MULTIPLICITY                            =    1
 NUMBER OF OCCUPIED ORBITALS (ALPHA)          =   22
 NUMBER OF OCCUPIED ORBITALS (BETA )          =   22
 TOTAL NUMBER OF ATOMS                        =   14
 THE NUCLEAR REPULSION ENERGY IS      195.4110487208

     $CONTRL OPTIONS
     ---------------
 SCFTYP=RHF          RUNTYP=ENERGY       EXETYP=RUN     
 MPLEVL=       0     CITYP =NONE         CCTYP =NONE         VBTYP =NONE    
 DFTTYP=NONE         TDDFT =NONE    
 MULT  =       1     ICHARG=       0     NZVAR =      36     COORD =UNIQUE  
 PP    =NONE         RELWFN=NONE         LOCAL =BOYS         NUMGRD=       F
 ISPHER=       1     NOSYM =       0     MAXIT =      30     UNITS =ANGS    
 PLTORB=       F     MOLPLT=       F     AIMPAC=       F     FRIEND=        
 NPRINT=       7     IREST =       0     GEOM  =INPUT   
 NORMF =       0     NORMP =       0     ITOL  =      20     ICUT  =       9
 INTTYP=BEST         GRDTYP=BEST         QMTTOL= 1.0E-06

     $SYSTEM OPTIONS
     ---------------
  REPLICATED MEMORY=     5000000 WORDS (ON EVERY NODE).
 DISTRIBUTED MEMDDI=           0 MILLION WORDS IN AGGREGATE,
 MEMDDI DISTRIBUTED OVER   1 PROCESSORS IS           0 WORDS/PROCESSOR.
 TOTAL MEMORY REQUESTED ON EACH PROCESSOR=     5000000 WORDS.
 TIMLIM=      525600.00 MINUTES, OR     365.0 DAYS.
 PARALL= F  BALTYP=  DLB     KDIAG=    0  COREFL= F
 MXSEQ2=     300 MXSEQ3=     150  mem10=         0

          ----------------
          PROPERTIES INPUT
          ----------------

     MOMENTS            FIELD           POTENTIAL          DENSITY
 IEMOM =       1   IEFLD =       0   IEPOT =       0   IEDEN =       0
 WHERE =COMASS     WHERE =NUCLEI     WHERE =NUCLEI     WHERE =NUCLEI  
 OUTPUT=BOTH       OUTPUT=BOTH       OUTPUT=BOTH       OUTPUT=BOTH    
 IEMINT=       0   IEFINT=       0                     IEDINT=       0
                                                       MORB  =       0
          EXTRAPOLATION IN EFFECT
          SOSCF IN EFFECT
 ORBITAL PRINTING OPTION: NPREO=     1   318     2     1

     -------------------------------
     INTEGRAL TRANSFORMATION OPTIONS
     -------------------------------
     NWORD  =            0
     CUTOFF = 1.0E-09     MPTRAN =       0
     DIRTRF =       F     AOINTS =DUP     

          -----------------------------
          LOCALIZATION INPUT PARAMETERS
          -----------------------------
           LOCAL=BOYS          NOUTA=       6
          PRTLOC=       F      NOUTB=       0
          MAXLOC=     250     CVGLOC=1.00E-06
           FCORE=       T     SYMLOC=       F
          MOIDON=       F     EDCOMP=       F
          DIPDCM=       F      NPROT=       0
          QADDCM=       F     DEPRNT=       F
          POLNUM=       F     ORIENT=       F
          POLDYN=       F      VMTOL=1.50E-01
          NPRDTL=       2
          MOOUTA =      1    2    3    4    5    6

          ----------------------
          INTEGRAL INPUT OPTIONS
          ----------------------
 NOPK  =       1 NORDER=       0 SCHWRZ=       T

   --- ENCODED Z MATRIX ---
 COORD  TYPE   I   J   K   L   M   N
    1      1    9   5
    2      1    5   1
    3      1    1   2
    4      1    2   6
    5      1    6  10
    6      1    9  13
    7      1    9  11
    8      1    5   7
    9      1    1   3
   10      1    2   4
   11      1    6   8
   12      1   10  12
   13      1   10  14
   14      2    9   5   1
   15      2    5   1   2
   16      2    1   2   6
   17      2    2   6  10
   18      2   13   9   5
   19      2   11   9   5
   20      2    7   5   1
   21      2    3   1   2
   22      2    4   2   1
   23      2    8   6   2
   24      2   12  10   6
   25      2   14  10   6
   26      3    9   5   1   2
   27      3    5   1   2   6
   28      3    1   2   6  10
   29      3   13   9   5   1
   30      3   11   9   5   1
   31      3    7   5   1   2
   32      3    3   1   2   6
   33      3    4   1   2   5
   34      3    8   6   2   1
   35      3   12  10   6   2
   36      3   14  10   6   2

 THE DETERMINANT OF THE G MATRIX IS 10**(   -23)


                     --------------------
                     INTERNAL COORDINATES
                     --------------------

                 - - ATOMS - -         COORDINATE      COORDINATE
 NO.   TYPE    I  J  K  L  M  N        (BOHR,RAD)       (ANG,DEG)
 ----------------------------------------------------------------
   1 STRETCH   9  5                     2.4926219       1.3190388
   2 STRETCH   5  1                     2.7599715       1.4605141
   3 STRETCH   1  2                     2.5029201       1.3244884
   4 STRETCH   2  6                     2.7599715       1.4605141
   5 STRETCH   6 10                     2.4926219       1.3190388
   6 STRETCH   9 13                     2.0280936       1.0732210
   7 STRETCH   9 11                     2.0318051       1.0751850
   8 STRETCH   5  7                     2.0346863       1.0767097
   9 STRETCH   1  3                     2.0357781       1.0772875
  10 STRETCH   2  4                     2.0357781       1.0772875
  11 STRETCH   6  8                     2.0346863       1.0767097
  12 STRETCH  10 12                     2.0318051       1.0751850
  13 STRETCH  10 14                     2.0280936       1.0732210
  14 BEND      9  5  1                  2.1665571     124.1345752
  15 BEND      5  1  2                  2.1633481     123.9507157
  16 BEND      1  2  6                  2.1633481     123.9507157
  17 BEND      2  6 10                  2.1665571     124.1345752
  18 BEND     13  9  5                  2.1208686     121.5168182
  19 BEND     11  9  5                  2.1235202     121.6687465
  20 BEND      7  5  1                  2.0319608     116.4227776
  21 BEND      3  1  2                  2.0848786     119.4547469
  22 BEND      4  2  1                  2.0848786     119.4547469
  23 BEND      8  6  2                  2.0319608     116.4227776
  24 BEND     12 10  6                  2.1235202     121.6687465
  25 BEND     14 10  6                  2.1208686     121.5168182
  26 TORSION   9  5  1  2               3.1415927     180.0000000
  27 TORSION   5  1  2  6               3.1415927     180.0000000
  28 TORSION   1  2  6 10               3.1415927     180.0000000
  29 TORSION  13  9  5  1               3.1415927     180.0000000
  30 TORSION  11  9  5  1               0.0000000       0.0000000
  31 TORSION   7  5  1  2               0.0000000       0.0000000
  32 TORSION   3  1  2  6               0.0000000       0.0000000
  33 TORSION   4  1  2  5               0.0000000       0.0000000
  34 TORSION   8  6  2  1               0.0000000       0.0000000
  35 TORSION  12 10  6  2               0.0000000       0.0000000
  36 TORSION  14 10  6  2               3.1415927     180.0000000

     ------------------------------------------
     THE POINT GROUP IS CNH, NAXIS= 2, ORDER= 4
     ------------------------------------------

 -- VARIATIONAL SPACE WILL BE RESTRICTED TO PURE SPHERICAL HARMONICS ONLY --
 AFTER EXCLUDING CONTAMINANT COMBINATIONS FROM THE CARTESIAN GAUSSIAN BASIS
 SET, THE NUMBER OF SPHERICAL HARMONICS KEPT IN THE VARIATION SPACE IS  282

     DIMENSIONS OF THE SYMMETRY SUBSPACES ARE
 AG  =   97     AU  =   44     BU  =   97     BG  =   44

 ..... DONE SETTING UP THE RUN .....
 STEP CPU TIME =     0.08 TOTAL CPU TIME =        0.1 (    0.0 MIN)
 TOTAL WALL CLOCK TIME=        0.1 SECONDS, CPU UTILIZATION IS  72.73%

          ********************
          1 ELECTRON INTEGRALS
          ********************
 ...... END OF ONE-ELECTRON INTEGRALS ......
 STEP CPU TIME =     0.03 TOTAL CPU TIME =        0.1 (    0.0 MIN)
 TOTAL WALL CLOCK TIME=        0.1 SECONDS, CPU UTILIZATION IS  78.57%

          -------------
          GUESS OPTIONS
          -------------
          GUESS =HUCKEL            NORB  =       0          NORDER=       0
          MIX   =       F          PRTMO =       F          PUNMO =       F
          TOLZ  = 1.0E-08          TOLE  = 1.0E-05
          SYMDEN=       F          PURIFY=       F

 INITIAL GUESS ORBITALS GENERATED BY HUCKEL   ROUTINE.
 HUCKEL GUESS REQUIRES    738054 WORDS.

 STATISTICS FOR GENERATION OF SYMMETRY ORBITAL -Q- MATRIX
 NUMBER OF CARTESIAN ATOMIC ORBITALS=        318
 NUMBER OF SPHERICAL CONTAMINANTS DROPPED=    36
 NUMBER OF LINEARLY DEPENDENT MOS DROPPED=     0
 TOTAL NUMBER OF MOS IN VARIATION SPACE=     282

 SYMMETRIES FOR INITIAL GUESS ORBITALS FOLLOW.   BOTH SET(S).
    22 ORBITALS ARE OCCUPIED (    6 CORE ORBITALS).
     7=AG       8=BU       9=AG      10=BU      11=BU      12=AG      13=AG  
    14=BU      15=AU      16=AG      17=BU      18=BG      19=BU      20=AG  
    21=AG      22=AU      23=BG      24=AU      25=BG      26=BU      27=AG  
    28=AG      29=AG      30=AG      31=AG      32=AG  
 ...... END OF INITIAL ORBITAL SELECTION ......
 STEP CPU TIME =     0.35 TOTAL CPU TIME =        0.5 (    0.0 MIN)
 TOTAL WALL CLOCK TIME=        0.5 SECONDS, CPU UTILIZATION IS  92.00%

                    ----------------------
                    AO INTEGRAL TECHNOLOGY
                    ----------------------
     S,P,L SHELL ROTATED AXIS INTEGRALS, REPROGRAMMED BY
        KAZUYA ISHIMURA (IMS) AND JOSE SIERRA (SYNSTAR).
     S,P,D,L SHELL ROTATED AXIS INTEGRALS PROGRAMMED BY
        KAZUYA ISHIMURA (INSTITUTE FOR MOLECULAR SCIENCE).
     S,P,D,F,G SHELL TO TOTAL QUARTET ANGULAR MOMENTUM SUM 5,
        ERIC PROGRAM BY GRAHAM FLETCHER (ELORET AND NASA ADVANCED
        SUPERCOMPUTING DIVISION, AMES RESEARCH CENTER).
     S,P,D,F,G,L SHELL GENERAL RYS QUADRATURE PROGRAMMED BY
        MICHEL DUPUIS (PACIFIC NORTHWEST NATIONAL LABORATORY).

          --------------------
          2 ELECTRON INTEGRALS
          --------------------

 THE -PK- OPTION IS OFF, THE INTEGRALS ARE NOT IN SUPERMATRIX FORM.
 STORING   15000 INTEGRALS/RECORD ON DISK, USING 16 BYTES/INTEGRAL.
 TWO ELECTRON INTEGRAL EVALUATION REQUIRES  103016 WORDS OF MEMORY.
 SCHWARZ INEQUALITY OVERHEAD:     46246 INTEGRALS, T=        0.02
 II,JST,KST,LST =  1  1  1  1 NREC =         1 INTLOC =    1
 II,JST,KST,LST =  2  1  1  1 NREC =         1 INTLOC =    1
 II,JST,KST,LST =  3  1  1  1 NREC =         1 INTLOC =    1
 II,JST,KST,LST =  4  1  1  1 NREC =         1 INTLOC =    1
 II,JST,KST,LST =  5  1  1  1 NREC =         1 INTLOC =    1
 II,JST,KST,LST =  6  1  1  1 NREC =         1 INTLOC =    1
 II,JST,KST,LST =  7  1  1  1 NREC =         1 INTLOC =    1
 II,JST,KST,LST =  8  1  1  1 NREC =         1 INTLOC =    1
 II,JST,KST,LST =  9  1  1  1 NREC =         1 INTLOC =    1
 II,JST,KST,LST = 10  1  1  1 NREC =         1 INTLOC =    5
 II,JST,KST,LST = 11  1  1  1 NREC =         1 INTLOC =  492
 II,JST,KST,LST = 12  1  1  1 NREC =         1 INTLOC = 4108
 II,JST,KST,LST = 13  1  1  1 NREC =         2 INTLOC = 1300
 II,JST,KST,LST = 14  1  1  1 NREC =         5 INTLOC = 8430
 II,JST,KST,LST = 15  1  1  1 NREC =        14 INTLOC = 2513
 II,JST,KST,LST = 16  1  1  1 NREC =        31 INTLOC = 7045
 II,JST,KST,LST = 17  1  1  1 NREC =        91 INTLOC =11105
 II,JST,KST,LST = 18  1  1  1 NREC =        91 INTLOC =11105
 II,JST,KST,LST = 19  1  1  1 NREC =        91 INTLOC =11105
 II,JST,KST,LST = 20  1  1  1 NREC =        91 INTLOC =11105
 II,JST,KST,LST = 21  1  1  1 NREC =        91 INTLOC =11105
 II,JST,KST,LST = 22  1  1  1 NREC =        91 INTLOC =11105
 II,JST,KST,LST = 23  1  1  1 NREC =       101 INTLOC =13850
 II,JST,KST,LST = 24  1  1  1 NREC =       113 INTLOC =  156
 II,JST,KST,LST = 25  1  1  1 NREC =       124 INTLOC =14521
 II,JST,KST,LST = 26  1  1  1 NREC =       162 INTLOC =12222
 II,JST,KST,LST = 27  1  1  1 NREC =       210 INTLOC = 2500
 II,JST,KST,LST = 28  1  1  1 NREC =       210 INTLOC = 2500
 II,JST,KST,LST = 29  1  1  1 NREC =       210 INTLOC = 2500
 II,JST,KST,LST = 30  1  1  1 NREC =       210 INTLOC = 2500
 II,JST,KST,LST = 31  1  1  1 NREC =       210 INTLOC = 2500
 II,JST,KST,LST = 32  1  1  1 NREC =       210 INTLOC = 2500
 II,JST,KST,LST = 33  1  1  1 NREC =       210 INTLOC = 2500
 II,JST,KST,LST = 34  1  1  1 NREC =       210 INTLOC = 2500
 II,JST,KST,LST = 35  1  1  1 NREC =       210 INTLOC = 2500
 II,JST,KST,LST = 36  1  1  1 NREC =       225 INTLOC = 8464
 II,JST,KST,LST = 37  1  1  1 NREC =       295 INTLOC = 1365
 II,JST,KST,LST = 38  1  1  1 NREC =       392 INTLOC = 1407
 II,JST,KST,LST = 39  1  1  1 NREC =       516 INTLOC = 5009
 II,JST,KST,LST = 40  1  1  1 NREC =       695 INTLOC = 1562
 II,JST,KST,LST = 41  1  1  1 NREC =       960 INTLOC = 5427
 II,JST,KST,LST = 42  1  1  1 NREC =      1329 INTLOC =10811
 II,JST,KST,LST = 43  1  1  1 NREC =      2059 INTLOC = 8633
 II,JST,KST,LST = 44  1  1  1 NREC =      2059 INTLOC = 8633
 II,JST,KST,LST = 45  1  1  1 NREC =      2059 INTLOC = 8633
 II,JST,KST,LST = 46  1  1  1 NREC =      2059 INTLOC = 8633
 II,JST,KST,LST = 47  1  1  1 NREC =      2059 INTLOC = 8633
 II,JST,KST,LST = 48  1  1  1 NREC =      2059 INTLOC = 8633
 II,JST,KST,LST = 49  1  1  1 NREC =      2133 INTLOC =11921
 II,JST,KST,LST = 50  1  1  1 NREC =      2232 INTLOC =13644
 II,JST,KST,LST = 51  1  1  1 NREC =      2342 INTLOC =12697
 II,JST,KST,LST = 52  1  1  1 NREC =      2574 INTLOC =  279
 II,JST,KST,LST = 53  1  1  1 NREC =      2904 INTLOC =   43
 II,JST,KST,LST = 54  1  1  1 NREC =      2904 INTLOC =   43
 II,JST,KST,LST = 55  1  1  1 NREC =      2904 INTLOC =   43
 II,JST,KST,LST = 56  1  1  1 NREC =      2904 INTLOC =   43
 II,JST,KST,LST = 57  1  1  1 NREC =      2904 INTLOC =   43
 II,JST,KST,LST = 58  1  1  1 NREC =      2904 INTLOC =   43
 II,JST,KST,LST = 59  1  1  1 NREC =      2904 INTLOC =   43
 II,JST,KST,LST = 60  1  1  1 NREC =      2904 INTLOC =   43
 II,JST,KST,LST = 61  1  1  1 NREC =      2904 INTLOC =   43
 II,JST,KST,LST = 62  1  1  1 NREC =      2968 INTLOC = 7317
 II,JST,KST,LST = 63  1  1  1 NREC =      3249 INTLOC =14767
 II,JST,KST,LST = 64  1  1  1 NREC =      3672 INTLOC =13389
 II,JST,KST,LST = 65  1  1  1 NREC =      4304 INTLOC = 4353
 II,JST,KST,LST = 66  1  1  1 NREC =      4851 INTLOC = 7636
 II,JST,KST,LST = 67  1  1  1 NREC =      5676 INTLOC = 3805
 II,JST,KST,LST = 68  1  1  1 NREC =      6988 INTLOC = 5031
 II,JST,KST,LST = 69  1  1  1 NREC =      8755 INTLOC =14187
 II,JST,KST,LST = 70  1  1  1 NREC =      8755 INTLOC =14187
 II,JST,KST,LST = 71  1  1  1 NREC =      8755 INTLOC =14187
 II,JST,KST,LST = 72  1  1  1 NREC =      8755 INTLOC =14187
 II,JST,KST,LST = 73  1  1  1 NREC =      8755 INTLOC =14187
 II,JST,KST,LST = 74  1  1  1 NREC =      8755 INTLOC =14187
 II,JST,KST,LST = 75  1  1  1 NREC =      8913 INTLOC =10403
 II,JST,KST,LST = 76  1  1  1 NREC =      9142 INTLOC = 6800
 II,JST,KST,LST = 77  1  1  1 NREC =      9463 INTLOC =13248
 II,JST,KST,LST = 78  1  1  1 NREC =      9928 INTLOC = 7122
 II,JST,KST,LST = 79  1  1  1 NREC =     10624 INTLOC =10156
 II,JST,KST,LST = 80  1  1  1 NREC =     10624 INTLOC =10156
 II,JST,KST,LST = 81  1  1  1 NREC =     10624 INTLOC =10156
 II,JST,KST,LST = 82  1  1  1 NREC =     10624 INTLOC =10156
 II,JST,KST,LST = 83  1  1  1 NREC =     10624 INTLOC =10156
 II,JST,KST,LST = 84  1  1  1 NREC =     10624 INTLOC =10156
 II,JST,KST,LST = 85  1  1  1 NREC =     10788 INTLOC = 1288
 II,JST,KST,LST = 86  1  1  1 NREC =     11023 INTLOC =14645
 II,JST,KST,LST = 87  1  1  1 NREC =     11373 INTLOC = 3239
 II,JST,KST,LST = 88  1  1  1 NREC =     11849 INTLOC = 7274
 SCHWARZ INEQUALITY TEST SKIPPED     1436551 INTEGRAL BLOCKS.
 TOTAL NUMBER OF NONZERO TWO-ELECTRON INTEGRALS =           188470552
      12565 INTEGRAL RECORDS WERE STORED ON DISK FILE  8.
  ...... END OF TWO-ELECTRON INTEGRALS .....
 STEP CPU TIME =    12.51 TOTAL CPU TIME =       13.0 (    0.2 MIN)
 TOTAL WALL CLOCK TIME=       13.4 SECONDS, CPU UTILIZATION IS  96.50%

          --------------------------
                 RHF SCF CALCULATION
          --------------------------

     NUCLEAR ENERGY =       195.4110487208
     MAXIT =   30     NPUNCH=    2
     EXTRAP=T  DAMP=F  SHIFT=F  RSTRCT=F  DIIS=F  DEM=F  SOSCF=T
     DENSITY MATRIX CONV=  1.00E-05
     SOSCF WILL OPTIMIZE    5720 ORBITAL ROTATIONS, SOGTOL=   0.250
     MEMORY REQUIRED FOR RHF ITERS=    765200 WORDS.

 ITER EX DEM     TOTAL ENERGY        E CHANGE  DENSITY CHANGE     ORB. GRAD
   1  0  0     -231.1773699737  -231.1773699737   4.395034071   0.000000000
          ---------------START SECOND ORDER SCF---------------
   2  1  0     -231.8516171138    -0.6742471400   0.194339943   0.039310647
   3  2  0     -231.8813567846    -0.0297396708   0.033576203   0.011453020
   4  3  0     -231.8860505678    -0.0046937832   0.028860933   0.003008770
   5  4  0     -231.8862792290    -0.0002286612   0.003799572   0.001057217
   6  5  0     -231.8863154250    -0.0000361960   0.001106167   0.000173263
   7  6  0     -231.8863166410    -0.0000012160   0.000376479   0.000076957
   8  7  0     -231.8863167929    -0.0000001520   0.000184277   0.000019976
   9  8  0     -231.8863168088    -0.0000000159   0.000044978   0.000006268
  10  9  0     -231.8863168107    -0.0000000019   0.000017529   0.000001697
  11 10  0     -231.8863168109    -0.0000000002   0.000006853   0.000000410
  12 11  0     -231.8863168109    -0.0000000000   0.000001211   0.000000103

          -----------------
          DENSITY CONVERGED
          -----------------
     TIME TO FORM FOCK OPERATORS=      25.4 SECONDS (       2.1 SEC/ITER)
     TIME TO SOLVE SCF EQUATIONS=       0.6 SECONDS (       0.0 SEC/ITER)

 FINAL RHF ENERGY IS     -231.8863168109 AFTER  12 ITERATIONS

          ------------
          EIGENVECTORS
          ------------

                      1          2          3          4          5
                  -11.2316   -11.2313   -11.2307   -11.2291   -11.2188
                     AG         BU         AG         BU         AG  
    1  C  1  S    0.233905   0.077019   0.322282   0.390915   0.001284
    2  C  1  S    0.193647   0.063720   0.266855   0.323570   0.001085
    3  C  1  X   -0.000101  -0.000133   0.000054  -0.000030  -0.000032
    4  C  1  Y   -0.000105  -0.000237  -0.000028  -0.000645  -0.000009
    5  C  1  Z   -0.000000  -0.000000   0.000000  -0.000000   0.000000
    6  C  1  S    0.002233   0.000942   0.002645   0.003632  -0.000042
    7  C  1  X   -0.000030   0.000140  -0.000130   0.000111   0.000231
    8  C  1  Y    0.000024   0.000845   0.000001   0.003005   0.000099
    9  C  1  Z   -0.000000  -0.000000   0.000000  -0.000000   0.000000
   10  C  1  S    0.001767   0.001056   0.002077   0.013259   0.002181
   11  C  1  X   -0.002079  -0.000348  -0.000598  -0.001731  -0.001379
   12  C  1  Y   -0.000004  -0.000254  -0.000646   0.002818  -0.000649
   13  C  1  Z   -0.000000  -0.000000   0.000000  -0.000000   0.000000
   14  C  1 XX   -0.000005   0.000043  -0.000052   0.000061   0.000005
   15  C  1 YY    0.000047  -0.000026   0.000065  -0.000074   0.000001
   16  C  1 ZZ   -0.000042  -0.000017  -0.000013   0.000013  -0.000005
   17  C  1 XY    0.000028   0.000036  -0.000048  -0.000021   0.000014
   18  C  1 XZ   -0.000000  -0.000000   0.000000  -0.000000   0.000000
   19  C  1 YZ   -0.000000  -0.000000   0.000000  -0.000000   0.000000
   20  C  1 XX    0.000097  -0.000237   0.000247  -0.000634  -0.000054
   21  C  1 YY    0.000149   0.000427   0.000211   0.001743   0.000002
   22  C  1 ZZ   -0.000245  -0.000190  -0.000458  -0.001109   0.000052
   23  C  1 XY   -0.000025  -0.000075   0.000221   0.000091  -0.000127
   24  C  1 XZ   -0.000000  -0.000000   0.000000  -0.000000   0.000000
   25  C  1 YZ   -0.000000  -0.000000   0.000000  -0.000000   0.000000
   26  C  1 XX    0.000567   0.000067   0.000260  -0.000245   0.000519
   27  C  1 YY   -0.000667  -0.000004  -0.000227   0.001023  -0.000413
   28  C  1 ZZ    0.000101  -0.000063  -0.000033  -0.000777  -0.000106
   29  C  1 XY   -0.001045   0.000098   0.000055   0.000590  -0.000008
   30  C  1 XZ   -0.000000  -0.000000   0.000000  -0.000000   0.000000
   31  C  1 YZ   -0.000000  -0.000000   0.000000  -0.000000   0.000000
   32  C  1 XXX   0.000013   0.000001  -0.000037  -0.000010   0.000005
   33  C  1 YYY   0.000178   0.000118   0.000311   0.000745  -0.000013
   34  C  1 ZZZ  -0.000000  -0.000000   0.000000  -0.000000   0.000000
   35  C  1 XXY  -0.000249  -0.000032  -0.000455  -0.000679   0.000035
   36  C  1 XXZ  -0.000000  -0.000000   0.000000  -0.000000   0.000000
   37  C  1 YYX  -0.000013   0.000032   0.000023   0.000028   0.000040
   38  C  1 YYZ  -0.000000  -0.000000   0.000000  -0.000000   0.000000
   39  C  1 ZZX  -0.000006  -0.000033   0.000026  -0.000015  -0.000046
   40  C  1 ZZY   0.000010  -0.000126   0.000037  -0.000321  -0.000018
   41  C  1 XYZ  -0.000000  -0.000000   0.000000  -0.000000   0.000000
   42  C  2  S    0.233905  -0.077019   0.322282  -0.390915   0.001284
   43  C  2  S    0.193647  -0.063720   0.266855  -0.323570   0.001085
   44  C  2  X    0.000101  -0.000133  -0.000054  -0.000030   0.000032
   45  C  2  Y    0.000105  -0.000237   0.000028  -0.000645   0.000009
   46  C  2  Z   -0.000000  -0.000000   0.000000  -0.000000   0.000000
   47  C  2  S    0.002233  -0.000942   0.002645  -0.003632  -0.000042
   48  C  2  X    0.000030   0.000140   0.000130   0.000111  -0.000231
   49  C  2  Y   -0.000024   0.000845  -0.000001   0.003005  -0.000099
   50  C  2  Z   -0.000000  -0.000000   0.000000  -0.000000   0.000000
   51  C  2  S    0.001767  -0.001056   0.002077  -0.013259   0.002181
   52  C  2  X    0.002079  -0.000348   0.000598  -0.001731   0.001379
   53  C  2  Y    0.000004  -0.000254   0.000646   0.002818   0.000649
   54  C  2  Z   -0.000000  -0.000000   0.000000  -0.000000   0.000000
   55  C  2 XX   -0.000005  -0.000043  -0.000052  -0.000061   0.000005
   56  C  2 YY    0.000047   0.000026   0.000065   0.000074   0.000001
   57  C  2 ZZ   -0.000042   0.000017  -0.000013  -0.000013  -0.000005
   58  C  2 XY    0.000028  -0.000036  -0.000048   0.000021   0.000014
   59  C  2 XZ   -0.000000  -0.000000   0.000000  -0.000000   0.000000
   60  C  2 YZ   -0.000000  -0.000000   0.000000  -0.000000   0.000000
   61  C  2 XX    0.000097   0.000237   0.000247   0.000634  -0.000054
   62  C  2 YY    0.000149  -0.000427   0.000211  -0.001743   0.000002
   63  C  2 ZZ   -0.000245   0.000190  -0.000458   0.001109   0.000052
   64  C  2 XY   -0.000025   0.000075   0.000221  -0.000091  -0.000127
   65  C  2 XZ   -0.000000  -0.000000   0.000000  -0.000000   0.000000
   66  C  2 YZ   -0.000000  -0.000000   0.000000  -0.000000   0.000000
   67  C  2 XX    0.000567  -0.000067   0.000260   0.000245   0.000519
   68  C  2 YY   -0.000667   0.000004  -0.000227  -0.001023  -0.000413
   69  C  2 ZZ    0.000101   0.000063  -0.000033   0.000777  -0.000106
   70  C  2 XY   -0.001045  -0.000098   0.000055  -0.000590  -0.000008
   71  C  2 XZ   -0.000000  -0.000000   0.000000  -0.000000   0.000000
   72  C  2 YZ   -0.000000  -0.000000   0.000000  -0.000000   0.000000
   73  C  2 XXX  -0.000013   0.000001   0.000037  -0.000010  -0.000005
   74  C  2 YYY  -0.000178   0.000118  -0.000311   0.000745   0.000013
   75  C  2 ZZZ  -0.000000  -0.000000   0.000000  -0.000000   0.000000
   76  C  2 XXY   0.000249  -0.000032   0.000455  -0.000679  -0.000035
   77  C  2 XXZ  -0.000000  -0.000000   0.000000  -0.000000   0.000000
   78  C  2 YYX   0.000013   0.000032  -0.000023   0.000028  -0.000040
   79  C  2 YYZ  -0.000000  -0.000000   0.000000  -0.000000   0.000000
   80  C  2 ZZX   0.000006  -0.000033  -0.000026  -0.000015   0.000046
   81  C  2 ZZY  -0.000010  -0.000126  -0.000037  -0.000321   0.000018
   82  C  2 XYZ  -0.000000  -0.000000   0.000000  -0.000000   0.000000
   83  H  3  S    0.000098   0.000062   0.000119   0.000193  -0.000009
   84  H  3  S   -0.000445  -0.000035  -0.000384  -0.000139  -0.000187
   85  H  3  S   -0.000179   0.000020  -0.000155   0.000356  -0.000031
   86  H  3  X    0.000046  -0.000012   0.000046   0.000002   0.000022
   87  H  3  Y   -0.000025   0.000013  -0.000028   0.000018  -0.000003
   88  H  3  Z   -0.000000  -0.000000   0.000000  -0.000000   0.000000
   89  H  3  X    0.000094   0.000020   0.000117   0.000036   0.000020
   90  H  3  Y   -0.000067   0.000008  -0.000118  -0.000036  -0.000049
   91  H  3  Z   -0.000000  -0.000000   0.000000  -0.000000   0.000000
   92  H  4  S    0.000098  -0.000062   0.000119  -0.000193  -0.000009
   93  H  4  S   -0.000445   0.000035  -0.000384   0.000139  -0.000187
   94  H  4  S   -0.000179  -0.000020  -0.000155  -0.000356  -0.000031
   95  H  4  X   -0.000046  -0.000012  -0.000046   0.000002  -0.000022
   96  H  4  Y    0.000025   0.000013   0.000028   0.000018   0.000003
   97  H  4  Z   -0.000000  -0.000000   0.000000  -0.000000   0.000000
   98  H  4  X   -0.000094   0.000020  -0.000117   0.000036  -0.000020
   99  H  4  Y    0.000067   0.000008   0.000118  -0.000036   0.000049
  100  H  4  Z   -0.000000  -0.000000   0.000000  -0.000000   0.000000
  101  C  5  S    0.321467   0.389718  -0.233310  -0.076771  -0.029865
  102  C  5  S    0.266121   0.322623  -0.193160  -0.063594  -0.024666
  103  C  5  X    0.000129   0.000053   0.000100   0.000068  -0.000019
  104  C  5  Y    0.000374   0.000378  -0.000128  -0.000012  -0.000328
  105  C  5  Z   -0.000000  -0.000000   0.000000  -0.000000   0.000000
  106  C  5  S    0.003026   0.003523  -0.001897  -0.000490  -0.000402
  107  C  5  X   -0.000184   0.000050  -0.000242   0.000153   0.000110
  108  C  5  Y   -0.001324  -0.001339   0.000556   0.000325   0.001716
  109  C  5  Z   -0.000000  -0.000000   0.000000  -0.000000   0.000000
  110  C  5  S    0.005340   0.006039  -0.005101  -0.003029  -0.009064
  111  C  5  X   -0.000121  -0.000577  -0.000535  -0.001980  -0.000745
  112  C  5  Y   -0.004008  -0.003229   0.001049  -0.001798   0.002570
  113  C  5  Z   -0.000000  -0.000000   0.000000  -0.000000   0.000000
  114  C  5 XX    0.000024   0.000005   0.000026   0.000018  -0.000057
  115  C  5 YY    0.000004   0.000011  -0.000012  -0.000005   0.000081
  116  C  5 ZZ   -0.000029  -0.000016  -0.000014  -0.000013  -0.000024
  117  C  5 XY    0.000025  -0.000012   0.000059   0.000028   0.000000
  118  C  5 XZ   -0.000000  -0.000000   0.000000  -0.000000   0.000000
  119  C  5 YZ   -0.000000  -0.000000   0.000000  -0.000000   0.000000
  120  C  5 XX   -0.000230  -0.000136  -0.000038   0.000036   0.000486
  121  C  5 YY    0.000814   0.000915  -0.000491  -0.000188  -0.000884
  122  C  5 ZZ   -0.000584  -0.000780   0.000529   0.000152   0.000398
  123  C  5 XY   -0.000068   0.000127  -0.000269   0.000008   0.000008
  124  C  5 XZ   -0.000000  -0.000000   0.000000  -0.000000   0.000000
  125  C  5 YZ   -0.000000  -0.000000   0.000000  -0.000000   0.000000
  126  C  5 XX   -0.000138  -0.000463   0.000084  -0.000619   0.000379
  127  C  5 YY    0.000329   0.000685  -0.000305   0.000456  -0.000925
  128  C  5 ZZ   -0.000191  -0.000221   0.000222   0.000163   0.000547
  129  C  5 XY   -0.000788  -0.000131  -0.000289  -0.000297  -0.000447
  130  C  5 XZ   -0.000000  -0.000000   0.000000  -0.000000   0.000000
  131  C  5 YZ   -0.000000  -0.000000   0.000000  -0.000000   0.000000
  132  C  5 XXX  -0.000008   0.000016  -0.000023  -0.000017   0.000002
  133  C  5 YYY  -0.000412  -0.000522   0.000339   0.000129   0.000251
  134  C  5 ZZZ  -0.000000  -0.000000   0.000000  -0.000000   0.000000
  135  C  5 XXY   0.000398   0.000572  -0.000435  -0.000146  -0.000131
  136  C  5 XXZ  -0.000000  -0.000000   0.000000  -0.000000   0.000000
  137  C  5 YYX  -0.000034  -0.000015  -0.000021   0.000044   0.000019
  138  C  5 YYZ  -0.000000  -0.000000   0.000000  -0.000000   0.000000
  139  C  5 ZZX   0.000045  -0.000007   0.000051  -0.000021  -0.000022
  140  C  5 ZZY   0.000155   0.000128  -0.000021  -0.000027  -0.000205
  141  C  5 XYZ  -0.000000  -0.000000   0.000000  -0.000000   0.000000
  142  C  6  S    0.321467  -0.389718  -0.233310   0.076771  -0.029865
  143  C  6  S    0.266121  -0.322623  -0.193160   0.063594  -0.024666
  144  C  6  X   -0.000129   0.000053  -0.000100   0.000068   0.000019
  145  C  6  Y   -0.000374   0.000378   0.000128  -0.000012   0.000328
  146  C  6  Z   -0.000000  -0.000000   0.000000  -0.000000   0.000000
  147  C  6  S    0.003026  -0.003523  -0.001897   0.000490  -0.000402
  148  C  6  X    0.000184   0.000050   0.000242   0.000153  -0.000110
  149  C  6  Y    0.001324  -0.001339  -0.000556   0.000325  -0.001716
  150  C  6  Z   -0.000000  -0.000000   0.000000  -0.000000   0.000000
  151  C  6  S    0.005340  -0.006039  -0.005101   0.003029  -0.009064
  152  C  6  X    0.000121  -0.000577   0.000535  -0.001980   0.000745
  153  C  6  Y    0.004008  -0.003229  -0.001049  -0.001798  -0.002570
  154  C  6  Z   -0.000000  -0.000000   0.000000  -0.000000   0.000000
  155  C  6 XX    0.000024  -0.000005   0.000026  -0.000018  -0.000057
  156  C  6 YY    0.000004  -0.000011  -0.000012   0.000005   0.000081
  157  C  6 ZZ   -0.000029   0.000016  -0.000014   0.000013  -0.000024
  158  C  6 XY    0.000025   0.000012   0.000059  -0.000028   0.000000
  159  C  6 XZ   -0.000000  -0.000000   0.000000  -0.000000   0.000000
  160  C  6 YZ   -0.000000  -0.000000   0.000000  -0.000000   0.000000
  161  C  6 XX   -0.000230   0.000136  -0.000038  -0.000036   0.000486
  162  C  6 YY    0.000814  -0.000915  -0.000491   0.000188  -0.000884
  163  C  6 ZZ   -0.000584   0.000780   0.000529  -0.000152   0.000398
  164  C  6 XY   -0.000068  -0.000127  -0.000269  -0.000008   0.000008
  165  C  6 XZ   -0.000000  -0.000000   0.000000  -0.000000   0.000000
  166  C  6 YZ   -0.000000  -0.000000   0.000000  -0.000000   0.000000
  167  C  6 XX   -0.000138   0.000463   0.000084   0.000619   0.000379
  168  C  6 YY    0.000329  -0.000685  -0.000305  -0.000456  -0.000925
  169  C  6 ZZ   -0.000191   0.000221   0.000222  -0.000163   0.000547
  170  C  6 XY   -0.000788   0.000131  -0.000289   0.000297  -0.000447
  171  C  6 XZ   -0.000000  -0.000000   0.000000  -0.000000   0.000000
  172  C  6 YZ   -0.000000  -0.000000   0.000000  -0.000000   0.000000
  173  C  6 XXX   0.000008   0.000016   0.000023  -0.000017  -0.000002
  174  C  6 YYY   0.000412  -0.000522  -0.000339   0.000129  -0.000251
  175  C  6 ZZZ  -0.000000  -0.000000   0.000000  -0.000000   0.000000
  176  C  6 XXY  -0.000398   0.000572   0.000435  -0.000146   0.000131
  177  C  6 XXZ  -0.000000  -0.000000   0.000000  -0.000000   0.000000
  178  C  6 YYX   0.000034  -0.000015   0.000021   0.000044  -0.000019
  179  C  6 YYZ  -0.000000  -0.000000   0.000000  -0.000000   0.000000
  180  C  6 ZZX  -0.000045  -0.000007  -0.000051  -0.000021   0.000022
  181  C  6 ZZY  -0.000155   0.000128   0.000021  -0.000027   0.000205
  182  C  6 XYZ  -0.000000  -0.000000   0.000000  -0.000000   0.000000
  183  H  7  S    0.000146   0.000168  -0.000091  -0.000017  -0.000043
  184  H  7  S   -0.000422  -0.000289   0.000040   0.000175  -0.000116
  185  H  7  S   -0.000063   0.000043  -0.000105   0.000030  -0.000339
  186  H  7  X   -0.000039  -0.000030   0.000009   0.000029  -0.000029
  187  H  7  Y    0.000009   0.000012  -0.000007  -0.000004   0.000033
  188  H  7  Z   -0.000000  -0.000000   0.000000  -0.000000   0.000000
  189  H  7  X   -0.000094  -0.000101   0.000014   0.000009  -0.000051
  190  H  7  Y    0.000078   0.000076  -0.000059  -0.000063   0.000022
  191  H  7  Z   -0.000000  -0.000000   0.000000  -0.000000   0.000000
  192  H  8  S    0.000146  -0.000168  -0.000091   0.000017  -0.000043
  193  H  8  S   -0.000422   0.000289   0.000040  -0.000175  -0.000116
  194  H  8  S   -0.000063  -0.000043  -0.000105  -0.000030  -0.000339
  195  H  8  X    0.000039  -0.000030  -0.000009   0.000029   0.000029
  196  H  8  Y   -0.000009   0.000012   0.000007  -0.000004  -0.000033
  197  H  8  Z   -0.000000  -0.000000   0.000000  -0.000000   0.000000
  198  H  8  X    0.000094  -0.000101  -0.000014   0.000009   0.000051
  199  H  8  Y   -0.000078   0.000076   0.000059  -0.000063  -0.000022
  200  H  8  Z   -0.000000  -0.000000   0.000000  -0.000000   0.000000
  201  C  9  S    0.023238   0.028829  -0.018450  -0.007167   0.397212
  202  C  9  S    0.019297   0.023927  -0.015301  -0.005947   0.328838
  203  C  9  X    0.000012   0.000007   0.000000  -0.000001  -0.000005
  204  C  9  Y    0.000226   0.000248  -0.000123  -0.000042  -0.000407
  205  C  9  Z   -0.000000  -0.000000   0.000000  -0.000000   0.000000
  206  C  9  S    0.000021   0.000052  -0.000074   0.000021   0.003674
  207  C  9  X   -0.000063  -0.000031  -0.000007   0.000016   0.000036
  208  C  9  Y   -0.001247  -0.001326   0.000623   0.000252   0.001812
  209  C  9  Z   -0.000000  -0.000000   0.000000  -0.000000   0.000000
  210  C  9  S   -0.005480  -0.005755   0.003032  -0.001422   0.007717
  211  C  9  X   -0.000576  -0.000096  -0.000074   0.000140  -0.000011
  212  C  9  Y   -0.003181  -0.003356   0.001752  -0.000363   0.003201
  213  C  9  Z   -0.000000  -0.000000   0.000000  -0.000000   0.000000
  214  C  9 XX   -0.000046  -0.000051   0.000025   0.000012   0.000021
  215  C  9 YY    0.000064   0.000070  -0.000034  -0.000012  -0.000002
  216  C  9 ZZ   -0.000018  -0.000019   0.000009   0.000000  -0.000020
  217  C  9 XY    0.000009   0.000004   0.000003   0.000008  -0.000002
  218  C  9 XZ   -0.000000  -0.000000   0.000000  -0.000000   0.000000
  219  C  9 YZ   -0.000000  -0.000000   0.000000  -0.000000   0.000000
  220  C  9 XX    0.000366   0.000396  -0.000189  -0.000097  -0.000277
  221  C  9 YY   -0.000579  -0.000624   0.000300   0.000124   0.001114
  222  C  9 ZZ    0.000213   0.000228  -0.000112  -0.000028  -0.000837
  223  C  9 XY   -0.000059  -0.000031  -0.000015  -0.000043   0.000051
  224  C  9 XZ   -0.000000  -0.000000   0.000000  -0.000000   0.000000
  225  C  9 YZ   -0.000000  -0.000000   0.000000  -0.000000   0.000000
  226  C  9 XX    0.000478   0.000500  -0.000221  -0.000031  -0.000244
  227  C  9 YY   -0.000679  -0.000742   0.000395  -0.000005   0.000675
  228  C  9 ZZ    0.000201   0.000241  -0.000174   0.000036  -0.000430
  229  C  9 XY   -0.000198  -0.000050  -0.000019  -0.000042   0.000012
  230  C  9 XZ   -0.000000  -0.000000   0.000000  -0.000000   0.000000
  231  C  9 YZ   -0.000000  -0.000000   0.000000  -0.000000   0.000000
  232  C  9 XXX   0.000008  -0.000001   0.000010   0.000011  -0.000040
  233  C  9 YYY  -0.000129  -0.000142   0.000073   0.000032   0.000563
  234  C  9 ZZZ  -0.000000  -0.000000   0.000000  -0.000000   0.000000
  235  C  9 XXY   0.000023   0.000034  -0.000035  -0.000017  -0.000577
  236  C  9 XXZ  -0.000000  -0.000000   0.000000  -0.000000   0.000000
  237  C  9 YYX  -0.000014  -0.000005  -0.000012  -0.000023   0.000059
  238  C  9 YYZ  -0.000000  -0.000000   0.000000  -0.000000   0.000000
  239  C  9 ZZX   0.000003   0.000006  -0.000001   0.000007  -0.000005
  240  C  9 ZZY   0.000150   0.000157  -0.000063  -0.000026  -0.000178
  241  C  9 XYZ  -0.000000  -0.000000   0.000000  -0.000000   0.000000
  242  C 10  S    0.023238  -0.028829  -0.018450   0.007167   0.397212
  243  C 10  S    0.019297  -0.023927  -0.015301   0.005947   0.328838
  244  C 10  X   -0.000012   0.000007  -0.000000  -0.000001   0.000005
  245  C 10  Y   -0.000226   0.000248   0.000123  -0.000042   0.000407
  246  C 10  Z   -0.000000  -0.000000   0.000000  -0.000000   0.000000
  247  C 10  S    0.000021  -0.000052  -0.000074  -0.000021   0.003674
  248  C 10  X    0.000063  -0.000031   0.000007   0.000016  -0.000036
  249  C 10  Y    0.001247  -0.001326  -0.000623   0.000252  -0.001812
  250  C 10  Z   -0.000000  -0.000000   0.000000  -0.000000   0.000000
  251  C 10  S   -0.005480   0.005755   0.003032   0.001422   0.007717
  252  C 10  X    0.000576  -0.000096   0.000074   0.000140   0.000011
  253  C 10  Y    0.003181  -0.003356  -0.001752  -0.000363  -0.003201
  254  C 10  Z   -0.000000  -0.000000   0.000000  -0.000000   0.000000
  255  C 10 XX   -0.000046   0.000051   0.000025  -0.000012   0.000021
  256  C 10 YY    0.000064  -0.000070  -0.000034   0.000012  -0.000002
  257  C 10 ZZ   -0.000018   0.000019   0.000009  -0.000000  -0.000020
  258  C 10 XY    0.000009  -0.000004   0.000003  -0.000008  -0.000002
  259  C 10 XZ   -0.000000  -0.000000   0.000000  -0.000000   0.000000
  260  C 10 YZ   -0.000000  -0.000000   0.000000  -0.000000   0.000000
  261  C 10 XX    0.000366  -0.000396  -0.000189   0.000097  -0.000277
  262  C 10 YY   -0.000579   0.000624   0.000300  -0.000124   0.001114
  263  C 10 ZZ    0.000213  -0.000228  -0.000112   0.000028  -0.000837
  264  C 10 XY   -0.000059   0.000031  -0.000015   0.000043   0.000051
  265  C 10 XZ   -0.000000  -0.000000   0.000000  -0.000000   0.000000
  266  C 10 YZ   -0.000000  -0.000000   0.000000  -0.000000   0.000000
  267  C 10 XX    0.000478  -0.000500  -0.000221   0.000031  -0.000244
  268  C 10 YY   -0.000679   0.000742   0.000395   0.000005   0.000675
  269  C 10 ZZ    0.000201  -0.000241  -0.000174  -0.000036  -0.000430
  270  C 10 XY   -0.000198   0.000050  -0.000019   0.000042   0.000012
  271  C 10 XZ   -0.000000  -0.000000   0.000000  -0.000000   0.000000
  272  C 10 YZ   -0.000000  -0.000000   0.000000  -0.000000   0.000000
  273  C 10 XXX  -0.000008  -0.000001  -0.000010   0.000011   0.000040
  274  C 10 YYY   0.000129  -0.000142  -0.000073   0.000032  -0.000563
  275  C 10 ZZZ  -0.000000  -0.000000   0.000000  -0.000000   0.000000
  276  C 10 XXY  -0.000023   0.000034   0.000035  -0.000017   0.000577
  277  C 10 XXZ  -0.000000  -0.000000   0.000000  -0.000000   0.000000
  278  C 10 YYX   0.000014  -0.000005   0.000012  -0.000023  -0.000059
  279  C 10 YYZ  -0.000000  -0.000000   0.000000  -0.000000   0.000000
  280  C 10 ZZX  -0.000003   0.000006   0.000001   0.000007   0.000005
  281  C 10 ZZY  -0.000150   0.000157   0.000063  -0.000026   0.000178
  282  C 10 XYZ  -0.000000  -0.000000   0.000000  -0.000000   0.000000
  283  H 11  S   -0.000014  -0.000005  -0.000007  -0.000003   0.000176
  284  H 11  S   -0.000367  -0.000393   0.000139   0.000068  -0.000349
  285  H 11  S   -0.000217  -0.000261   0.000151  -0.000047   0.000062
  286  H 11  X    0.000041   0.000042  -0.000013   0.000001   0.000033
  287  H 11  Y   -0.000038  -0.000034   0.000009   0.000007  -0.000008
  288  H 11  Z   -0.000000  -0.000000   0.000000  -0.000000   0.000000
  289  H 11  X    0.000115   0.000115  -0.000050  -0.000036   0.000085
  290  H 11  Y   -0.000069  -0.000085   0.000041   0.000009  -0.000097
  291  H 11  Z   -0.000000  -0.000000   0.000000  -0.000000   0.000000
  292  H 12  S   -0.000014   0.000005  -0.000007   0.000003   0.000176
  293  H 12  S   -0.000367   0.000393   0.000139  -0.000068  -0.000349
  294  H 12  S   -0.000217   0.000261   0.000151   0.000047   0.000062
  295  H 12  X   -0.000041   0.000042   0.000013   0.000001  -0.000033
  296  H 12  Y    0.000038  -0.000034  -0.000009   0.000007   0.000008
  297  H 12  Z   -0.000000  -0.000000   0.000000  -0.000000   0.000000
  298  H 12  X   -0.000115   0.000115   0.000050  -0.000036  -0.000085
  299  H 12  Y    0.000069  -0.000085  -0.000041   0.000009   0.000097
  300  H 12  Z   -0.000000  -0.000000   0.000000  -0.000000   0.000000
  301  H 13  S   -0.000008  -0.000010   0.000004  -0.000012   0.000173
  302  H 13  S   -0.000355  -0.000357   0.000130   0.000249  -0.000353
  303  H 13  S   -0.000287  -0.000256   0.000112   0.000065   0.000033
  304  H 13  X   -0.000043  -0.000043   0.000016   0.000012  -0.000035
  305  H 13  Y   -0.000029  -0.000034   0.000017   0.000010  -0.000009
  306  H 13  Z   -0.000000  -0.000000   0.000000  -0.000000   0.000000
  307  H 13  X   -0.000096  -0.000116   0.000054   0.000054  -0.000087
  308  H 13  Y   -0.000068  -0.000067   0.000025   0.000041  -0.000090
  309  H 13  Z   -0.000000  -0.000000   0.000000  -0.000000   0.000000
  310  H 14  S   -0.000008   0.000010   0.000004   0.000012   0.000173
  311  H 14  S   -0.000355   0.000357   0.000130  -0.000249  -0.000353
  312  H 14  S   -0.000287   0.000256   0.000112  -0.000065   0.000033
  313  H 14  X    0.000043  -0.000043  -0.000016   0.000012   0.000035
  314  H 14  Y    0.000029  -0.000034  -0.000017   0.000010   0.000009
  315  H 14  Z   -0.000000  -0.000000   0.000000  -0.000000   0.000000
  316  H 14  X    0.000096  -0.000116  -0.000054   0.000054   0.000087
  317  H 14  Y    0.000068  -0.000067  -0.000025   0.000041   0.000090
  318  H 14  Z   -0.000000  -0.000000   0.000000  -0.000000   0.000000

                      6          7          8          9         10
                  -11.2188    -1.1123    -1.0608    -0.9898    -0.8439
                     BU         AG         BU         AG         BU  
    1  C  1  S    0.001468  -0.064712  -0.022379  -0.049537   0.041995
    2  C  1  S    0.001223  -0.105897  -0.036863  -0.081639   0.070132
    3  C  1  X   -0.000034  -0.010219  -0.022075   0.010413   0.030743
    4  C  1  Y   -0.000035   0.023194  -0.025207   0.050155   0.044733
    5  C  1  Z    0.000000   0.000000  -0.000000  -0.000000   0.000000
    6  C  1  S    0.000076   0.253519   0.089389   0.194562  -0.172749
    7  C  1  X    0.000237  -0.016527  -0.033193   0.014064   0.047199
    8  C  1  Y    0.000277   0.026323  -0.037543   0.066294   0.067857
    9  C  1  Z    0.000000   0.000000  -0.000000  -0.000000   0.000000
   10  C  1  S    0.004545   0.020158   0.190933   0.268478  -0.286786
   11  C  1  X    0.003043   0.128559   0.066704  -0.094833   0.078620
   12  C  1  Y    0.007688   0.018899   0.181319  -0.009672   0.042069
   13  C  1  Z    0.000000   0.000000  -0.000000  -0.000000   0.000000
   14  C  1 XX    0.000011   0.000005   0.000984  -0.000884  -0.001850
   15  C  1 YY   -0.000005   0.002130  -0.000153   0.002243   0.000626
   16  C  1 ZZ   -0.000006  -0.002135  -0.000830  -0.001359   0.001224
   17  C  1 XY    0.000016   0.000682   0.000758  -0.000723  -0.000441
   18  C  1 XZ    0.000000   0.000000  -0.000000  -0.000000   0.000000
   19  C  1 YZ    0.000000   0.000000  -0.000000  -0.000000   0.000000
   20  C  1 XX   -0.000123   0.002209   0.003801  -0.000551  -0.011229
   21  C  1 YY    0.000087   0.010490   0.001491   0.009929   0.002109
   22  C  1 ZZ    0.000036  -0.012699  -0.005292  -0.009379   0.009119
   23  C  1 XY   -0.000142   0.003541   0.003059  -0.002141  -0.001444
   24  C  1 XZ    0.000000   0.000000  -0.000000  -0.000000   0.000000
   25  C  1 YZ    0.000000   0.000000  -0.000000  -0.000000   0.000000
   26  C  1 XX   -0.001293  -0.041195  -0.028484   0.017042  -0.019923
   27  C  1 YY    0.001253   0.050544   0.037124  -0.003176   0.000479
   28  C  1 ZZ    0.000039  -0.009349  -0.008641  -0.013865   0.019444
   29  C  1 XY   -0.001146   0.060003  -0.007088   0.003917  -0.019205
   30  C  1 XZ    0.000000   0.000000  -0.000000  -0.000000   0.000000
   31  C  1 YZ    0.000000   0.000000  -0.000000  -0.000000   0.000000
   32  C  1 XXX   0.000004  -0.000027   0.000339  -0.000239   0.000445
   33  C  1 YYY   0.000005   0.004764   0.001046   0.005287  -0.002942
   34  C  1 ZZZ   0.000000   0.000000  -0.000000  -0.000000   0.000000
   35  C  1 XXY   0.000047  -0.005736  -0.002000  -0.005750   0.005329
   36  C  1 XXZ   0.000000   0.000000  -0.000000  -0.000000   0.000000
   37  C  1 YYX   0.000040  -0.000170  -0.000884   0.000675   0.000349
   38  C  1 YYZ   0.000000   0.000000  -0.000000  -0.000000   0.000000
   39  C  1 ZZX  -0.000045   0.000206   0.000429  -0.000354  -0.000946
   40  C  1 ZZY  -0.000054  -0.000656   0.000597  -0.001343  -0.001383
   41  C  1 XYZ   0.000000   0.000000  -0.000000  -0.000000   0.000000
   42  C  2  S   -0.001468  -0.064712   0.022379  -0.049537  -0.041995
   43  C  2  S   -0.001223  -0.105897   0.036863  -0.081639  -0.070132
   44  C  2  X   -0.000034   0.010219  -0.022075  -0.010413   0.030743
   45  C  2  Y   -0.000035  -0.023194  -0.025207  -0.050155   0.044733
   46  C  2  Z    0.000000   0.000000  -0.000000  -0.000000   0.000000
   47  C  2  S   -0.000076   0.253519  -0.089389   0.194562   0.172749
   48  C  2  X    0.000237   0.016527  -0.033193  -0.014064   0.047199
   49  C  2  Y    0.000277  -0.026323  -0.037543  -0.066294   0.067857
   50  C  2  Z    0.000000   0.000000  -0.000000  -0.000000   0.000000
   51  C  2  S   -0.004545   0.020158  -0.190933   0.268478   0.286786
   52  C  2  X    0.003043  -0.128559   0.066704   0.094833   0.078620
   53  C  2  Y    0.007688  -0.018899   0.181319   0.009672   0.042069
   54  C  2  Z    0.000000   0.000000  -0.000000  -0.000000   0.000000
   55  C  2 XX   -0.000011   0.000005  -0.000984  -0.000884   0.001850
   56  C  2 YY    0.000005   0.002130   0.000153   0.002243  -0.000626
   57  C  2 ZZ    0.000006  -0.002135   0.000830  -0.001359  -0.001224
   58  C  2 XY   -0.000016   0.000682  -0.000758  -0.000723   0.000441
   59  C  2 XZ    0.000000   0.000000  -0.000000  -0.000000   0.000000
   60  C  2 YZ    0.000000   0.000000  -0.000000  -0.000000   0.000000
   61  C  2 XX    0.000123   0.002209  -0.003801  -0.000551   0.011229
   62  C  2 YY   -0.000087   0.010490  -0.001491   0.009929  -0.002109
   63  C  2 ZZ   -0.000036  -0.012699   0.005292  -0.009379  -0.009119
   64  C  2 XY    0.000142   0.003541  -0.003059  -0.002141   0.001444
   65  C  2 XZ    0.000000   0.000000  -0.000000  -0.000000   0.000000
   66  C  2 YZ    0.000000   0.000000  -0.000000  -0.000000   0.000000
   67  C  2 XX    0.001293  -0.041195   0.028484   0.017042   0.019923
   68  C  2 YY   -0.001253   0.050544  -0.037124  -0.003176  -0.000479
   69  C  2 ZZ   -0.000039  -0.009349   0.008641  -0.013865  -0.019444
   70  C  2 XY    0.001146   0.060003   0.007088   0.003917   0.019205
   71  C  2 XZ    0.000000   0.000000  -0.000000  -0.000000   0.000000
   72  C  2 YZ    0.000000   0.000000  -0.000000  -0.000000   0.000000
   73  C  2 XXX   0.000004   0.000027   0.000339   0.000239   0.000445
   74  C  2 YYY   0.000005  -0.004764   0.001046  -0.005287  -0.002942
   75  C  2 ZZZ   0.000000   0.000000  -0.000000  -0.000000   0.000000
   76  C  2 XXY   0.000047   0.005736  -0.002000   0.005750   0.005329
   77  C  2 XXZ   0.000000   0.000000  -0.000000  -0.000000   0.000000
   78  C  2 YYX   0.000040   0.000170  -0.000884  -0.000675   0.000349
   79  C  2 YYZ   0.000000   0.000000  -0.000000  -0.000000   0.000000
   80  C  2 ZZX  -0.000045  -0.000206   0.000429   0.000354  -0.000946
   81  C  2 ZZY  -0.000054   0.000656   0.000597   0.001343  -0.001383
   82  C  2 XYZ   0.000000   0.000000  -0.000000  -0.000000   0.000000
   83  H  3  S   -0.000002   0.035142   0.013515   0.029210  -0.035382
   84  H  3  S   -0.000062   0.047383   0.014929   0.030234  -0.039654
   85  H  3  S   -0.000058   0.012570   0.008542   0.013248  -0.014676
   86  H  3  X    0.000008  -0.002552  -0.001464  -0.001049   0.002533
   87  H  3  Y    0.000001   0.001759  -0.000139   0.001846  -0.000222
   88  H  3  Z    0.000000   0.000000  -0.000000  -0.000000   0.000000
   89  H  3  X    0.000049  -0.001254  -0.001288  -0.002126   0.003784
   90  H  3  Y    0.000036   0.001610  -0.000483   0.002030   0.000499
   91  H  3  Z    0.000000   0.000000  -0.000000  -0.000000   0.000000
   92  H  4  S    0.000002   0.035142  -0.013515   0.029210   0.035382
   93  H  4  S    0.000062   0.047383  -0.014929   0.030234   0.039654
   94  H  4  S    0.000058   0.012570  -0.008542   0.013248   0.014676
   95  H  4  X    0.000008   0.002552  -0.001464   0.001049   0.002533
   96  H  4  Y    0.000001  -0.001759  -0.000139  -0.001846  -0.000222
   97  H  4  Z    0.000000   0.000000  -0.000000  -0.000000   0.000000
   98  H  4  X    0.000049   0.001254  -0.001288   0.002126   0.003784
   99  H  4  Y    0.000036  -0.001610  -0.000483  -0.002030   0.000499
  100  H  4  Z    0.000000   0.000000  -0.000000  -0.000000   0.000000
  101  C  5  S   -0.029891  -0.049241  -0.061901   0.031473   0.027314
  102  C  5  S   -0.024690  -0.080693  -0.101694   0.051828   0.045667
  103  C  5  X   -0.000030   0.016442   0.006973   0.019552  -0.034217
  104  C  5  Y   -0.000340  -0.002295  -0.027720   0.056201  -0.064370
  105  C  5  Z    0.000000   0.000000  -0.000000  -0.000000   0.000000
  106  C  5  S   -0.000467   0.194673   0.244937  -0.122026  -0.113675
  107  C  5  X    0.000181   0.025012   0.010887   0.027570  -0.051817
  108  C  5  Y    0.001801   0.000250  -0.035159   0.077502  -0.095229
  109  C  5  Z    0.000000   0.000000  -0.000000  -0.000000   0.000000
  110  C  5  S   -0.003253   0.141785   0.202216  -0.114599  -0.226586
  111  C  5  X    0.003086   0.009401   0.073869  -0.053876   0.036223
  112  C  5  Y    0.006353   0.076736   0.067882  -0.086275   0.141989
  113  C  5  Z    0.000000   0.000000  -0.000000  -0.000000   0.000000
  114  C  5 XX   -0.000059   0.000525  -0.000103   0.001271  -0.002243
  115  C  5 YY    0.000079   0.001214   0.002091  -0.002055   0.001370
  116  C  5 ZZ   -0.000020  -0.001739  -0.001988   0.000783   0.000873
  117  C  5 XY   -0.000004   0.000825   0.000246   0.000881  -0.000867
  118  C  5 XZ    0.000000   0.000000  -0.000000  -0.000000   0.000000
  119  C  5 YZ    0.000000   0.000000  -0.000000  -0.000000   0.000000
  120  C  5 XX    0.000508   0.001996   0.001579   0.003062  -0.011677
  121  C  5 YY   -0.000874   0.007921   0.010365  -0.008632   0.004946
  122  C  5 ZZ    0.000366  -0.009918  -0.011944   0.005570   0.006731
  123  C  5 XY    0.000047   0.003704   0.001765   0.003543  -0.004831
  124  C  5 XZ    0.000000   0.000000  -0.000000  -0.000000   0.000000
  125  C  5 YZ    0.000000   0.000000  -0.000000  -0.000000   0.000000
  126  C  5 XX    0.001325  -0.011357   0.007165  -0.006331   0.020348
  127  C  5 YY   -0.001708   0.020952   0.005846  -0.004552  -0.032119
  128  C  5 ZZ    0.000383  -0.009595  -0.013010   0.010883   0.011771
  129  C  5 XY    0.000270   0.049740   0.027435  -0.023079   0.010405
  130  C  5 XZ    0.000000   0.000000  -0.000000  -0.000000   0.000000
  131  C  5 YZ    0.000000   0.000000  -0.000000  -0.000000   0.000000
  132  C  5 XXX  -0.000001  -0.000106   0.000173  -0.000249  -0.000714
  133  C  5 YYY   0.000242  -0.003046  -0.004995   0.004022   0.001097
  134  C  5 ZZZ   0.000000   0.000000  -0.000000  -0.000000   0.000000
  135  C  5 XXY  -0.000118   0.004139   0.006245  -0.004035  -0.003135
  136  C  5 XXZ   0.000000   0.000000  -0.000000  -0.000000   0.000000
  137  C  5 YYX   0.000023   0.000532   0.000018   0.000832   0.000065
  138  C  5 YYZ   0.000000   0.000000  -0.000000  -0.000000   0.000000
  139  C  5 ZZX  -0.000022  -0.000390  -0.000251  -0.000499   0.000893
  140  C  5 ZZY  -0.000207  -0.000052   0.000456  -0.001361   0.001663
  141  C  5 XYZ   0.000000   0.000000  -0.000000  -0.000000   0.000000
  142  C  6  S    0.029891  -0.049241   0.061901   0.031473  -0.027314
  143  C  6  S    0.024690  -0.080693   0.101694   0.051828  -0.045667
  144  C  6  X   -0.000030  -0.016442   0.006973  -0.019552  -0.034217
  145  C  6  Y   -0.000340   0.002295  -0.027720  -0.056201  -0.064370
  146  C  6  Z    0.000000   0.000000  -0.000000  -0.000000   0.000000
  147  C  6  S    0.000467   0.194673  -0.244937  -0.122026   0.113675
  148  C  6  X    0.000181  -0.025012   0.010887  -0.027570  -0.051817
  149  C  6  Y    0.001801  -0.000250  -0.035159  -0.077502  -0.095229
  150  C  6  Z    0.000000   0.000000  -0.000000  -0.000000   0.000000
  151  C  6  S    0.003253   0.141785  -0.202216  -0.114599   0.226586
  152  C  6  X    0.003086  -0.009401   0.073869   0.053876   0.036223
  153  C  6  Y    0.006353  -0.076736   0.067882   0.086275   0.141989
  154  C  6  Z    0.000000   0.000000  -0.000000  -0.000000   0.000000
  155  C  6 XX    0.000059   0.000525   0.000103   0.001271   0.002243
  156  C  6 YY   -0.000079   0.001214  -0.002091  -0.002055  -0.001370
  157  C  6 ZZ    0.000020  -0.001739   0.001988   0.000783  -0.000873
  158  C  6 XY    0.000004   0.000825  -0.000246   0.000881   0.000867
  159  C  6 XZ    0.000000   0.000000  -0.000000  -0.000000   0.000000
  160  C  6 YZ    0.000000   0.000000  -0.000000  -0.000000   0.000000
  161  C  6 XX   -0.000508   0.001996  -0.001579   0.003062   0.011677
  162  C  6 YY    0.000874   0.007921  -0.010365  -0.008632  -0.004946
  163  C  6 ZZ   -0.000366  -0.009918   0.011944   0.005570  -0.006731
  164  C  6 XY   -0.000047   0.003704  -0.001765   0.003543   0.004831
  165  C  6 XZ    0.000000   0.000000  -0.000000  -0.000000   0.000000
  166  C  6 YZ    0.000000   0.000000  -0.000000  -0.000000   0.000000
  167  C  6 XX   -0.001325  -0.011357  -0.007165  -0.006331  -0.020348
  168  C  6 YY    0.001708   0.020952  -0.005846  -0.004552   0.032119
  169  C  6 ZZ   -0.000383  -0.009595   0.013010   0.010883  -0.011771
  170  C  6 XY   -0.000270   0.049740  -0.027435  -0.023079  -0.010405
  171  C  6 XZ    0.000000   0.000000  -0.000000  -0.000000   0.000000
  172  C  6 YZ    0.000000   0.000000  -0.000000  -0.000000   0.000000
  173  C  6 XXX  -0.000001   0.000106   0.000173   0.000249  -0.000714
  174  C  6 YYY   0.000242   0.003046  -0.004995  -0.004022   0.001097
  175  C  6 ZZZ   0.000000   0.000000  -0.000000  -0.000000   0.000000
  176  C  6 XXY  -0.000118  -0.004139   0.006245   0.004035  -0.003135
  177  C  6 XXZ   0.000000   0.000000  -0.000000  -0.000000   0.000000
  178  C  6 YYX   0.000023  -0.000532   0.000018  -0.000832   0.000065
  179  C  6 YYZ   0.000000   0.000000  -0.000000  -0.000000   0.000000
  180  C  6 ZZX  -0.000022   0.000390  -0.000251   0.000499   0.000893
  181  C  6 ZZY  -0.000207   0.000052   0.000456   0.001361   0.001663
  182  C  6 XYZ   0.000000   0.000000  -0.000000  -0.000000   0.000000
  183  H  7  S   -0.000042   0.027047   0.034762  -0.017425  -0.027076
  184  H  7  S   -0.000181   0.036596   0.041500  -0.017781  -0.033014
  185  H  7  S   -0.000260   0.011574   0.014438  -0.007092  -0.012506
  186  H  7  X   -0.000030   0.002308   0.002182  -0.000243  -0.002494
  187  H  7  Y    0.000026  -0.001073  -0.001612   0.001576  -0.000204
  188  H  7  Z    0.000000   0.000000  -0.000000  -0.000000   0.000000
  189  H  7  X   -0.000056   0.001469   0.002045   0.000564  -0.003306
  190  H  7  Y    0.000100  -0.000996  -0.003216   0.002577  -0.000331
  191  H  7  Z    0.000000   0.000000  -0.000000  -0.000000   0.000000
  192  H  8  S    0.000042   0.027047  -0.034762  -0.017425   0.027076
  193  H  8  S    0.000181   0.036596  -0.041500  -0.017781   0.033014
  194  H  8  S    0.000260   0.011574  -0.014438  -0.007092   0.012506
  195  H  8  X   -0.000030  -0.002308   0.002182   0.000243  -0.002494
  196  H  8  Y    0.000026   0.001073  -0.001612  -0.001576  -0.000204
  197  H  8  Z    0.000000   0.000000  -0.000000  -0.000000   0.000000
  198  H  8  X   -0.000056  -0.001469   0.002045  -0.000564  -0.003306
  199  H  8  Y    0.000100   0.000996  -0.003216  -0.002577  -0.000331
  200  H  8  Z    0.000000   0.000000  -0.000000  -0.000000   0.000000
  201  C  9  S    0.397209  -0.029920  -0.053258   0.056610  -0.050269
  202  C  9  S    0.328835  -0.048929  -0.087392   0.093374  -0.083935
  203  C  9  X   -0.000006   0.003044   0.002593   0.002338  -0.010500
  204  C  9  Y   -0.000410   0.023500   0.035987  -0.026337  -0.021634
  205  C  9  Z    0.000000   0.000000  -0.000000  -0.000000   0.000000
  206  C  9  S    0.003698   0.118929   0.210778  -0.225896   0.206030
  207  C  9  X    0.000043   0.005869   0.003690   0.003728  -0.016434
  208  C  9  Y    0.001826   0.030920   0.045708  -0.031507  -0.034983
  209  C  9  Z    0.000000   0.000000  -0.000000  -0.000000   0.000000
  210  C  9  S    0.010320   0.066098   0.164125  -0.227372   0.415332
  211  C  9  X   -0.000127   0.029651   0.008660  -0.007095   0.000855
  212  C  9  Y    0.004328   0.028515   0.062344  -0.078622   0.126327
  213  C  9  Z    0.000000   0.000000  -0.000000  -0.000000   0.000000
  214  C  9 XX    0.000022  -0.000282  -0.000402   0.000095   0.001196
  215  C  9 YY   -0.000002   0.001375   0.002206  -0.001979   0.000455
  216  C  9 ZZ   -0.000020  -0.001093  -0.001804   0.001884  -0.001651
  217  C  9 XY   -0.000002   0.000095   0.000115   0.000082  -0.000095
  218  C  9 XZ    0.000000   0.000000  -0.000000  -0.000000   0.000000
  219  C  9 YZ    0.000000   0.000000  -0.000000  -0.000000   0.000000
  220  C  9 XX   -0.000279  -0.001200  -0.000686  -0.001225   0.007438
  221  C  9 YY    0.001112   0.005793   0.010167  -0.009299   0.002920
  222  C  9 ZZ   -0.000833  -0.004593  -0.009481   0.010525  -0.010358
  223  C  9 XY    0.000054   0.001578   0.000994  -0.000049  -0.001659
  224  C  9 XZ    0.000000   0.000000  -0.000000  -0.000000   0.000000
  225  C  9 YZ    0.000000   0.000000  -0.000000  -0.000000   0.000000
  226  C  9 XX   -0.000428  -0.010353  -0.013082   0.012273  -0.014102
  227  C  9 YY    0.000826   0.008216   0.016250  -0.018927   0.030789
  228  C  9 ZZ   -0.000398   0.002137  -0.003168   0.006654  -0.016687
  229  C  9 XY   -0.000040   0.010294   0.005219  -0.005747   0.003338
  230  C  9 XZ    0.000000   0.000000  -0.000000  -0.000000   0.000000
  231  C  9 YZ    0.000000   0.000000  -0.000000  -0.000000   0.000000
  232  C  9 XXX  -0.000043  -0.000181  -0.000337   0.000224   0.000092
  233  C  9 YYY   0.000564   0.002007   0.004146  -0.004565   0.003479
  234  C  9 ZZZ   0.000000   0.000000  -0.000000  -0.000000   0.000000
  235  C  9 XXY  -0.000580  -0.002148  -0.004492   0.005269  -0.005342
  236  C  9 XXZ   0.000000   0.000000  -0.000000  -0.000000   0.000000
  237  C  9 YYX   0.000061   0.000298   0.000612  -0.000273  -0.000527
  238  C  9 YYZ   0.000000   0.000000  -0.000000  -0.000000   0.000000
  239  C  9 ZZX  -0.000004  -0.000055  -0.000159  -0.000028   0.000403
  240  C  9 ZZY  -0.000177  -0.000545  -0.001071   0.000855   0.000675
  241  C  9 XYZ   0.000000   0.000000  -0.000000  -0.000000   0.000000
  242  C 10  S   -0.397209  -0.029920   0.053258   0.056610   0.050269
  243  C 10  S   -0.328835  -0.048929   0.087392   0.093374   0.083935
  244  C 10  X   -0.000006  -0.003044   0.002593  -0.002338  -0.010500
  245  C 10  Y   -0.000410  -0.023500   0.035987   0.026337  -0.021634
  246  C 10  Z    0.000000   0.000000  -0.000000  -0.000000   0.000000
  247  C 10  S   -0.003698   0.118929  -0.210778  -0.225896  -0.206030
  248  C 10  X    0.000043  -0.005869   0.003690  -0.003728  -0.016434
  249  C 10  Y    0.001826  -0.030920   0.045708   0.031507  -0.034983
  250  C 10  Z    0.000000   0.000000  -0.000000  -0.000000   0.000000
  251  C 10  S   -0.010320   0.066098  -0.164125  -0.227372  -0.415332
  252  C 10  X   -0.000127  -0.029651   0.008660   0.007095   0.000855
  253  C 10  Y    0.004328  -0.028515   0.062344   0.078622   0.126327
  254  C 10  Z    0.000000   0.000000  -0.000000  -0.000000   0.000000
  255  C 10 XX   -0.000022  -0.000282   0.000402   0.000095  -0.001196
  256  C 10 YY    0.000002   0.001375  -0.002206  -0.001979  -0.000455
  257  C 10 ZZ    0.000020  -0.001093   0.001804   0.001884   0.001651
  258  C 10 XY    0.000002   0.000095  -0.000115   0.000082   0.000095
  259  C 10 XZ    0.000000   0.000000  -0.000000  -0.000000   0.000000
  260  C 10 YZ    0.000000   0.000000  -0.000000  -0.000000   0.000000
  261  C 10 XX    0.000279  -0.001200   0.000686  -0.001225  -0.007438
  262  C 10 YY   -0.001112   0.005793  -0.010167  -0.009299  -0.002920
  263  C 10 ZZ    0.000833  -0.004593   0.009481   0.010525   0.010358
  264  C 10 XY   -0.000054   0.001578  -0.000994  -0.000049   0.001659
  265  C 10 XZ    0.000000   0.000000  -0.000000  -0.000000   0.000000
  266  C 10 YZ    0.000000   0.000000  -0.000000  -0.000000   0.000000
  267  C 10 XX    0.000428  -0.010353   0.013082   0.012273   0.014102
  268  C 10 YY   -0.000826   0.008216  -0.016250  -0.018927  -0.030789
  269  C 10 ZZ    0.000398   0.002137   0.003168   0.006654   0.016687
  270  C 10 XY    0.000040   0.010294  -0.005219  -0.005747  -0.003338
  271  C 10 XZ    0.000000   0.000000  -0.000000  -0.000000   0.000000
  272  C 10 YZ    0.000000   0.000000  -0.000000  -0.000000   0.000000
  273  C 10 XXX  -0.000043   0.000181  -0.000337  -0.000224   0.000092
  274  C 10 YYY   0.000564  -0.002007   0.004146   0.004565   0.003479
  275  C 10 ZZZ   0.000000   0.000000  -0.000000  -0.000000   0.000000
  276  C 10 XXY  -0.000580   0.002148  -0.004492  -0.005269  -0.005342
  277  C 10 XXZ   0.000000   0.000000  -0.000000  -0.000000   0.000000
  278  C 10 YYX   0.000061  -0.000298   0.000612   0.000273  -0.000527
  279  C 10 YYZ   0.000000   0.000000  -0.000000  -0.000000   0.000000
  280  C 10 ZZX  -0.000004   0.000055  -0.000159   0.000028   0.000403
  281  C 10 ZZY  -0.000177   0.000545  -0.001071  -0.000855   0.000675
  282  C 10 XYZ   0.000000   0.000000  -0.000000  -0.000000   0.000000
  283  H 11  S    0.000173   0.015931   0.030220  -0.035574   0.048144
  284  H 11  S   -0.000288   0.025030   0.040302  -0.046286   0.060327
  285  H 11  S    0.000139   0.002418   0.009035  -0.012551   0.019107
  286  H 11  X    0.000032  -0.000974  -0.001732   0.002153  -0.003388
  287  H 11  Y   -0.000005   0.001302   0.001971  -0.001798   0.001279
[...]
  225  C  9 YZ    0.000158  -0.000000  -0.000000   0.000000  -0.018010
  226  C  9 XX    0.000381  -0.015000  -0.012998  -0.002631  -0.012878
  227  C  9 YY   -0.002329   0.027822   0.026564   0.004075   0.016377
  228  C  9 ZZ    0.001948  -0.012822  -0.013566  -0.001444  -0.003499
  229  C  9 XY    0.002642   0.022102  -0.007865   0.002823   0.002816
  230  C  9 XZ    0.000423  -0.000000  -0.000000   0.000000  -0.000970
  231  C  9 YZ    0.000861  -0.000000  -0.000000   0.000000  -0.007569
  232  C  9 XXX   0.000060  -0.002919   0.002370   0.000045  -0.000201
  233  C  9 YYY  -0.000062   0.001595   0.001267   0.000023   0.006154
  234  C  9 ZZZ   0.000142   0.000000   0.000000   0.000000   0.004576
  235  C  9 XXY   0.000046  -0.004609  -0.004539  -0.000092  -0.005034
  236  C  9 XXZ  -0.000186  -0.000000  -0.000000  -0.000000  -0.001569
  237  C  9 YYX  -0.000117   0.000204   0.000439  -0.000058   0.000353
  238  C  9 YYZ  -0.000005  -0.000000  -0.000000   0.000000  -0.004570
  239  C  9 ZZX   0.000036   0.003712  -0.003619  -0.000002  -0.000083
  240  C  9 ZZY   0.000037   0.002469   0.002839   0.000061  -0.003222
  241  C  9 XYZ   0.000049  -0.000000  -0.000000   0.000000  -0.000146
  242  C 10  S   -0.048805   0.000195  -0.000077  -0.007598  -0.000177
  243  C 10  S   -0.080109   0.000339  -0.000149  -0.013493  -0.000289
  244  C 10  X   -0.003812   0.000006  -0.000019  -0.004751   0.000096
  245  C 10  Y   -0.110454   0.000503  -0.000120  -0.017409  -0.000497
  246  C 10  Z   -0.117141  -0.000000   0.000000  -0.000000  -0.006661
  247  C 10  S    0.194068  -0.001256   0.000886   0.037369   0.001177
  248  C 10  X   -0.005394  -0.000200  -0.000227  -0.006780  -0.000201
  249  C 10  Y   -0.154837   0.000576  -0.000316  -0.026652  -0.000211
  250  C 10  Z   -0.189361  -0.000000   0.000000  -0.000000  -0.009951
  251  C 10  S    0.097282   0.004116  -0.054856   0.229957  -0.014498
  252  C 10  X   -0.004479  -0.001825  -0.003247   0.048783  -0.007452
  253  C 10  Y   -0.103513  -0.001743   0.023167  -0.118156   0.006514
  254  C 10  Z   -0.191652  -0.000000   0.000000  -0.000000  -0.016236
  255  C 10 XX   -0.002507   0.000002   0.000017  -0.000269   0.000004
  256  C 10 YY    0.004006  -0.000010   0.000005   0.000340   0.000016
  257  C 10 ZZ   -0.001499   0.000008  -0.000022  -0.000072  -0.000021
  258  C 10 XY    0.000263   0.000021  -0.000015   0.002058  -0.000056
  259  C 10 XZ    0.000035  -0.000000  -0.000000  -0.000000  -0.000031
  260  C 10 YZ    0.002285  -0.000000  -0.000000   0.000000  -0.000027
  261  C 10 XX   -0.008626   0.000036  -0.000226   0.001214   0.000003
  262  C 10 YY    0.016063   0.000079   0.000027  -0.000035  -0.000288
  263  C 10 ZZ   -0.007437  -0.000115   0.000199  -0.001180   0.000285
  264  C 10 XY    0.001077   0.000265   0.000054   0.013940  -0.000108
  265  C 10 XZ    0.000792  -0.000000  -0.000000  -0.000000  -0.000163
  266  C 10 YZ    0.018010  -0.000000  -0.000000   0.000000  -0.000158
  267  C 10 XX   -0.012878   0.000431   0.001584  -0.011286   0.000381
  268  C 10 YY    0.016377   0.000349  -0.002836   0.020483  -0.002329
  269  C 10 ZZ   -0.003499  -0.000780   0.001251  -0.009197   0.001948
  270  C 10 XY    0.002816   0.000585   0.000726  -0.010167   0.002642
  271  C 10 XZ    0.000970  -0.000000  -0.000000  -0.000000  -0.000423
  272  C 10 YZ    0.007569  -0.000000  -0.000000  -0.000000  -0.000861
  273  C 10 XXX   0.000201   0.000043  -0.000029   0.002188  -0.000060
  274  C 10 YYY  -0.006153  -0.000002   0.000048  -0.001287   0.000062
  275  C 10 ZZZ   0.004576   0.000000  -0.000000   0.000000   0.000142
  276  C 10 XXY   0.005034   0.000008  -0.000111   0.000977  -0.000046
  277  C 10 XXZ  -0.001569  -0.000000   0.000000  -0.000000  -0.000186
  278  C 10 YYX  -0.000353  -0.000051   0.000045  -0.003307   0.000117
  279  C 10 YYZ  -0.004570  -0.000000   0.000000  -0.000000  -0.000005
  280  C 10 ZZX   0.000083  -0.000006  -0.000006   0.000372  -0.000036
  281  C 10 ZZY   0.003222  -0.000005   0.000046   0.000750  -0.000037
  282  C 10 XYZ  -0.000146   0.000000   0.000000   0.000000   0.000049
  283  H 11  S    0.000122  -0.013874   0.191738   0.000176  -0.007166
  284  H 11  S    0.001615  -0.034556   0.282438   0.000218  -0.016642
  285  H 11  S    0.000384  -0.024975   0.101606   0.002590  -0.011073
  286  H 11  X    0.000012  -0.002335  -0.011160  -0.000013   0.001448
  287  H 11  Y    0.000030  -0.002539   0.007112  -0.000021   0.001477
  288  H 11  Z   -0.000233  -0.000000  -0.000000  -0.000000  -0.003704
  289  H 11  X   -0.000443  -0.003644  -0.013971   0.000283   0.001344
  290  H 11  Y    0.000068  -0.005847   0.009366  -0.000188   0.002762
  291  H 11  Z   -0.000500  -0.000000  -0.000000  -0.000000  -0.007135
  292  H 12  S   -0.007166  -0.000086   0.000002  -0.009841   0.000122
  293  H 12  S   -0.016642  -0.001001   0.001047  -0.024684   0.001615
  294  H 12  S   -0.011073   0.000016  -0.002436  -0.020617   0.000384
  295  H 12  X   -0.001448  -0.000023   0.000059  -0.000010  -0.000012
  296  H 12  Y   -0.001477   0.000004  -0.000010  -0.000819  -0.000030
  297  H 12  Z   -0.003704  -0.000000   0.000000  -0.000000  -0.000233
  298  H 12  X   -0.001344   0.000058   0.000264  -0.002459   0.000443
  299  H 12  Y   -0.002762   0.000121  -0.000308  -0.001895  -0.000068
  300  H 12  Z   -0.007135  -0.000000   0.000000  -0.000000  -0.000500
  301  H 13  S   -0.000317   0.191795  -0.013837  -0.000096  -0.007038
  302  H 13  S    0.000403   0.280521  -0.036511  -0.001504  -0.017754
  303  H 13  S   -0.000476   0.101285  -0.025852   0.001294  -0.010666
  304  H 13  X    0.000002   0.011614   0.002164  -0.000016  -0.001399
  305  H 13  Y    0.000031   0.006391  -0.002732  -0.000008   0.001533
  306  H 13  Z   -0.000280  -0.000000  -0.000000  -0.000000  -0.003720
  307  H 13  X    0.000091   0.013376   0.003338  -0.000572  -0.001656
  308  H 13  Y    0.000269   0.008155  -0.005438  -0.000189   0.003034
  309  H 13  Z   -0.000493  -0.000000  -0.000000  -0.000000  -0.007303
  310  H 14  S   -0.007038   0.000246  -0.000091   0.008238  -0.000317
  311  H 14  S   -0.017754   0.000137   0.001329   0.011909   0.000403
  312  H 14  S   -0.010666   0.001187  -0.000973   0.017453  -0.000476
  313  H 14  X    0.001399   0.000006  -0.000056   0.000250  -0.000002
  314  H 14  Y   -0.001533   0.000032  -0.000006   0.000289  -0.000031
  315  H 14  Z   -0.003720  -0.000000   0.000000  -0.000000  -0.000280
  316  H 14  X    0.001656   0.000017  -0.000203   0.001362  -0.000091
  317  H 14  Y   -0.003034   0.000097  -0.000440   0.001080  -0.000269
  318  H 14  Z   -0.007303  -0.000000   0.000000  -0.000000  -0.000493

                     21         22

    1  C  1  S   -0.001676  -0.048393
    2  C  1  S   -0.002945  -0.079503
    3  C  1  X    0.000569   0.001785
    4  C  1  Y    0.003835   0.111620
    5  C  1  Z   -0.017939   0.115432
    6  C  1  S    0.009823   0.190078
    7  C  1  X    0.000815   0.001052
    8  C  1  Y    0.004818   0.157470
    9  C  1  Z   -0.028908   0.191904
   10  C  1  S   -0.092117   0.166862
   11  C  1  X    0.053764  -0.044458
   12  C  1  Y   -0.024509   0.060093
   13  C  1  Z   -0.026287   0.168334
   14  C  1 XX   -0.000089  -0.002520
   15  C  1 YY    0.000126   0.003908
   16  C  1 ZZ   -0.000037  -0.001388
   17  C  1 XY   -0.000119   0.000114
   18  C  1 XZ    0.000094   0.000013
   19  C  1 YZ    0.000087   0.002323
   20  C  1 XX    0.000084  -0.008771
   21  C  1 YY   -0.000688   0.016980
   22  C  1 ZZ    0.000604  -0.008210
   23  C  1 XY   -0.002546   0.000960
   24  C  1 XZ    0.001006  -0.001526
   25  C  1 YZ    0.000806   0.017006
   26  C  1 XX   -0.009239  -0.006553
   27  C  1 YY    0.006647   0.016676
   28  C  1 ZZ    0.002592  -0.010123
   29  C  1 XY    0.014034   0.006929
   30  C  1 XZ   -0.001163   0.010072
   31  C  1 YZ    0.006752   0.016352
   32  C  1 XXX   0.000522   0.000507
   33  C  1 YYY   0.000025   0.006279
   34  C  1 ZZZ   0.000163  -0.004317
   35  C  1 XXY  -0.000137  -0.005329
   36  C  1 XXZ  -0.000401   0.001283
   37  C  1 YYX  -0.000872  -0.000626
   38  C  1 YYZ   0.000182   0.004509
   39  C  1 ZZX   0.000172  -0.000054
   40  C  1 ZZY   0.000103  -0.003096
   41  C  1 XYZ   0.000324  -0.000182
   42  C  2  S    0.002243  -0.048393
   43  C  2  S    0.004209  -0.079503
   44  C  2  X   -0.006626  -0.001785
   45  C  2  Y   -0.003640  -0.111620
   46  C  2  Z    0.013699   0.115432
   47  C  2  S   -0.010633   0.190078
   48  C  2  X   -0.012223  -0.001052
   49  C  2  Y   -0.007006  -0.157470
   50  C  2  Z    0.024259   0.191904
   51  C  2  S   -0.072686   0.166862
   52  C  2  X   -0.099371   0.044458
   53  C  2  Y   -0.075049  -0.060093
   54  C  2  Z   -0.002904   0.168334
   55  C  2 XX   -0.000407  -0.002520
   56  C  2 YY    0.000546   0.003908
   57  C  2 ZZ   -0.000139  -0.001388
   58  C  2 XY    0.000533   0.000114
   59  C  2 XZ    0.000988  -0.000013
   60  C  2 YZ    0.001131  -0.002323
   61  C  2 XX   -0.006083  -0.008771
   62  C  2 YY    0.005655   0.016980
   63  C  2 ZZ    0.000429  -0.008210
   64  C  2 XY    0.001157   0.000960
   65  C  2 XZ    0.008678   0.001526
   66  C  2 YZ    0.008971  -0.017006
   67  C  2 XX   -0.029007  -0.006553
   68  C  2 YY    0.024466   0.016676
   69  C  2 ZZ    0.004541  -0.010123
   70  C  2 XY    0.013586   0.006929
   71  C  2 XZ    0.008063  -0.010072
   72  C  2 YZ    0.019459  -0.016352
   73  C  2 XXX  -0.001815  -0.000507
   74  C  2 YYY   0.000983  -0.006279
   75  C  2 ZZZ  -0.001572  -0.004317
   76  C  2 XXY  -0.001543   0.005329
   77  C  2 XXZ   0.001827   0.001283
   78  C  2 YYX   0.002042   0.000626
   79  C  2 YYZ   0.000282   0.004509
   80  C  2 ZZX   0.000393   0.000054
   81  C  2 ZZY   0.000224   0.003096
   82  C  2 XYZ   0.001744  -0.000182
   83  H  3  S    0.001196  -0.007031
   84  H  3  S    0.003633  -0.022534
   85  H  3  S   -0.003016  -0.009855
   86  H  3  X   -0.000015   0.001255
   87  H  3  Y   -0.000029   0.001411
   88  H  3  Z   -0.000636   0.003528
   89  H  3  X    0.000288   0.002677
   90  H  3  Y   -0.000023   0.003357
   91  H  3  Z   -0.001089   0.006962
   92  H  4  S   -0.003257  -0.007031
   93  H  4  S   -0.000069  -0.022534
   94  H  4  S   -0.002172  -0.009855
   95  H  4  X    0.000435  -0.001255
   96  H  4  Y   -0.000151  -0.001411
   97  H  4  Z    0.000496   0.003528
   98  H  4  X   -0.001519  -0.002677
   99  H  4  Y   -0.000058  -0.003357
  100  H  4  Z   -0.000245   0.006962
  101  C  5  S    0.000589   0.002221
  102  C  5  S    0.001034   0.004142
  103  C  5  X   -0.001652  -0.006631
  104  C  5  Y   -0.001079  -0.003680
  105  C  5  Z   -0.002768   0.013025
  106  C  5  S   -0.004543  -0.009487
  107  C  5  X   -0.002050  -0.012341
  108  C  5  Y   -0.001242  -0.007279
  109  C  5  Z   -0.004531   0.022895
  110  C  5  S    0.042122  -0.051282
  111  C  5  X   -0.001781  -0.056436
  112  C  5  Y    0.013982  -0.065904
  113  C  5  Z   -0.002098   0.002510
  114  C  5 XX   -0.000013  -0.000384
  115  C  5 YY   -0.000018   0.000545
  116  C  5 ZZ    0.000031  -0.000161
  117  C  5 XY    0.000001   0.000510
  118  C  5 XZ   -0.000218   0.000997
  119  C  5 YZ   -0.000274   0.001147
  120  C  5 XX   -0.000391  -0.006140
  121  C  5 YY    0.000879   0.005415
  122  C  5 ZZ   -0.000488   0.000725
  123  C  5 XY    0.000281   0.001271
  124  C  5 XZ   -0.001813   0.008781
  125  C  5 YZ   -0.002348   0.009588
  126  C  5 XX   -0.003580  -0.017250
  127  C  5 YY    0.006761   0.011708
  128  C  5 ZZ   -0.003181   0.005542
  129  C  5 XY    0.012209   0.000959
  130  C  5 XZ   -0.001209   0.008790
  131  C  5 YZ   -0.003651   0.014875
  132  C  5 XXX  -0.000190  -0.001790
  133  C  5 YYY  -0.000073   0.001106
  134  C  5 ZZZ   0.000215  -0.001534
  135  C  5 XXY   0.000084  -0.001614
  136  C  5 XXZ  -0.000386   0.001810
  137  C  5 YYX   0.000185   0.002063
  138  C  5 YYZ   0.000098   0.000249
  139  C  5 ZZX   0.000070   0.000339
  140  C  5 ZZY   0.000014   0.000130
  141  C  5 XYZ  -0.000301   0.001772
  142  C  6  S   -0.048614   0.002221
  143  C  6  S   -0.079913   0.004142
  144  C  6  X    0.001309   0.006631
  145  C  6  Y    0.112123   0.003680
  146  C  6  Z    0.115513   0.013025
  147  C  6  S    0.190870  -0.009487
  148  C  6  X    0.000520   0.012341
  149  C  6  Y    0.159320   0.007279
  150  C  6  Z    0.191873   0.022895
  151  C  6  S    0.175266  -0.051282
  152  C  6  X   -0.046459   0.056436
  153  C  6  Y    0.025484   0.065904
  154  C  6  Z    0.168002   0.002510
  155  C  6 XX   -0.002515  -0.000384
  156  C  6 YY    0.003904   0.000545
  157  C  6 ZZ   -0.001389  -0.000161
  158  C  6 XY    0.000071   0.000510
  159  C  6 XZ    0.000023  -0.000997
  160  C  6 YZ    0.002372  -0.001147
  161  C  6 XX   -0.008956  -0.006140
  162  C  6 YY    0.017363   0.005415
  163  C  6 ZZ   -0.008408   0.000725
  164  C  6 XY    0.000818   0.001271
  165  C  6 XZ   -0.001601  -0.008781
  166  C  6 YZ    0.017580  -0.009588
  167  C  6 XX   -0.010409  -0.017250
  168  C  6 YY    0.022335   0.011708
  169  C  6 ZZ   -0.011926   0.005542
  170  C  6 XY    0.017273   0.000959
  171  C  6 XZ    0.008965  -0.008790
  172  C  6 YZ    0.014676  -0.014875
  173  C  6 XXX   0.000334   0.001790
  174  C  6 YYY   0.006339  -0.001106
  175  C  6 ZZZ  -0.004308  -0.001534
  176  C  6 XXY  -0.005453   0.001614
  177  C  6 XXZ   0.001160   0.001810
  178  C  6 YYX  -0.000406  -0.002063
  179  C  6 YYZ   0.004620   0.000249
  180  C  6 ZZX  -0.000042  -0.000339
  181  C  6 ZZY  -0.003051  -0.000130
  182  C  6 XYZ  -0.000180   0.001772
  183  H  7  S   -0.000097  -0.003145
  184  H  7  S   -0.000837  -0.000255
  185  H  7  S    0.001626  -0.002219
  186  H  7  X   -0.000018   0.000423
  187  H  7  Y   -0.000106  -0.000170
  188  H  7  Z   -0.000135   0.000419
  189  H  7  X   -0.000709  -0.000722
  190  H  7  Y    0.000665  -0.000469
  191  H  7  Z    0.000213   0.000323
  192  H  8  S   -0.007008  -0.003145
  193  H  8  S   -0.022238  -0.000255
  194  H  8  S   -0.008540  -0.002219
  195  H  8  X    0.001204  -0.000423
  196  H  8  Y    0.001346   0.000170
  197  H  8  Z    0.003554   0.000419
  198  H  8  X    0.003925   0.000722
  199  H  8  Y    0.004436   0.000469
  200  H  8  Z    0.006539   0.000323
  201  C  9  S   -0.000177  -0.001652
  202  C  9  S   -0.000289  -0.002917
  203  C  9  X   -0.000096   0.000506
  204  C  9  Y    0.000497   0.003705
  205  C  9  Z    0.006661  -0.019623
  206  C  9  S    0.001177   0.009659
  207  C  9  X    0.000201   0.001159
  208  C  9  Y    0.000211   0.005052
  209  C  9  Z    0.009951  -0.030253
  210  C  9  S   -0.014498  -0.046007
  211  C  9  X    0.007452   0.013833
  212  C  9  Y   -0.006514  -0.019833
  213  C  9  Z    0.016236  -0.040696
  214  C  9 XX    0.000004  -0.000067
  215  C  9 YY    0.000016   0.000116
  216  C  9 ZZ   -0.000021  -0.000049
  217  C  9 XY   -0.000056  -0.000121
  218  C  9 XZ   -0.000031   0.000099
  219  C  9 YZ   -0.000027   0.000099
  220  C  9 XX    0.000003  -0.000269
  221  C  9 YY   -0.000288  -0.000349
  222  C  9 ZZ    0.000285   0.000618
  223  C  9 XY   -0.000108  -0.002410
  224  C  9 XZ   -0.000163   0.000514
  225  C  9 YZ   -0.000158   0.000458
  226  C  9 XX    0.000381   0.002422
  227  C  9 YY   -0.002329  -0.003448
  228  C  9 ZZ    0.001948   0.001026
  229  C  9 XY    0.002642   0.002018
  230  C  9 XZ   -0.000423   0.001360
  231  C  9 YZ   -0.000861   0.005584
  232  C  9 XXX   0.000060   0.000496
  233  C  9 YYY  -0.000062   0.000099
  234  C  9 ZZZ  -0.000142   0.000295
  235  C  9 XXY   0.000046  -0.000252
  236  C  9 XXZ   0.000186  -0.000504
  237  C  9 YYX  -0.000117  -0.000843
  238  C  9 YYZ   0.000005   0.000108
  239  C  9 ZZX   0.000036   0.000178
  240  C  9 ZZY   0.000037   0.000120
  241  C  9 XYZ  -0.000049   0.000242
  242  C 10  S   -0.048805  -0.001652
  243  C 10  S   -0.080109  -0.002917
  244  C 10  X   -0.003812  -0.000506
  245  C 10  Y   -0.110454  -0.003705
  246  C 10  Z    0.117141  -0.019623
  247  C 10  S    0.194068   0.009659
  248  C 10  X   -0.005394  -0.001159
  249  C 10  Y   -0.154837  -0.005052
  250  C 10  Z    0.189361  -0.030253
  251  C 10  S    0.097282  -0.046007
  252  C 10  X   -0.004479  -0.013833
  253  C 10  Y   -0.103513   0.019833
  254  C 10  Z    0.191652  -0.040696
  255  C 10 XX   -0.002507  -0.000067
  256  C 10 YY    0.004006   0.000116
  257  C 10 ZZ   -0.001499  -0.000049
  258  C 10 XY    0.000263  -0.000121
  259  C 10 XZ   -0.000035  -0.000099
  260  C 10 YZ   -0.002285  -0.000099
  261  C 10 XX   -0.008626  -0.000269
  262  C 10 YY    0.016063  -0.000349
  263  C 10 ZZ   -0.007437   0.000618
  264  C 10 XY    0.001077  -0.002410
  265  C 10 XZ   -0.000792  -0.000514
  266  C 10 YZ   -0.018010  -0.000458
  267  C 10 XX   -0.012878   0.002422
  268  C 10 YY    0.016377  -0.003448
  269  C 10 ZZ   -0.003499   0.001026
  270  C 10 XY    0.002816   0.002018
  271  C 10 XZ   -0.000970  -0.001360
  272  C 10 YZ   -0.007569  -0.005584
  273  C 10 XXX   0.000201  -0.000496
  274  C 10 YYY  -0.006153  -0.000099
  275  C 10 ZZZ  -0.004576   0.000295
  276  C 10 XXY   0.005034   0.000252
  277  C 10 XXZ   0.001569  -0.000504
  278  C 10 YYX  -0.000353   0.000843
  279  C 10 YYZ   0.004570   0.000108
  280  C 10 ZZX   0.000083  -0.000178
  281  C 10 ZZY   0.003222  -0.000120
  282  C 10 XYZ   0.000146   0.000242
  283  H 11  S    0.000122   0.001207
  284  H 11  S    0.001615   0.001583
  285  H 11  S    0.000384  -0.002963
  286  H 11  X    0.000012   0.000072
  287  H 11  Y    0.000030   0.000001
  288  H 11  Z    0.000233  -0.000706
  289  H 11  X   -0.000443  -0.000460
  290  H 11  Y    0.000068  -0.000271
  291  H 11  Z    0.000500  -0.001448
  292  H 12  S   -0.007166   0.001207
  293  H 12  S   -0.016642   0.001583
  294  H 12  S   -0.011073  -0.002963
  295  H 12  X   -0.001448  -0.000072
  296  H 12  Y   -0.001477  -0.000001
  297  H 12  Z    0.003704  -0.000706
  298  H 12  X   -0.001344   0.000460
  299  H 12  Y   -0.002762   0.000271
  300  H 12  Z    0.007135  -0.001448
  301  H 13  S   -0.000317  -0.001985
  302  H 13  S    0.000403  -0.000879
  303  H 13  S   -0.000476  -0.004581
  304  H 13  X    0.000002   0.000048
  305  H 13  Y    0.000031   0.000108
  306  H 13  Z    0.000280  -0.000899
  307  H 13  X    0.000091   0.000329
  308  H 13  Y    0.000269   0.001333
  309  H 13  Z    0.000493  -0.001010
  310  H 14  S   -0.007038  -0.001985
  311  H 14  S   -0.017754  -0.000879
  312  H 14  S   -0.010666  -0.004581
  313  H 14  X    0.001399  -0.000048
  314  H 14  Y   -0.001533  -0.000108
  315  H 14  Z    0.003720  -0.000899
  316  H 14  X    0.001656  -0.000329
  317  H 14  Y   -0.003034  -0.001333
  318  H 14  Z    0.007303  -0.001010
 ...... END OF ORBITAL LOCALIZATION ......
 STEP CPU TIME =     0.02 TOTAL CPU TIME =       39.5 (    0.7 MIN)
 TOTAL WALL CLOCK TIME=      216.0 SECONDS, CPU UTILIZATION IS  18.29%
               765491  WORDS OF DYNAMIC MEMORY USED
 EXECUTION OF GAMESS TERMINATED NORMALLY Mon Nov 28 18:44:07 2016
 DDI: 263640 bytes (0.3 MB / 0 MWords) used by master data server.

 ----------------------------------------
 CPU timing information for all processes
 ========================================
 0: 31.21 + 8.497 = 39.518
 ----------------------------------------
 ddikick.x: exited gracefully.
unset echo
----- accounting info -----
Files used on the master node compute-3-0 were:
-rw-rw-r-- 1 sarom sarom    1570827 Nov 29  2016 .//loc-boys-tri.dat
-rw-rw-r-- 1 sarom sarom       1999 Nov 29  2016 .//loc-boys-tri.F05
-rw-rw-r-- 1 sarom sarom 3015801040 Nov 29  2016 .//loc-boys-tri.F08
-rw-rw-r-- 1 sarom sarom   10503120 Nov 29  2016 .//loc-boys-tri.F10
-rw-rw-r-- 1 sarom sarom       1999 Nov 28 17:27 .//loc-boys-tri.inp
-rw-rw-r-- 1 sarom sarom    1458091 Nov 29  2016 .//loc-boys-tri.log
Mon Nov 28 18:44:17 CST 2016
0.192u 0.697s 3:47.53 0.3%	0+0k 0+144io 0pf+0w
