-catch_rsh /opt/gridengine/default/spool/compute-0-6/active_jobs/36021.1/pe_hostfile
compute-0-6
The primary node assigned by SGE to this run is compute-0-6
Warning: no access to tty (Bad file descriptor).
Thus no job control in this shell.
source /home/sarom/dir.git.branch.saromleang-travis-ci/install.info
setenv GMS_PATH /home/sarom/dir.git.branch.saromleang-travis-ci
setenv GMS_BUILD_DIR /home/sarom/dir.git.branch.saromleang-travis-ci
setenv GMS_TARGET linux64
setenv GMS_FORTRAN gfortran
setenv GMS_GFORTRAN_VERNO 4.4
setenv GMS_MATHLIB mkl-so
setenv GMS_MATHLIB none
setenv GMS_MATHLIB_PATH /share/apps/intel/compilers_and_libraries_2017.1.132/linux/mkl/lib/intel64
setenv GMS_MKL_VERNO 12
setenv GMS_DDI_COMM sockets
setenv GMS_LIBCCHEM false
setenv GMS_EIGEN_PATH
setenv GMS_PHI false
setenv GMS_SHMTYPE sysv
setenv GMS_OPENMP false
unset echo
mcp-sbh3
/home/sarom/dir.git.branch.saromleang-travis-ci/tests/mcp/parallel
----- GAMESS execution script 'rungms' -----
This job is running on host compute-0-6.local
under operating system Linux at Wed Aug 9 21:06:56 CDT 2017
Available scratch disk space (Kbyte units) at beginning of the job is
Filesystem           1K-blocks      Used Available Use% Mounted on
/dev/sda1             16126920   3962040  11345680  26% /
GAMESS temporary binary files will be written to /scratch
GAMESS supplementary output files will be written to /home/sarom/restart
Copying input file mcp-sbh3.inp to your run's scratch directory...
cp /home/sarom/dir.git.branch.saromleang-travis-ci/tests/mcp/parallel/mcp-sbh3.inp /scratch/mcp-sbh3.F05
unset echo
The generated host list is
compute-0-6.local
/home/sarom/dir.git.branch.saromleang-travis-ci/ddikick.x /home/sarom/dir.git.branch.saromleang-travis-ci/gamess.00.x mcp-sbh3 -ddi 1 1 compute-0-6.local -scr /scratch

 Distributed Data Interface kickoff program.
 Initiating 1 compute processes on 1 nodes to run the following command:
 /home/sarom/dir.git.branch.saromleang-travis-ci/gamess.00.x mcp-sbh3 

          ******************************************************
          *         GAMESS VERSION = 20 APR 2017 (R1)          *
          *             FROM IOWA STATE UNIVERSITY             *
          * M.W.SCHMIDT, K.K.BALDRIDGE, J.A.BOATZ, S.T.ELBERT, *
          *   M.S.GORDON, J.H.JENSEN, S.KOSEKI, N.MATSUNAGA,   *
          *          K.A.NGUYEN, S.J.SU, T.L.WINDUS,           *
          *       TOGETHER WITH M.DUPUIS, J.A.MONTGOMERY       *
          *         J.COMPUT.CHEM.  14, 1347-1363(1993)        *
          **************** 64 BIT LINUX VERSION ****************

  SINCE 1993, STUDENTS AND POSTDOCS WORKING AT IOWA STATE UNIVERSITY
  AND ALSO IN THEIR VARIOUS JOBS AFTER LEAVING ISU HAVE MADE IMPORTANT
  CONTRIBUTIONS TO THE CODE:
     IVANA ADAMOVIC, CHRISTINE AIKENS, YURI ALEXEEV, POOJA ARORA,
     ANDREY ASADCHEV, ROB BELL, PRADIPTA BANDYOPADHYAY, JONATHAN BENTZ,
     BRETT BODE, KURT BRORSEN, CALEB CARLIN, GALINA CHABAN, WEI CHEN,
     CHEOL HO CHOI, PAUL DAY, ALBERT DEFUSCO, NUWAN DESILVA, TIM DUDLEY,
     DMITRI FEDOROV, GRAHAM FLETCHER, MARK FREITAG, KURT GLAESEMANN,
     DAN KEMP, GRANT MERRILL, NORIYUKI MINEZAWA, JONATHAN MULLIN,
     TAKESHI NAGATA, SEAN NEDD, HEATHER NETZLOFF, BOSILJKA NJEGIC, RYAN OLSON,
     MIKE PAK, SPENCER PRUITT, LUKE ROSKOP, JIM SHOEMAKER, LYUDMILA SLIPCHENKO,
     TONY SMITH, SAROM SOK LEANG, JIE SONG, TETSUYA TAKETSUGU, SIMON WEBB,
     PENG XU, SOOHAENG YOO, FEDERICO ZAHARIEV

  ADDITIONAL CODE HAS BEEN PROVIDED BY COLLABORATORS IN OTHER GROUPS:
     IOWA STATE UNIVERSITY:
          JOE IVANIC, AARON WEST, LAIMUTIS BYTAUTAS, KLAUS RUEDENBERG
     UNIVERSITY OF TOKYO: KIMIHIKO HIRAO, TAKAHITO NAKAJIMA,
          TAKAO TSUNEDA, MUNEAKI KAMIYA, SUSUMU YANAGISAWA,
          KIYOSHI YAGI, MAHITO CHIBA, SEIKEN TOKURA, NAOAKI KAWAKAMI
     UNIVERSITY OF AARHUS: FRANK JENSEN
     UNIVERSITY OF IOWA: VISVALDAS KAIRYS, HUI LI
     NATIONAL INST. OF STANDARDS AND TECHNOLOGY: WALT STEVENS, DAVID GARMER
     UNIVERSITY OF PISA: BENEDETTA MENNUCCI, JACOPO TOMASI
     UNIVERSITY OF MEMPHIS: HENRY KURTZ, PRAKASHAN KORAMBATH
     UNIVERSITY OF ALBERTA: TOBY ZENG, MARIUSZ KLOBUKOWSKI
     UNIVERSITY OF NEW ENGLAND: MARK SPACKMAN
     MIE UNIVERSITY: HIROAKI UMEDA
     NAT. INST. OF ADVANCED INDUSTRIAL SCIENCE AND TECHNOLOGY: KAZUO KITAURA
     MICHIGAN STATE UNIVERSITY:
          KAROL KOWALSKI, MARTA WLOCH, JEFFREY GOUR, JESSE LUTZ,
          WEI LI, PIOTR PIECUCH
     UNIVERSITY OF SILESIA: MONIKA MUSIAL, STANISLAW KUCHARSKI
     FACULTES UNIVERSITAIRES NOTRE-DAME DE LA PAIX:
          OLIVIER QUINET, BENOIT CHAMPAGNE
     UNIVERSITY OF CALIFORNIA - SANTA BARBARA: BERNARD KIRTMAN
     INSTITUTE FOR MOLECULAR SCIENCE:
          KAZUYA ISHIMURA, MICHIO KATOUDA, AND SHIGERU NAGASE
     UNIVERSITY OF NOTRE DAME: ANNA POMOGAEVA, DAN CHIPMAN
     KYUSHU UNIVERSITY:
          HARUYUKI NAKANO,
          FENG LONG GU, JACEK KORCHOWIEC, MARCIN MAKOWSKI, AND YURIKO AOKI,
          HIROTOSHI MORI AND EISAKU MIYOSHI
     PENNSYLVANIA STATE UNIVERSITY:
          TZVETELIN IORDANOV, CHET SWALINA, JONATHAN SKONE,
          SHARON HAMMES-SCHIFFER
     WASEDA UNIVERSITY:
          MASATO KOBAYASHI, TOMOKO AKAMA, TSUGUKI TOUMA,
          TAKESHI YOSHIKAWA, YASUHIRO IKABATA, JUNJI SEINO,
          YUYA NAKAJIMA, HIROMI NAKAI
     NANJING UNIVERSITY: SHUHUA LI
     UNIVERSITY OF NEBRASKA:
          PEIFENG SU, DEJUN SI, NANDUN THELLAMUREGE, YALI WANG, HUI LI
     UNIVERSITY OF ZURICH: ROBERTO PEVERATI, KIM BALDRIDGE
     N. COPERNICUS UNIVERSITY AND JACKSON STATE UNIVERSITY:
          MARIA BARYSZ
     UNIVERSITY OF COPENHAGEN: Jimmy Kromann, CASPER STEINMANN
     TOKYO INSTITUTE OF TECHNOLOGY: HIROYA NAKATA
     NAGOYA UNIVERSITY: YOSHIO NISHIMOTO, STEPHAN IRLE
     MOSCOW STATE UNIVERSITY: VLADIMIR MIRONOV

 EXECUTION OF GAMESS BEGUN Wed Aug  9 21:06:56 2017

            ECHO OF THE FIRST FEW INPUT CARDS -
 INPUT CARD>!   SbH3...MCP geometry optimization with analytical gradients                  
 INPUT CARD>!                                                                               
 INPUT CARD>!   NSERCH:   0  E=      -83.5923797348, 10 iters, R.M.S.=  0.0172012           
 INPUT CARD>!   NSERCH:   1  E=      -83.6054675937,  8 iters, R.M.S.=  0.0138116           
 INPUT CARD>!   NSERCH:   2  E=      -83.6161873875,  8 iters, R.M.S.=  0.0086362           
 INPUT CARD>!   NSERCH:   3  E=      -83.6190429435,  8 iters, R.M.S.=  0.0029859           
 INPUT CARD>!   NSERCH:   4  E=      -83.6192168919,  8 iters, R.M.S.=  0.0002443           
 INPUT CARD>!   NSERCH:   5  E=      -83.6192180675,  6 iters, R.M.S.=  0.0000028           
 INPUT CARD>!                                                                               
 INPUT CARD>!   This run takes 2 seconds on 2.66 GHz Cloverton (13 May 2013)                
 INPUT CARD>!       no significant change in results since 2008.                            
 INPUT CARD>!                                                                               
 INPUT CARD> $contrl scftyp=rhf runtyp=optimize units=bohr pp=mcp ispher=1 $end             
 INPUT CARD> $system mwords=5 $end                                                          
 INPUT CARD> $basis  gbasis=mcp-dzp $end                                                    
 INPUT CARD> $statpt opttol=1.0d-5 $end                                                     
 INPUT CARD> $data                                                                          
 INPUT CARD>SbH3                                                                            
 INPUT CARD>Cnv 3                                                                           
 INPUT CARD>                                                                                
 INPUT CARD>Sb  51.0      .0000000000         .0000000000         .0000000000               
 INPUT CARD>H    1.0     3.1613280069         .0000000000        1.2554893838               
 INPUT CARD> $end                                                                           
    5000000 WORDS OF MEMORY AVAILABLE

     $BASIS REQUESTS READING THE "MCP-DZP " BASIS SET FROM AN EXTERNAL FILE


     RUN TITLE
     ---------
 SbH3                                                                            

 THE POINT GROUP OF THE MOLECULE IS CNV     
 THE ORDER OF THE PRINCIPAL AXIS IS     3

 THE EXTERNAL BASIS SET FILE BEING READ IS
     "/home/sarom/dir.git.branch.saromleang-travis-ci/auxdata/MCP/MCP-DZP"
 *** WARNING! ATOM   1 SHELL    1 TYPE S HAS NORMALIZATION   1.58328666
 *** WARNING! ATOM   1 SHELL    3 TYPE S HAS NORMALIZATION   1.67942376
 *** WARNING! ATOM   1 SHELL    4 TYPE P HAS NORMALIZATION   2.79539139
 *** WARNING! ATOM   1 SHELL    6 TYPE P HAS NORMALIZATION   1.20397577
 *** WARNING! ATOM   2 SHELL    9 TYPE S HAS NORMALIZATION   1.70173870

 ATOM      ATOMIC                      COORDINATES (BOHR)
           CHARGE         X                   Y                   Z
 SB         51.0     0.0000000000        0.0000000000        0.0000000000
 H           1.0    -1.5806640034        2.7377903637        1.2554893838
 H           1.0    -1.5806640035       -2.7377903637        1.2554893838
 H           1.0     3.1613280069        0.0000000000        1.2554893838

          INTERNUCLEAR DISTANCES (ANGS.)
          ------------------------------

                1 SB         2 H          3 H          4 H     

   1 SB      0.0000000    1.8000000 *  1.8000000 *  1.8000000 *
   2 H       1.8000000 *  0.0000000    2.8975527 *  2.8975527 *
   3 H       1.8000000 *  2.8975527 *  0.0000000    2.8975527 *
   4 H       1.8000000 *  2.8975527 *  2.8975527 *  0.0000000  

  * ... LESS THAN  3.000


     ATOMIC BASIS SET
     ----------------
 THE CONTRACTED PRIMITIVE FUNCTIONS HAVE BEEN UNNORMALIZED
 THE CONTRACTED BASIS FUNCTIONS ARE NOW NORMALIZED TO UNITY

  SHELL TYPE  PRIMITIVE        EXPONENT          CONTRACTION COEFFICIENT(S)

 SB        

      1   S       1          1258.7375000    0.037733521069
      1   S       2            49.0456190   -0.207896463542
      1   S       3             9.1684677    0.574110985372
      1   S       4             1.9280137   -0.470447191050
      1   S       5             1.2066063   -0.757800262464

      2   S       6             0.2415702    1.000000000000

      3   S       7             0.1282960    0.683306137264
      3   S       8             0.0663697    0.334098348794

      4   P       9           179.9626700   -0.108162078874
      4   P      10            12.1662380    0.389798879108
      4   P      11             2.5284294   -0.616048633049
      4   P      12             1.0654322   -0.526101044902

      5   P      13             0.3688384    1.000000000000

      6   P      14             0.1485301    0.729571027745
      6   P      15             0.0574845    0.325383962160

      7   D      16           194.9196400   -0.021978099548
      7   D      17            53.2881840   -0.121046697512
      7   D      18            18.4426780   -0.201577095858
      7   D      19             2.9154395    0.453977090671
      7   D      20             1.1557182    0.517500189365
      7   D      21             0.4223067    0.171066696485

      8   D      22             0.3106300    0.614562065116
      8   D      23             0.1217590    0.471442049951

 H         

     15   S      24            13.0100000    0.033498726390
     15   S      25             1.9620000    0.234800801174
     15   S      26             0.4446000    0.813682957883

     16   S      27             0.1220000    1.000000000000

     17   P      28             0.7270000    1.000000000000

 TOTAL NUMBER OF BASIS SET SHELLS             =   17
 NUMBER OF CARTESIAN GAUSSIAN BASIS FUNCTIONS =   39
 NOTE: THIS RUN WILL RESTRICT THE MO VARIATION SPACE TO SPHERICAL HARMONICS.
 THE NUMBER OF ORBITALS KEPT IN THE VARIATIONAL SPACE WILL BE PRINTED LATER.
 NUMBER OF ELECTRONS                          =   54
 CHARGE OF MOLECULE                           =    0
 SPIN MULTIPLICITY                            =    1
 NUMBER OF OCCUPIED ORBITALS (ALPHA)          =   27
 NUMBER OF OCCUPIED ORBITALS (BETA )          =   27
 TOTAL NUMBER OF ATOMS                        =    4
 THE NUCLEAR REPULSION ENERGY IS       45.5279532772
 NOTE THIS RUN IS USING CORE POTENTIALS, AND THE NUMBER OF ELECTRONS,
 OCCUPIED ORBITALS, AND NUCLEAR REPULSION ENERGY WILL BE ADJUSTED BELOW
 AFTER REMOVAL OF THE CORE CHARGES.

     $CONTRL OPTIONS
     ---------------
 SCFTYP=RHF          RUNTYP=OPTIMIZE     EXETYP=RUN     
 MPLEVL=       0     CITYP =NONE         CCTYP =NONE         VBTYP =NONE    
 DFTTYP=NONE         TDDFT =NONE    
 MULT  =       1     ICHARG=       0     NZVAR =       0     COORD =UNIQUE  
 PP    =MCP          RELWFN=NONE         LOCAL =NONE         NUMGRD=       F
 ISPHER=       1     NOSYM =       0     MAXIT =      30     UNITS =BOHR    
 PLTORB=       F     MOLPLT=       F     AIMPAC=       F     FRIEND=        
 NPRINT=       7     IREST =       0     GEOM  =INPUT   
 NORMF =       0     NORMP =       0     ITOL  =      20     ICUT  =       9
 INTTYP=BEST         GRDTYP=BEST         QMTTOL= 1.0E-06

     $SYSTEM OPTIONS
     ---------------
  REPLICATED MEMORY=     5000000 WORDS (ON EVERY NODE).
 DISTRIBUTED MEMDDI=           0 MILLION WORDS IN AGGREGATE,
 MEMDDI DISTRIBUTED OVER   1 PROCESSORS IS           0 WORDS/PROCESSOR.
 TOTAL MEMORY REQUESTED ON EACH PROCESSOR=     5000000 WORDS.
 TIMLIM=      525600.00 MINUTES, OR     365.0 DAYS.
 PARALL= F  BALTYP=  DLB     KDIAG=    0  COREFL= F
 MXSEQ2=     300 MXSEQ3=     150  mem10=         0

          ----------------
          MODEL-POTENTIALS
          ----------------
 SB      MCP-DZP 
 *******************************************************************************
 * Element : Sb
 * Basis : MCP segmented  (512/412/62)
 * Effective Charge : 15.0
 * Term : 4S   Valence configuration : 1s(2)2p(3)
 * SCF energy : -81.9211089 a.u.
 * Valence Correlation energy : -0.05926742 a.u.
 * References
 * Authors : E. Miyoshi, Y. Sakai, K. Tanaka, M. Masamura,   [inner and valence s
 * Journal : J. Mol. Struct. (THEOCHEM), 451, 73-79 (1998)
 * Authors : M. Sekiya, T. Noro, Y. Osanai, T. Koga,   [valence correlated set]
 * Journal : Theor. Chem. Acc. 106, 297 (2001)
 *******************************************************************************
 THE MCP PLACED ON ATOM    1 REMOVES ZCORE= 36

 THE MCP RUN REMOVES   36 CORE ELECTRONS, AND THE SAME NUMBER OF PROTONS.
 NUMBER OF ELECTRONS KEPT IN THE CALCULATION IS =   18
 NUMBER OF OCCUPIED ORBITALS (ALPHA) KEPT IS    =    9
 NUMBER OF OCCUPIED ORBITALS (BETA ) KEPT IS    =    9
 THE ADJUSTED NUCLEAR REPULSION ENERGY=       13.7773183227

     MODEL-POTENTIAL PARAMETERS
     --------------------------

  NO.    N                        ALPHA           A

 SB        
   1     0                      266.863620    1.994729
   2     0                        7.495168    0.595868
   3     0                        1.055974    0.135296
   1     1                     3415.451200    9.004861
   2     1                       45.471322    7.817078
   3     1                        1.922978    0.089021

     CORE-SHELL BASIS SET FOR MODEL-POTENTIAL ATOMS
     ----------------------------------------------

 SHELL TYPE PRIM    EXPONENT          CONTRACTION COEFFICIENTS

 SB        

   1   S    PARAMETER B =      2256.269100
   1   S    1     77729.520000   58.784034 (  0.017718) 
   1   S    2      7897.737400   71.749952 (  0.120167) 
   1   S    3      1523.595400   75.334974 (  0.433445) 
   1   S    4       391.008900   34.706874 (  0.553816) 
   1   S    5       651.876570   -0.440404 ( -0.004790) 
   1   S    6        70.854743    0.565032 (  0.032463) 
   1   S    7        30.463308    0.221570 (  0.023976) 
   1   S    8        56.677810    0.109278 (  0.007423) 
   1   S    9         9.642199   -0.096137 ( -0.024652) 
   1   S   10         4.255994   -0.015690 ( -0.007430) 
   1   S   11         8.607677    0.000000 (  0.000000) 
   1   S   12         1.904156    0.000000 (  0.000000) 
   1   S   13         0.832066    0.000000 (  0.000000) 

   2   S    PARAMETER B =       350.336450
   2   S   14     77729.520000   21.980726 (  0.006625) 
   2   S   15      7897.737400   26.829059 (  0.044933) 
   2   S   16      1523.595400   28.169589 (  0.162076) 
   2   S   17       391.008900   12.977755 (  0.207085) 
   2   S   18       651.876570    8.702687 (  0.094650) 
   2   S   19        70.854743  -11.165474 ( -0.641491) 
   2   S   20        30.463308   -4.378402 ( -0.473776) 
   2   S   21        56.677810    0.078866 (  0.005357) 
   2   S   22         9.642199   -0.069382 ( -0.017791) 
   2   S   23         4.255994   -0.011324 ( -0.005362) 
   2   S   24         8.607677   -0.005669 ( -0.001583) 
   2   S   25         1.904156    0.004662 (  0.004036) 
   2   S   26         0.832066    0.000982 (  0.001582) 

   3   S    PARAMETER B =        71.647083
   3   S   27     77729.520000    9.864469 (  0.002973) 
   3   S   28      7897.737400   12.040424 (  0.020165) 
   3   S   29      1523.595400   12.642039 (  0.072737) 
   3   S   30       391.008900    5.824195 (  0.092936) 
   3   S   31       651.876570    4.603777 (  0.050070) 
   3   S   32        70.854743   -5.906612 ( -0.339353) 
   3   S   33        30.463308   -2.316204 ( -0.250630) 
   3   S   34        56.677810   -4.375377 ( -0.297198) 
   3   S   35         9.642199    3.849234 (  0.987034) 
   3   S   36         4.255994    0.628224 (  0.297477) 
   3   S   37         8.607677   -0.003381 ( -0.000944) 
   3   S   38         1.904156    0.002781 (  0.002407) 
   3   S   39         0.832066    0.000586 (  0.000944) 

   4   S    PARAMETER B =        12.961197
   4   S   40     77729.520000    4.354275 (  0.001312) 
   4   S   41      7897.737400    5.314546 (  0.008901) 
   4   S   42      1523.595400    5.580063 (  0.032105) 
   4   S   43       391.008900    2.570742 (  0.041021) 
   4   S   44       651.876570    2.105855 (  0.022903) 
   4   S   45        70.854743   -2.701800 ( -0.155227) 
   4   S   46        30.463308   -1.059477 ( -0.114643) 
   4   S   47        56.677810   -2.594764 ( -0.176250) 
   4   S   48         9.642199    2.282741 (  0.585349) 
   4   S   49         4.255994    0.372560 (  0.176415) 
   4   S   50         8.607677    1.412732 (  0.394444) 
   4   S   51         1.904156   -1.161851 ( -1.005688) 
   4   S   52         0.832066   -0.244787 ( -0.394239) 

   5   P    PARAMETER B =       314.299370
   5   P   53      2140.155400  525.594426 (  0.025331) 
   5   P   54       450.633830  512.947888 (  0.173322) 
   5   P   55       136.348820  328.143817 (  0.494094) 
   5   P   56        47.589592   79.776067 (  0.447757) 
   5   P   57        21.680462    1.449630 (  0.021739) 
   5   P   58         8.984165    0.675412 (  0.030464) 
   5   P   59         3.846385    0.046369 (  0.006039) 
   5   P   60         3.067791   -0.054253 ( -0.009374) 
   5   P   61         1.352145   -0.020726 ( -0.009972) 
   5   P   62         0.565061   -0.001368 ( -0.001959) 

   6   P    PARAMETER B =        59.563495
   6   P   63      2140.155400  269.033340 (  0.012966) 
   6   P   64       450.633830  262.560642 (  0.088718) 
   6   P   65       136.348820  167.965728 (  0.252910) 
   6   P   66        47.589592   40.834680 (  0.229192) 
   6   P   67        21.680462  -29.718374 ( -0.445655) 
   6   P   68         8.984165  -13.846365 ( -0.624523) 
   6   P   69         3.846385   -0.950601 ( -0.123806) 
   6   P   70         3.067791   -0.005707 ( -0.000986) 
   6   P   71         1.352145   -0.002180 ( -0.001049) 
   6   P   72         0.565061   -0.000144 ( -0.000206) 

   7   P    PARAMETER B =         9.074736
   7   P   73      2140.155400  116.505524 (  0.005615) 
   7   P   74       450.633830  113.702611 (  0.038419) 
   7   P   75       136.348820   72.738051 (  0.109523) 
   7   P   76        47.589592   17.683582 (  0.099252) 
   7   P   77        21.680462  -18.392309 ( -0.275810) 
   7   P   78         8.984165   -8.569335 ( -0.386509) 
   7   P   79         3.846385   -0.588314 ( -0.076622) 
   7   P   80         3.067791    3.232820 (  0.558611) 
   7   P   81         1.352145    1.235035 (  0.594237) 
   7   P   82         0.565061    0.081504 (  0.116713) 

   8   D    PARAMETER B =        41.072321
   8   D   83       188.033860  866.921673 (  0.055164) 
   8   D   84        51.035331  473.944546 (  0.295491) 
   8   D   85        17.346972  137.500939 (  0.566572) 
   8   D   86         6.166323   12.335327 (  0.310596) 
   8   D   87         5.027724    0.021583 (  0.000777) 
   8   D   88         1.779129    0.007297 (  0.001618) 
   8   D   89         0.588132    0.000564 (  0.000867) 

          ----------------
          PROPERTIES INPUT
          ----------------

     MOMENTS            FIELD           POTENTIAL          DENSITY
 IEMOM =       1   IEFLD =       0   IEPOT =       0   IEDEN =       0
 WHERE =COMASS     WHERE =NUCLEI     WHERE =NUCLEI     WHERE =NUCLEI  
 OUTPUT=BOTH       OUTPUT=BOTH       OUTPUT=BOTH       OUTPUT=BOTH    
 IEMINT=       0   IEFINT=       0                     IEDINT=       0
                                                       MORB  =       0
          EXTRAPOLATION IN EFFECT
          DIIS IN EFFECT
 ORBITAL PRINTING OPTION: NPREO=     1    39     2     1

     -------------------------------
     INTEGRAL TRANSFORMATION OPTIONS
     -------------------------------
     NWORD  =            0
     CUTOFF = 1.0E-09     MPTRAN =       0
     DIRTRF =       F     AOINTS =DUP     

          ----------------------
          INTEGRAL INPUT OPTIONS
          ----------------------
 NOPK  =       1 NORDER=       0 SCHWRZ=       F

     ------------------------------------------
     THE POINT GROUP IS CNV, NAXIS= 3, ORDER= 6
     ------------------------------------------

 -- VARIATIONAL SPACE WILL BE RESTRICTED TO PURE SPHERICAL HARMONICS ONLY --
 AFTER EXCLUDING CONTAMINANT COMBINATIONS FROM THE CARTESIAN GAUSSIAN BASIS
 SET, THE NUMBER OF SPHERICAL HARMONICS KEPT IN THE VARIATION SPACE IS   37

     DIMENSIONS OF THE SYMMETRY SUBSPACES ARE
 A1  =   12     A2  =    1     E   =   12

 ..... DONE SETTING UP THE RUN .....
 STEP CPU TIME =     0.05 TOTAL CPU TIME =        0.0 (    0.0 MIN)
 TOTAL WALL CLOCK TIME=        0.0 SECONDS, CPU UTILIZATION IS 100.00%


          -----------------------------
          STATIONARY POINT LOCATION RUN
          -----------------------------

 OBTAINING INITIAL HESSIAN, HESS=GUESS   
 CARTESIAN COORDINATE OPTIMIZATION USING BADGER'S RULE FORCE CONSTANT GUESS

          PARAMETERS CONTROLLING GEOMETRY SEARCH ARE
          METHOD =QA                  UPHESS =BFGS    
          NNEG   =         0          NFRZ   =         0
          NSTEP  =        50          IFOLOW =         1
          HESS   =GUESS               RESTAR =         F
          IHREP  =         0          HSSEND =         F
          NPRT   =         0          NPUN   =         0
          OPTTOL = 1.000E-05          RMIN   = 1.500E-03
          RMAX   = 1.000E-01          RLIM   = 7.000E-02
          DXMAX  = 3.000E-01          PURIFY =         F
          MOVIE  =         F          TRUPD  =         T
          TRMAX  = 5.000E-01          TRMIN  = 5.000E-02
          ITBMAT =         5          STPT   =         F
          STSTEP = 1.000E-02          PROJCT=          T

 BEGINNING GEOMETRY SEARCH POINT NSERCH=   0 ...

 COORDINATES OF SYMMETRY UNIQUE ATOMS (ANGS)
   ATOM   CHARGE       X              Y              Z
 ------------------------------------------------------------
 SB         51.0   0.0000000000   0.0000000000   0.0000000000
 H           1.0   1.6729028586   0.0000000000   0.6643764186
 COORDINATES OF ALL ATOMS ARE (ANGS)
   ATOM   CHARGE       X              Y              Z
 ------------------------------------------------------------
 SB         51.0   0.0000000000   0.0000000000   0.0000000000
 H           1.0  -0.8364514293   1.4487763736   0.6643764186
 H           1.0  -0.8364514293  -1.4487763736   0.6643764186
 H           1.0   1.6729028586   0.0000000000   0.6643764186

          ********************
          1 ELECTRON INTEGRALS
          ********************
 TIME TO DO ORDINARY INTEGRALS=      0.00
 TIME TO DO      MCP INTEGRALS=      0.00
 ...... END OF ONE-ELECTRON INTEGRALS ......
 STEP CPU TIME =     0.00 TOTAL CPU TIME =        0.0 (    0.0 MIN)
 TOTAL WALL CLOCK TIME=        0.0 SECONDS, CPU UTILIZATION IS 100.00%

          -------------
          GUESS OPTIONS
          -------------
          GUESS =HUCKEL            NORB  =       0          NORDER=       0
          MIX   =       F          PRTMO =       F          PUNMO =       F
          TOLZ  = 1.0E-08          TOLE  = 1.0E-05
          SYMDEN=       F          PURIFY=       F

 INITIAL GUESS ORBITALS GENERATED BY HUCKEL   ROUTINE.
 HUCKEL GUESS REQUIRES     18429 WORDS.

 STATISTICS FOR GENERATION OF SYMMETRY ORBITAL -Q- MATRIX
 NUMBER OF CARTESIAN ATOMIC ORBITALS=         39
 NUMBER OF SPHERICAL CONTAMINANTS DROPPED=     2
 NUMBER OF LINEARLY DEPENDENT MOS DROPPED=     0
 TOTAL NUMBER OF MOS IN VARIATION SPACE=      37

 SYMMETRIES FOR INITIAL GUESS ORBITALS FOLLOW.   BOTH SET(S).
     9 ORBITALS ARE OCCUPIED (    5 CORE ORBITALS).
     6=?A1      7=?E       8=?E       9=?A1     10=E       11=?E      12=?A1 
    13=A1      14=A1      15=A1      16=A1      17=A1      18=A1      19=A1  
 ...... END OF INITIAL ORBITAL SELECTION ......
 STEP CPU TIME =     0.00 TOTAL CPU TIME =        0.0 (    0.0 MIN)
 TOTAL WALL CLOCK TIME=        0.1 SECONDS, CPU UTILIZATION IS  83.33%

                    ----------------------
                    AO INTEGRAL TECHNOLOGY
                    ----------------------
     S,P,L SHELL ROTATED AXIS INTEGRALS, REPROGRAMMED BY
        KAZUYA ISHIMURA (IMS) AND JOSE SIERRA (SYNSTAR).
     S,P,D,L SHELL ROTATED AXIS INTEGRALS PROGRAMMED BY
        KAZUYA ISHIMURA (INSTITUTE FOR MOLECULAR SCIENCE).
     S,P,D,F,G SHELL TO TOTAL QUARTET ANGULAR MOMENTUM SUM 5,
        ERIC PROGRAM BY GRAHAM FLETCHER (ELORET AND NASA ADVANCED
        SUPERCOMPUTING DIVISION, AMES RESEARCH CENTER).
     S,P,D,F,G,L SHELL GENERAL RYS QUADRATURE PROGRAMMED BY
        MICHEL DUPUIS (PACIFIC NORTHWEST NATIONAL LABORATORY).

          --------------------
          2 ELECTRON INTEGRALS
          --------------------

 THE -PK- OPTION IS OFF, THE INTEGRALS ARE NOT IN SUPERMATRIX FORM.
 STORING   15000 INTEGRALS/RECORD ON DISK, USING 12 BYTES/INTEGRAL.
 TWO ELECTRON INTEGRAL EVALUATION REQUIRES   90549 WORDS OF MEMORY.
 II,JST,KST,LST =  1  1  1  1 NREC =         1 INTLOC =    1
 II,JST,KST,LST =  2  1  1  1 NREC =         1 INTLOC =    2
 II,JST,KST,LST =  3  1  1  1 NREC =         1 INTLOC =    7
 II,JST,KST,LST =  4  1  1  1 NREC =         1 INTLOC =   22
 II,JST,KST,LST =  5  1  1  1 NREC =         1 INTLOC =   67
 II,JST,KST,LST =  6  1  1  1 NREC =         1 INTLOC =  214
 II,JST,KST,LST =  7  1  1  1 NREC =         1 INTLOC =  571
 II,JST,KST,LST =  8  1  1  1 NREC =         1 INTLOC = 2257
 II,JST,KST,LST =  9  1  1  1 NREC =         1 INTLOC = 6628
 II,JST,KST,LST = 10  1  1  1 NREC =         1 INTLOC = 6628
 II,JST,KST,LST = 11  1  1  1 NREC =         1 INTLOC = 6628
 II,JST,KST,LST = 12  1  1  1 NREC =         1 INTLOC = 6628
 II,JST,KST,LST = 13  1  1  1 NREC =         1 INTLOC = 6628
 II,JST,KST,LST = 14  1  1  1 NREC =         1 INTLOC = 6628
 II,JST,KST,LST = 15  1  1  1 NREC =         1 INTLOC = 6628
 II,JST,KST,LST = 16  1  1  1 NREC =         1 INTLOC =11634
 II,JST,KST,LST = 17  1  1  1 NREC =         2 INTLOC = 3470
 TOTAL NUMBER OF NONZERO TWO-ELECTRON INTEGRALS =               53742
          4 INTEGRAL RECORDS WERE STORED ON DISK FILE  8.
  ...... END OF TWO-ELECTRON INTEGRALS .....
 STEP CPU TIME =     0.02 TOTAL CPU TIME =        0.1 (    0.0 MIN)
 TOTAL WALL CLOCK TIME=        0.1 SECONDS, CPU UTILIZATION IS  77.78%

          --------------------------
                 RHF SCF CALCULATION
          --------------------------

     NUCLEAR ENERGY =        13.7773183227
     MAXIT =   30     NPUNCH=    2
     EXTRAP=T  DAMP=F  SHIFT=F  RSTRCT=F  DIIS=T  DEM=F  SOSCF=F
     DENSITY MATRIX CONV=  1.00E-05
     MEMORY REQUIRED FOR RHF ITERS=     41858 WORDS.

 ITER EX DEM     TOTAL ENERGY        E CHANGE  DENSITY CHANGE    DIIS ERROR
   1  0  0      -79.4174156011   -79.4174156011   0.464303949   4.348483155
          * * *   INITIATING DIIS PROCEDURE   * * *
   2  1  0      -83.5638356962    -4.1464200951   0.228071945   0.223569247
   3  2  0      -83.5899417398    -0.0261060436   0.071207735   0.018269097
   4  3  0      -83.5916556500    -0.0017139103   0.022763745   0.004932529
   5  4  0      -83.5918855536    -0.0002299035   0.016520191   0.002143882
   6  5  0      -83.5919445814    -0.0000590278   0.002073149   0.000227950
   7  6  0      -83.5919455269    -0.0000009454   0.000396454   0.000063326
   8  7  0      -83.5919455765    -0.0000000497   0.000035011   0.000009980
   9  8  0      -83.5919455776    -0.0000000011   0.000003057   0.000001327
  10  9  0      -83.5919455777    -0.0000000000   0.000000785   0.000000215

          -----------------
          DENSITY CONVERGED
          -----------------
     TIME TO FORM FOCK OPERATORS=       0.0 SECONDS (       0.0 SEC/ITER)
     TIME TO SOLVE SCF EQUATIONS=       0.0 SECONDS (       0.0 SEC/ITER)

 FINAL RHF ENERGY IS      -83.5919455777 AFTER  10 ITERATIONS

          ------------
          EIGENVECTORS
          ------------

                      1          2          3          4          5
                   -1.6384    -1.6384    -1.6311    -1.6311    -1.6287
                     E          E          E          E          A1  
    1  SB 1  S    0.000000  -0.000000  -0.000000  -0.000000  -0.003325
    2  SB 1  S    0.000000  -0.000000  -0.000000  -0.000000  -0.009657
    3  SB 1  S    0.000000  -0.000000  -0.000000  -0.000000   0.009049
    4  SB 1  X   -0.000483  -0.000000  -0.000231  -0.000000   0.000000
    5  SB 1  Y    0.000000   0.000483  -0.000000  -0.000231   0.000000
    6  SB 1  Z    0.000000  -0.000000  -0.000000  -0.000000   0.000351
    7  SB 1  X   -0.000046  -0.000000   0.004051  -0.000000   0.000000
    8  SB 1  Y    0.000000   0.000046  -0.000000   0.004051   0.000000
    9  SB 1  Z    0.000000  -0.000000  -0.000000  -0.000000   0.006225
   10  SB 1  X   -0.004359  -0.000000  -0.003112  -0.000000   0.000000
   11  SB 1  Y    0.000000   0.004359  -0.000000  -0.003112   0.000000
   12  SB 1  Z    0.000000  -0.000000  -0.000000  -0.000000   0.000187
   13  SB 1 XX    0.835328  -0.000000  -0.223094  -0.000000  -0.499483
   14  SB 1 YY   -0.835328  -0.000000   0.223094  -0.000000  -0.499483
   15  SB 1 ZZ    0.000000  -0.000000  -0.000000  -0.000000   0.998967
   16  SB 1 XY    0.000000   0.964554  -0.000000   0.257606   0.000000
   17  SB 1 XZ    0.256071  -0.000000   0.965182  -0.000000   0.000000
   18  SB 1 YZ    0.000000  -0.256071  -0.000000   0.965182   0.000000
   19  SB 1 XX    0.000083  -0.000000  -0.000701  -0.000000  -0.000569
   20  SB 1 YY   -0.000083  -0.000000   0.000701  -0.000000  -0.000569
   21  SB 1 ZZ    0.000000  -0.000000  -0.000000  -0.000000   0.001138
   22  SB 1 XY    0.000000   0.000096  -0.000000   0.000810   0.000000
   23  SB 1 XZ   -0.000506  -0.000000   0.001262  -0.000000   0.000000
   24  SB 1 YZ    0.000000   0.000506  -0.000000   0.001262   0.000000
   25  H  2  S   -0.007399  -0.012815  -0.003356   0.005813  -0.005061
   26  H  2  S   -0.002468  -0.004275  -0.001297   0.002246  -0.002394
   27  H  2  X   -0.001475  -0.000495   0.000426   0.000964  -0.000326
   28  H  2  Y    0.000495   0.002047   0.000964  -0.000688   0.000564
   29  H  2  Z    0.000517   0.000896  -0.000505   0.000874   0.001364
   30  H  3  S   -0.007399   0.012815  -0.003356  -0.005813  -0.005061
   31  H  3  S   -0.002468   0.004275  -0.001297  -0.002246  -0.002394
   32  H  3  X   -0.001475   0.000495   0.000426  -0.000964  -0.000326
   33  H  3  Y   -0.000495   0.002047  -0.000964  -0.000688  -0.000564
   34  H  3  Z    0.000517  -0.000896  -0.000505  -0.000874   0.001364
   35  H  4  S    0.014797  -0.000000   0.006713  -0.000000  -0.005061
   36  H  4  S    0.004937  -0.000000   0.002594  -0.000000  -0.002394
   37  H  4  X   -0.002333  -0.000000  -0.001244  -0.000000   0.000651
   38  H  4  Y    0.000000   0.001189  -0.000000   0.000983   0.000000
   39  H  4  Z   -0.001035  -0.000000   0.001009  -0.000000   0.001364

                      6          7          8          9         10
                   -0.7352    -0.4742    -0.4742    -0.3225     0.1101
                     A1         E          E          A1         A1  
    1  SB 1  S    0.532145   0.000000   0.000000  -0.245607   0.344876
    2  SB 1  S    0.549152   0.000000   0.000000  -0.205293   0.137844
    3  SB 1  S    0.398082   0.000000   0.000000  -0.439336   1.322143
    4  SB 1  X   -0.000000   0.240031   0.000000   0.000000   0.000000
    5  SB 1  Y   -0.000000   0.000000   0.240031   0.000000   0.000000
    6  SB 1  Z    0.037810   0.000000   0.000000   0.296332   0.157013
    7  SB 1  X   -0.000000   0.221018   0.000000   0.000000   0.000000
    8  SB 1  Y   -0.000000   0.000000   0.221018   0.000000   0.000000
    9  SB 1  Z    0.038199   0.000000   0.000000   0.249144   0.041391
   10  SB 1  X   -0.000000   0.351044   0.000000   0.000000   0.000000
   11  SB 1  Y   -0.000000   0.000000   0.351044   0.000000   0.000000
   12  SB 1  Z    0.029936   0.000000   0.000000   0.609748   0.886382
   13  SB 1 XX   -0.011609  -0.068353   0.000000  -0.008291   0.039127
   14  SB 1 YY   -0.011609   0.068353   0.000000  -0.008291   0.039127
   15  SB 1 ZZ    0.023218   0.000000   0.000000   0.016582  -0.078254
   16  SB 1 XY   -0.000000   0.000000   0.078928   0.000000   0.000000
   17  SB 1 XZ   -0.000000  -0.071059   0.000000   0.000000   0.000000
   18  SB 1 YZ   -0.000000   0.000000  -0.071059   0.000000   0.000000
   19  SB 1 XX    0.003880   0.062999   0.000000   0.002227  -0.041692
   20  SB 1 YY    0.003880  -0.062999   0.000000   0.002227  -0.041692
   21  SB 1 ZZ   -0.007761   0.000000   0.000000  -0.004455   0.083383
   22  SB 1 XY   -0.000000   0.000000  -0.072745   0.000000   0.000000
   23  SB 1 XZ   -0.000000   0.073234   0.000000   0.000000   0.000000
   24  SB 1 YZ   -0.000000   0.000000   0.073234   0.000000   0.000000
   25  H  2  S    0.154658  -0.173182   0.299959   0.139689  -0.151635
   26  H  2  S    0.054564  -0.101261   0.175390   0.153280  -0.749215
   27  H  2  X    0.008029  -0.003176   0.010903   0.005409   0.000234
   28  H  2  Y   -0.013907   0.010903  -0.015766  -0.009368  -0.000406
   29  H  2  Z   -0.005544   0.004716  -0.008169   0.003618   0.010895
   30  H  3  S    0.154658  -0.173182  -0.299959   0.139689  -0.151635
   31  H  3  S    0.054564  -0.101261  -0.175390   0.153280  -0.749215
   32  H  3  X    0.008029  -0.003176  -0.010903   0.005409   0.000234
   33  H  3  Y    0.013907  -0.010903  -0.015766   0.009368   0.000406
   34  H  3  Z   -0.005544   0.004716   0.008169   0.003618   0.010895
   35  H  4  S    0.154658   0.346363   0.000000   0.139689  -0.151635
   36  H  4  S    0.054564   0.202523   0.000000   0.153280  -0.749215
   37  H  4  X   -0.016058  -0.022061   0.000000  -0.010817  -0.000469
   38  H  4  Y   -0.000000   0.000000   0.003119   0.000000   0.000000
   39  H  4  Z   -0.005544  -0.009433   0.000000   0.003618   0.010895

                     11         12         13         14         15
                    0.1274     0.1274     0.4141     0.4251     0.4251
                     E          E          A1         E          E   
    1  SB 1  S   -0.000000  -0.000000   0.316519   0.000000   0.000000
    2  SB 1  S   -0.000000  -0.000000   0.984955   0.000000   0.000000
    3  SB 1  S   -0.000000  -0.000000  -0.530250   0.000000   0.000000
    4  SB 1  X    0.222380  -0.000000   0.000000  -0.029165   0.000000
    5  SB 1  Y   -0.000000   0.222380   0.000000   0.000000  -0.029165
    6  SB 1  Z   -0.000000  -0.000000   0.044771   0.000000   0.000000
    7  SB 1  X    0.038384  -0.000000   0.000000  -0.042257   0.000000
    8  SB 1  Y   -0.000000   0.038384   0.000000   0.000000  -0.042257
    9  SB 1  Z   -0.000000  -0.000000   0.106801   0.000000   0.000000
   10  SB 1  X    1.333757  -0.000000   0.000000  -0.066257   0.000000
   11  SB 1  Y   -0.000000   1.333757   0.000000   0.000000  -0.066257
   12  SB 1  Z   -0.000000  -0.000000   0.014947   0.000000   0.000000
   13  SB 1 XX    0.098647  -0.000000  -0.168902   0.231828   0.000000
   14  SB 1 YY   -0.098647  -0.000000  -0.168902  -0.231828   0.000000
   15  SB 1 ZZ   -0.000000  -0.000000   0.337804   0.000000   0.000000
   16  SB 1 XY   -0.000000  -0.113908   0.000000   0.000000  -0.267692
   17  SB 1 XZ    0.074845  -0.000000   0.000000  -0.314418   0.000000
   18  SB 1 YZ   -0.000000   0.074845   0.000000   0.000000  -0.314418
   19  SB 1 XX   -0.098556  -0.000000   0.426668  -0.593220   0.000000
   20  SB 1 YY    0.098556  -0.000000   0.426668   0.593220   0.000000
   21  SB 1 ZZ   -0.000000  -0.000000  -0.853336   0.000000   0.000000
   22  SB 1 XY   -0.000000   0.113803   0.000000   0.000000   0.684992
   23  SB 1 XZ   -0.054555  -0.000000   0.000000   0.790517   0.000000
   24  SB 1 YZ   -0.000000  -0.054555   0.000000   0.000000   0.790517
   25  H  2  S    0.097854  -0.169488   0.236186   0.012627  -0.021870
   26  H  2  S    0.442195  -0.765904  -0.347766  -0.053009   0.091814
   27  H  2  X    0.016213   0.001417   0.005835   0.037492   0.030089
   28  H  2  Y    0.001417   0.014577  -0.010106   0.030089   0.002748
   29  H  2  Z    0.001175  -0.002036  -0.038660  -0.025391   0.043978
   30  H  3  S    0.097854   0.169488   0.236186   0.012627   0.021870
   31  H  3  S    0.442195   0.765904  -0.347766  -0.053009  -0.091814
   32  H  3  X    0.016213  -0.001417   0.005835   0.037492  -0.030089
   33  H  3  Y   -0.001417   0.014577   0.010106  -0.030089   0.002748
   34  H  3  Z    0.001175   0.002036  -0.038660  -0.025391  -0.043978
   35  H  4  S   -0.195708  -0.000000   0.236186  -0.025254   0.000000
   36  H  4  S   -0.884390  -0.000000  -0.347766   0.106018   0.000000
   37  H  4  X    0.013759  -0.000000  -0.011670  -0.014624   0.000000
   38  H  4  Y   -0.000000   0.017031   0.000000   0.000000   0.054864
   39  H  4  Z   -0.002350  -0.000000  -0.038660   0.050782   0.000000

                     16         17         18         19         20
                    0.4693     0.4693     0.6361     0.6616     0.8307
                     E          E          A1         A1         A1  
    1  SB 1  S   -0.000000   0.000000   0.059528  -0.683935  -0.474978
    2  SB 1  S   -0.000000   0.000000   0.547426  -2.719963  -2.200304
    3  SB 1  S   -0.000000   0.000000  -0.492036   3.386436   3.305602
    4  SB 1  X   -0.226697   0.000000   0.000000   0.000000   0.000000
    5  SB 1  Y   -0.000000   0.226697   0.000000   0.000000   0.000000
    6  SB 1  Z   -0.000000   0.000000   0.044458   0.407716  -0.602842
    7  SB 1  X   -0.438390   0.000000   0.000000   0.000000   0.000000
    8  SB 1  Y   -0.000000   0.438390   0.000000   0.000000   0.000000
    9  SB 1  Z   -0.000000   0.000000   0.224191   0.868271  -1.518850
   10  SB 1  X   -0.395921   0.000000   0.000000   0.000000   0.000000
   11  SB 1  Y   -0.000000   0.395921   0.000000   0.000000   0.000000
   12  SB 1  Z   -0.000000   0.000000  -0.351918  -0.163745   1.594270
   13  SB 1 XX    0.174062   0.000000   0.112219  -0.050419  -0.046983
   14  SB 1 YY   -0.174062   0.000000   0.112219  -0.050419  -0.046983
   15  SB 1 ZZ   -0.000000   0.000000  -0.224437   0.100838   0.093966
   16  SB 1 XY   -0.000000   0.200990   0.000000   0.000000   0.000000
   17  SB 1 XZ    0.196631   0.000000   0.000000   0.000000   0.000000
   18  SB 1 YZ   -0.000000  -0.196631   0.000000   0.000000   0.000000
   19  SB 1 XX   -0.517932   0.000000  -0.320847   0.166411   0.163338
   20  SB 1 YY    0.517932   0.000000  -0.320847   0.166411   0.163338
   21  SB 1 ZZ   -0.000000   0.000000   0.641694  -0.332821  -0.326677
   22  SB 1 XY   -0.000000  -0.598057   0.000000   0.000000   0.000000
   23  SB 1 XZ   -0.567739   0.000000   0.000000   0.000000   0.000000
   24  SB 1 YZ   -0.000000   0.567739   0.000000   0.000000   0.000000
   25  H  2  S    0.238835   0.413675   0.663228   0.125939   0.251029
   26  H  2  S   -0.681134  -1.179759  -0.371461  -0.785243  -1.065156
   27  H  2  X    0.018053   0.011672   0.021248  -0.003129  -0.033168
   28  H  2  Y   -0.011672  -0.031531  -0.036803   0.005420   0.057449
   29  H  2  Z   -0.001792  -0.003104   0.007568   0.000163   0.027252
   30  H  3  S    0.238835  -0.413675   0.663228   0.125939   0.251029
   31  H  3  S   -0.681134   1.179759  -0.371461  -0.785243  -1.065156
   32  H  3  X    0.018053  -0.011672   0.021248  -0.003129  -0.033168
   33  H  3  Y    0.011672  -0.031531   0.036803  -0.005420  -0.057449
   34  H  3  Z   -0.001792   0.003104   0.007568   0.000163   0.027252
   35  H  4  S   -0.477671   0.000000   0.663228   0.125939   0.251029
   36  H  4  S    1.362268   0.000000  -0.371461  -0.785243  -1.065156
   37  H  4  X    0.038270   0.000000  -0.042497   0.006258   0.066336
   38  H  4  Y   -0.000000  -0.011314   0.000000   0.000000   0.000000
   39  H  4  Z    0.003585   0.000000   0.007568   0.000163   0.027252

                     21         22         23         24         25
                    0.8362     0.8362     0.9426     0.9426     1.4609
                     E          E          E          E          A2  
    1  SB 1  S    0.000000   0.000000  -0.000000  -0.000000   0.000000
    2  SB 1  S    0.000000   0.000000  -0.000000  -0.000000   0.000000
    3  SB 1  S    0.000000   0.000000  -0.000000  -0.000000   0.000000
    4  SB 1  X   -0.621814   0.000000  -0.324443  -0.000000   0.000000
    5  SB 1  Y    0.000000  -0.621814  -0.000000  -0.324443   0.000000
    6  SB 1  Z    0.000000   0.000000  -0.000000  -0.000000   0.000000
    7  SB 1  X   -1.504901   0.000000  -1.057360  -0.000000   0.000000
    8  SB 1  Y    0.000000  -1.504901  -0.000000  -1.057360   0.000000
    9  SB 1  Z    0.000000   0.000000  -0.000000  -0.000000   0.000000
   10  SB 1  X    1.590536   0.000000   1.653152  -0.000000   0.000000
   11  SB 1  Y    0.000000   1.590536  -0.000000   1.653152   0.000000
   12  SB 1  Z    0.000000   0.000000  -0.000000  -0.000000   0.000000
   13  SB 1 XX    0.002734   0.000000  -0.259961  -0.000000   0.000000
   14  SB 1 YY   -0.002734   0.000000   0.259961  -0.000000   0.000000
   15  SB 1 ZZ    0.000000   0.000000  -0.000000  -0.000000   0.000000
   16  SB 1 XY    0.000000  -0.003157  -0.000000   0.300178   0.000000
   17  SB 1 XZ    0.010735   0.000000  -0.238476  -0.000000   0.000000
   18  SB 1 YZ    0.000000   0.010735  -0.000000  -0.238476   0.000000
   19  SB 1 XX    0.055032   0.000000   0.857243  -0.000000   0.000000
   20  SB 1 YY   -0.055032   0.000000  -0.857243  -0.000000   0.000000
   21  SB 1 ZZ    0.000000   0.000000  -0.000000  -0.000000   0.000000
   22  SB 1 XY    0.000000  -0.063546  -0.000000  -0.989859   0.000000
   23  SB 1 XZ    0.032679   0.000000   0.789865  -0.000000   0.000000
   24  SB 1 YZ    0.000000   0.032679  -0.000000   0.789865   0.000000
   25  H  2  S   -0.344277   0.596306   0.392061  -0.679069   0.000000
   26  H  2  S    0.632976  -1.096347   0.246908  -0.427657   0.000000
   27  H  2  X    0.043488  -0.046448  -0.008495  -0.020337  -0.500055
   28  H  2  Y   -0.046448   0.097121  -0.020337   0.014988  -0.288707
   29  H  2  Z   -0.019747   0.034203  -0.011334   0.019631   0.000000
   30  H  3  S   -0.344277  -0.596306   0.392061   0.679069   0.000000
   31  H  3  S    0.632976   1.096347   0.246908   0.427657   0.000000
   32  H  3  X    0.043488   0.046448  -0.008495   0.020337   0.500055
   33  H  3  Y    0.046448   0.097121   0.020337   0.014988  -0.288707
   34  H  3  Z   -0.019747  -0.034203  -0.011334  -0.019631   0.000000
   35  H  4  S    0.688555   0.000000  -0.784122  -0.000000   0.000000
   36  H  4  S   -1.265953   0.000000  -0.493816  -0.000000   0.000000
   37  H  4  X    0.123938   0.000000   0.026729  -0.000000   0.000000
   38  H  4  Y    0.000000   0.016671  -0.000000  -0.020237   0.577414
   39  H  4  Z    0.039494   0.000000   0.022668  -0.000000   0.000000

                     26         27         28         29         30
                    1.5248     1.5248     1.6474     1.7075     1.7075
                     E          E          A1         E          E   
    1  SB 1  S    0.000000  -0.000000   0.042699   0.000000   0.000000
    2  SB 1  S    0.000000  -0.000000   0.155879   0.000000   0.000000
    3  SB 1  S    0.000000  -0.000000  -0.202616   0.000000   0.000000
    4  SB 1  X   -0.028348  -0.000000   0.000000   0.029243   0.000000
    5  SB 1  Y    0.000000   0.028348   0.000000   0.000000   0.029243
    6  SB 1  Z    0.000000  -0.000000   0.021782   0.000000   0.000000
    7  SB 1  X   -0.132832  -0.000000   0.000000   0.123785   0.000000
    8  SB 1  Y    0.000000   0.132832   0.000000   0.000000   0.123785
    9  SB 1  Z    0.000000  -0.000000   0.151726   0.000000   0.000000
   10  SB 1  X    0.270111  -0.000000   0.000000  -0.226155   0.000000
   11  SB 1  Y    0.000000  -0.270111   0.000000   0.000000  -0.226155
   12  SB 1  Z    0.000000  -0.000000  -0.347536   0.000000   0.000000
   13  SB 1 XX    0.010728  -0.000000  -0.048293  -0.097507   0.000000
   14  SB 1 YY   -0.010728  -0.000000  -0.048293   0.097507   0.000000
   15  SB 1 ZZ    0.000000  -0.000000   0.096585   0.000000   0.000000
   16  SB 1 XY    0.000000   0.012387   0.000000   0.000000   0.112592
   17  SB 1 XZ    0.051315  -0.000000   0.000000   0.084348   0.000000
   18  SB 1 YZ    0.000000  -0.051315   0.000000   0.000000   0.084348
   19  SB 1 XX   -0.041237  -0.000000   0.167038   0.341081   0.000000
   20  SB 1 YY    0.041237  -0.000000   0.167038  -0.341081   0.000000
   21  SB 1 ZZ    0.000000  -0.000000  -0.334076   0.000000   0.000000
   22  SB 1 XY    0.000000  -0.047616   0.000000   0.000000  -0.393847
   23  SB 1 XZ   -0.176773  -0.000000   0.000000  -0.278500   0.000000
   24  SB 1 YZ    0.000000   0.176773   0.000000   0.000000  -0.278500
   25  H  2  S   -0.021158  -0.036646  -0.024986   0.017396  -0.030132
   26  H  2  S    0.049078   0.085005   0.070194  -0.035706   0.061845
   27  H  2  X   -0.375352   0.048302   0.096875   0.542081   0.381168
   28  H  2  Y   -0.048302   0.319577  -0.167792   0.381168   0.101946
   29  H  2  Z   -0.332987  -0.576750   0.576297  -0.202641   0.350985
   30  H  3  S   -0.021158   0.036646  -0.024986   0.017396   0.030132
   31  H  3  S    0.049078  -0.085005   0.070194  -0.035706  -0.061845
   32  H  3  X   -0.375352  -0.048302   0.096875   0.542081  -0.381168
   33  H  3  Y    0.048302   0.319577   0.167792  -0.381168   0.101946
   34  H  3  Z   -0.332987   0.576750   0.576297  -0.202641  -0.350985
   35  H  4  S    0.042315  -0.000000  -0.024986  -0.034793   0.000000
   36  H  4  S   -0.098155  -0.000000   0.070194   0.071412   0.000000
   37  H  4  X   -0.291690  -0.000000  -0.193750  -0.118121   0.000000
   38  H  4  Y    0.000000   0.403239   0.000000   0.000000   0.762149
   39  H  4  Z    0.665974  -0.000000   0.576297   0.405283   0.000000

                     31         32         33         34         35
                    1.8298     2.0297     2.0297     6.1974     6.1974
                     A1         E          E          E          E   
    1  SB 1  S    0.208387   0.000000   0.000000  -0.000000  -0.000000
    2  SB 1  S   -0.132738   0.000000   0.000000  -0.000000  -0.000000
    3  SB 1  S    1.283124   0.000000   0.000000  -0.000000  -0.000000
    4  SB 1  X   -0.000000   0.223485   0.000000   0.994415  -0.000000
    5  SB 1  Y   -0.000000   0.000000   0.223485  -0.000000   0.994415
    6  SB 1  Z    0.141252   0.000000   0.000000  -0.000000  -0.000000
    7  SB 1  X   -0.000000   0.261378   0.000000  -0.014923  -0.000000
    8  SB 1  Y   -0.000000   0.000000   0.261378  -0.000000  -0.014923
    9  SB 1  Z    0.233597   0.000000   0.000000  -0.000000  -0.000000
   10  SB 1  X   -0.000000   1.030701   0.000000   0.018216  -0.000000
   11  SB 1  Y   -0.000000   0.000000   1.030701  -0.000000   0.018216
   12  SB 1  Z    0.339295   0.000000   0.000000  -0.000000  -0.000000
   13  SB 1 XX   -0.012923  -0.098033   0.000000  -0.000842  -0.000000
   14  SB 1 YY   -0.012923   0.098033   0.000000   0.000842  -0.000000
   15  SB 1 ZZ    0.025847   0.000000   0.000000  -0.000000  -0.000000
   16  SB 1 XY   -0.000000   0.000000   0.113199  -0.000000   0.000972
   17  SB 1 XZ   -0.000000  -0.096934   0.000000   0.001869  -0.000000
   18  SB 1 YZ   -0.000000   0.000000  -0.096934  -0.000000   0.001869
   19  SB 1 XX    0.126148   0.623160   0.000000   0.003684  -0.000000
   20  SB 1 YY    0.126148  -0.623160   0.000000  -0.003684  -0.000000
   21  SB 1 ZZ   -0.252296   0.000000   0.000000  -0.000000  -0.000000
   22  SB 1 XY   -0.000000   0.000000  -0.719564  -0.000000  -0.004254
   23  SB 1 XZ   -0.000000   0.594093   0.000000   0.003164  -0.000000
   24  SB 1 YZ   -0.000000   0.000000   0.594093  -0.000000   0.003164
   25  H  2  S    0.057851   0.084813  -0.146900   0.000785  -0.001359
   26  H  2  S   -0.544624   0.483038  -0.836646   0.004556  -0.007891
   27  H  2  X   -0.316367   0.197099  -0.439102  -0.000778  -0.001023
   28  H  2  Y    0.547964  -0.439102   0.704131  -0.001023   0.000404
   29  H  2  Z    0.214153  -0.194056   0.336116  -0.000433   0.000751
   30  H  3  S    0.057851   0.084813   0.146900   0.000785   0.001359
   31  H  3  S   -0.544624   0.483038   0.836646   0.004556   0.007891
   32  H  3  X   -0.316367   0.197099   0.439102  -0.000778   0.001023
   33  H  3  Y   -0.547964   0.439102   0.704131   0.001023   0.000404
   34  H  3  Z    0.214153  -0.194056  -0.336116  -0.000433  -0.000751
   35  H  4  S    0.057851  -0.169625   0.000000  -0.001569  -0.000000
   36  H  4  S   -0.544624  -0.966076   0.000000  -0.009111  -0.000000
   37  H  4  X    0.632735   0.957647   0.000000   0.000994  -0.000000
   38  H  4  Y   -0.000000   0.000000  -0.056417  -0.000000  -0.001369
   39  H  4  Z    0.214153   0.388113   0.000000   0.000867  -0.000000

                     36         37
                    6.2030    12.5703
                     A1         A1  
    1  SB 1  S    0.003026   0.944648
    2  SB 1  S   -0.005073  -0.227356
    3  SB 1  S    0.011323   0.275927
    4  SB 1  X    0.000000   0.000000
    5  SB 1  Y    0.000000   0.000000
    6  SB 1  Z    0.994207  -0.007694
    7  SB 1  X    0.000000   0.000000
    8  SB 1  Y    0.000000   0.000000
    9  SB 1  Z   -0.013669  -0.019217
   10  SB 1  X    0.000000   0.000000
   11  SB 1  Y    0.000000   0.000000
   12  SB 1  Z    0.010927   0.049210
   13  SB 1 XX   -0.001687  -0.001847
   14  SB 1 YY   -0.001687  -0.001847
   15  SB 1 ZZ    0.003374   0.003693
   16  SB 1 XY    0.000000   0.000000
   17  SB 1 XZ    0.000000   0.000000
   18  SB 1 YZ    0.000000   0.000000
   19  SB 1 XX    0.000752   0.007933
   20  SB 1 YY    0.000752   0.007933
   21  SB 1 ZZ   -0.001505  -0.015866
   22  SB 1 XY    0.000000   0.000000
   23  SB 1 XZ    0.000000   0.000000
   24  SB 1 YZ    0.000000   0.000000
   25  H  2  S   -0.000150   0.003586
   26  H  2  S   -0.004002  -0.057022
   27  H  2  X   -0.000255  -0.000328
   28  H  2  Y    0.000442   0.000568
   29  H  2  Z   -0.000935  -0.001276
   30  H  3  S   -0.000150   0.003586
   31  H  3  S   -0.004002  -0.057022
   32  H  3  X   -0.000255  -0.000328
   33  H  3  Y   -0.000442  -0.000568
   34  H  3  Z   -0.000935  -0.001276
   35  H  4  S   -0.000150   0.003586
   36  H  4  S   -0.004002  -0.057022
   37  H  4  X    0.000511   0.000656
   38  H  4  Y    0.000000   0.000000
   39  H  4  Z   -0.000935  -0.001276
 ...... END OF RHF CALCULATION ......
 STEP CPU TIME =     0.02 TOTAL CPU TIME =        0.1 (    0.0 MIN)
 TOTAL WALL CLOCK TIME=        0.1 SECONDS, CPU UTILIZATION IS  90.00%

     ----------------------------------------------------------------
     PROPERTY VALUES FOR THE RHF   SELF-CONSISTENT FIELD WAVEFUNCTION
     ----------------------------------------------------------------

          -----------------
          ENERGY COMPONENTS
          -----------------

         WAVEFUNCTION NORMALIZATION =       1.0000000000

                ONE ELECTRON ENERGY =    -174.3905264604
                TWO ELECTRON ENERGY =      77.0212625601
           NUCLEAR REPULSION ENERGY =      13.7773183227
                                      ------------------
                       TOTAL ENERGY =     -83.5919455777

 ELECTRON-ELECTRON POTENTIAL ENERGY =      77.0212625601
  NUCLEUS-ELECTRON POTENTIAL ENERGY =    -324.8543714329
   NUCLEUS-NUCLEUS POTENTIAL ENERGY =      13.7773183227
                                      ------------------
             TOTAL POTENTIAL ENERGY =    -234.0557905501
               TOTAL KINETIC ENERGY =     150.4638449725
                 VIRIAL RATIO (V/T) =       1.5555616739

          ---------------------------------------
          MULLIKEN AND LOWDIN POPULATION ANALYSES
          ---------------------------------------

     ATOMIC MULLIKEN POPULATION IN EACH MOLECULAR ORBITAL

                      1          2          3          4          5

                  2.000000   2.000000   2.000000   2.000000   2.000000

    1             1.995415   1.995415   1.998944   1.998944   1.998711
    2             0.000793   0.002264   0.000194   0.000510   0.000430
    3             0.000793   0.002264   0.000194   0.000510   0.000430
    4             0.002999   0.000058   0.000668   0.000036   0.000430

                      6          7          8          9

                  2.000000   2.000000   2.000000   2.000000

    1             1.471762   0.884192   0.884192   1.622638
    2             0.176079   0.186137   0.557735   0.125787
    3             0.176079   0.186137   0.557735   0.125787
    4             0.176079   0.743535   0.000338   0.125787

               ----- POPULATIONS IN EACH AO -----
                             MULLIKEN      LOWDIN
              1  SB 1  S     -0.00011     0.12984
              2  SB 1  S      0.84929     0.41564
              3  SB 1  S      0.85312     0.39729
              4  SB 1  X      0.00077     0.03778
              5  SB 1  Y      0.00077     0.03783
              6  SB 1  Z      0.00105     0.05830
              7  SB 1  X      0.22468     0.18286
              8  SB 1  Y      0.22468     0.18309
              9  SB 1  Z      0.29785     0.29858
             10  SB 1  X      0.57986     0.54922
             11  SB 1  Y      0.57986     0.55249
             12  SB 1  Z      1.09089     1.04080
             13  SB 1 XX      1.99818     1.28232
             14  SB 1 YY      1.99860     1.28232
             15  SB 1 ZZ      1.99860     1.28400
             16  SB 1 XY      1.99878     1.91846
             17  SB 1 XZ      1.99878     1.91949
             18  SB 1 YZ      0.00000     1.91949
             19  SB 1 XX      0.00284     0.31445
             20  SB 1 YY      0.04071     0.31445
             21  SB 1 ZZ      0.04071     0.28020
             22  SB 1 XY      0.03514     0.12797
             23  SB 1 XZ      0.03514     0.11647
             24  SB 1 YZ      0.00000     0.11686
             25  H  2  S      0.65162     0.58289
             26  H  2  S      0.38509     0.46901
             27  H  2  X      0.00290     0.00535
             28  H  2  Y      0.00782     0.01327
             29  H  2  Z      0.00249     0.00730
             30  H  3  S      0.65162     0.58289
             31  H  3  S      0.38509     0.46901
             32  H  3  X      0.00290     0.00535
             33  H  3  Y      0.00782     0.01327
             34  H  3  Z      0.00249     0.00730
             35  H  4  S      0.65162     0.58601
             36  H  4  S      0.38509     0.47153
             37  H  4  X      0.01029     0.01783
             38  H  4  Y      0.00043     0.00130
             39  H  4  Z      0.00249     0.00746

          ----- MULLIKEN ATOMIC OVERLAP POPULATIONS -----
          (OFF-DIAGONAL ELEMENTS NEED TO BE MULTIPLIED BY 2)

             1           2           3           4

    1   13.9235632
    2    0.3088832   0.7386791
    3    0.3088832   0.0011834   0.7386791
    4    0.3088832   0.0011834   0.0011834   0.7386791

          TOTAL MULLIKEN AND LOWDIN ATOMIC POPULATIONS
       ATOM         MULL.POP.    CHARGE          LOW.POP.     CHARGE
    1 SB           14.850213    0.149787        14.760215    0.239785
    2 H             1.049929   -0.049929         1.077825   -0.077825
    3 H             1.049929   -0.049929         1.077825   -0.077825
    4 H             1.049929   -0.049929         1.084134   -0.084134

          MULLIKEN SPHERICAL HARMONIC POPULATIONS
       ATOM           S       P       D      F      G      H      I    TOTAL
    1 SB            1.70    3.00   10.15   0.00   0.00   0.00   0.00   14.85
    2 H             1.04    0.01    0.00   0.00   0.00   0.00   0.00    1.05
    3 H             1.04    0.01    0.00   0.00   0.00   0.00   0.00    1.05
    4 H             1.04    0.01    0.00   0.00   0.00   0.00   0.00    1.05

          -------------------------------
          BOND ORDER AND VALENCE ANALYSIS     BOND ORDER THRESHOLD=0.050
          -------------------------------

                   BOND                       BOND                       BOND
  ATOM PAIR DIST  ORDER      ATOM PAIR DIST  ORDER      ATOM PAIR DIST  ORDER
    1   2  1.800  0.969        1   3  1.800  0.969        1   4  1.800  0.969

                       TOTAL       BONDED        FREE
      ATOM            VALENCE     VALENCE     VALENCE
    1 SB                2.907       2.907      -0.000
    2 H                 0.979       0.979      -0.000
    3 H                 0.979       0.979      -0.000
    4 H                 0.979       0.979      -0.000

          ---------------------
          ELECTROSTATIC MOMENTS
          ---------------------

 POINT   1           X           Y           Z (BOHR)    CHARGE
                -0.000000    0.000000    0.030630       -0.00 (A.U.)
         DX          DY          DZ         /D/  (DEBYE)
     0.000000   -0.000000    0.484477    0.484477
 ...... END OF PROPERTY EVALUATION ......
 STEP CPU TIME =     0.00 TOTAL CPU TIME =        0.1 (    0.0 MIN)
 TOTAL WALL CLOCK TIME=        0.1 SECONDS, CPU UTILIZATION IS  90.00%

 BEGINNING ONE ELECTRON GRADIENT...
 TIME TO DO ORDINARY GRADIENT INTEGRALS=      0.00
 TIME TO DO      MCP GRADIENT INTEGRALS=      0.11
 ..... END OF 1-ELECTRON GRADIENT ......
 STEP CPU TIME =     0.11 TOTAL CPU TIME =        0.2 (    0.0 MIN)
 TOTAL WALL CLOCK TIME=        0.2 SECONDS, CPU UTILIZATION IS  95.24%

          ----------------------
          GRADIENT OF THE ENERGY
          ----------------------

 THE MINIMUM MEMORY REQUIRED FOR THIS RUN IS      80450 WORDS.
 USING    1055970 WORDS FOR 2E- DERIVATIVE INTEGRAL CONTRIBUTIONS.
 THE COARSE/FINE SCHWARZ SCREENINGS SKIPPED            0/           0 BLOCKS.
 THE NUMBER OF GRADIENT INTEGRAL BLOCKS COMPUTED WAS      2727
 ...... END OF 2-ELECTRON GRADIENT ......
 STEP CPU TIME =     0.06 TOTAL CPU TIME =        0.3 (    0.0 MIN)
 TOTAL WALL CLOCK TIME=        0.3 SECONDS, CPU UTILIZATION IS  96.30%

          NSERCH=  0     ENERGY=     -83.5919456

                                 -----------------------
                                 GRADIENT (HARTREE/BOHR)
                                 -----------------------
        ATOM     ZNUC       DE/DX         DE/DY         DE/DZ
 --------------------------------------------------------------
    1  SB          51.0     0.0000000     0.0000000     0.0146896
    2  H            1.0    -0.0164464     0.0284860    -0.0048965
    3  H            1.0    -0.0164464    -0.0284860    -0.0048965
    4  H            1.0     0.0328928     0.0000000    -0.0048965

          MAXIMUM GRADIENT = 0.0328928    RMS GRADIENT = 0.0171598

 NSERCH:   0  E=      -83.5919455777  GRAD. MAX=  0.0328928  R.M.S.=  0.0171598

          FORCE CONSTANT MATRIX NOT UPDATED --- TAKING FIRST STEP
          MIN SEARCH, CORRECT HESSIAN, TRYING PURE NR STEP
               NR STEP HAS LENGTH         =  10.228300
          TRIM/QA LAMBDA FOR NON-TS MODES =  -0.15921554
          TRIM/QA STEP HAS LENGTH         =   0.300000
          RADIUS OF STEP TAKEN=   0.30000  CURRENT TRUST RADIUS=   0.30000

 BEGINNING GEOMETRY SEARCH POINT NSERCH=   1 ...

 COORDINATES OF SYMMETRY UNIQUE ATOMS (ANGS)
   ATOM   CHARGE       X              Y              Z
 ------------------------------------------------------------
 SB         51.0  -0.0000000000   0.0000000000  -0.0903442377
 H           1.0   1.6038140379   0.0000000000   0.6944911645
 COORDINATES OF ALL ATOMS ARE (ANGS)
   ATOM   CHARGE       X              Y              Z
 ------------------------------------------------------------
 SB         51.0  -0.0000000000   0.0000000000  -0.0903442377
 H           1.0  -0.8019070190   1.3889436998   0.6944911645
 H           1.0  -0.8019070190  -1.3889436998   0.6944911645
 H           1.0   1.6038140379   0.0000000000   0.6944911645

          INTERNUCLEAR DISTANCES (ANGS.)
          ------------------------------

                1 SB         2 H          3 H          4 H     

   1 SB      0.0000000    1.7855492 *  1.7855492 *  1.7855492 *
   2 H       1.7855492 *  0.0000000    2.7778874 *  2.7778874 *
   3 H       1.7855492 *  2.7778874 *  0.0000000    2.7778874 *
   4 H       1.7855492 *  2.7778874 *  2.7778874 *  0.0000000  

  * ... LESS THAN  3.000

 ...... END OF ONE-ELECTRON INTEGRALS ......
 STEP CPU TIME =     0.00 TOTAL CPU TIME =        0.3 (    0.0 MIN)
 TOTAL WALL CLOCK TIME=        0.3 SECONDS, CPU UTILIZATION IS  96.30%
 TOTAL NUMBER OF NONZERO TWO-ELECTRON INTEGRALS =               53761
          4 INTEGRAL RECORDS WERE STORED ON DISK FILE  8.
  ...... END OF TWO-ELECTRON INTEGRALS .....
 STEP CPU TIME =     0.02 TOTAL CPU TIME =        0.3 (    0.0 MIN)
 TOTAL WALL CLOCK TIME=        0.3 SECONDS, CPU UTILIZATION IS  96.55%

          --------------------------
                 RHF SCF CALCULATION
          --------------------------
     DENSITY MATRIX CONV=  5.00E-05

 ITER EX DEM     TOTAL ENERGY        E CHANGE  DENSITY CHANGE    DIIS ERROR
          * * *   INITIATING DIIS PROCEDURE   * * *
   1  0  0      -83.6040201485   -83.6040201485   0.025898597   0.038193176
   2  1  0      -83.6049649474    -0.0009447989   0.007871467   0.002410365
   3  2  0      -83.6050011994    -0.0000362520   0.002817609   0.000475830
   4  3  0      -83.6050036629    -0.0000024635   0.000774554   0.000126279
   5  4  0      -83.6050038849    -0.0000002220   0.000318150   0.000040282
   6  5  0      -83.6050039093    -0.0000000244   0.000036744   0.000008088
   7  6  0      -83.6050039098    -0.0000000005   0.000007416   0.000001515

          -----------------
          DENSITY CONVERGED
          -----------------
     TIME TO FORM FOCK OPERATORS=       0.0 SECONDS (       0.0 SEC/ITER)
     TIME TO SOLVE SCF EQUATIONS=       0.0 SECONDS (       0.0 SEC/ITER)

 FINAL RHF ENERGY IS      -83.6050039098 AFTER   7 ITERATIONS
 ...... END OF RHF CALCULATION ......
 STEP CPU TIME =     0.00 TOTAL CPU TIME =        0.3 (    0.0 MIN)
 TOTAL WALL CLOCK TIME=        0.3 SECONDS, CPU UTILIZATION IS  93.33%
 TIME TO DO      MCP GRADIENT INTEGRALS=      0.10
 ..... END OF 1-ELECTRON GRADIENT ......
 STEP CPU TIME =     0.11 TOTAL CPU TIME =        0.4 (    0.0 MIN)
 TOTAL WALL CLOCK TIME=        0.4 SECONDS, CPU UTILIZATION IS  95.12%
 ...... END OF 2-ELECTRON GRADIENT ......
 STEP CPU TIME =     0.06 TOTAL CPU TIME =        0.4 (    0.0 MIN)
 TOTAL WALL CLOCK TIME=        0.5 SECONDS, CPU UTILIZATION IS  97.83%

          NSERCH=  1     ENERGY=     -83.6050039

                                 -----------------------
                                 GRADIENT (HARTREE/BOHR)
                                 -----------------------
        ATOM     ZNUC       DE/DX         DE/DY         DE/DZ
 --------------------------------------------------------------
    1  SB          51.0     0.0000000     0.0000000    -0.0039096
    2  H            1.0    -0.0136891     0.0237103     0.0013032
    3  H            1.0    -0.0136891    -0.0237103     0.0013032
    4  H            1.0     0.0273783     0.0000000     0.0013032

          MAXIMUM GRADIENT = 0.0273783    RMS GRADIENT = 0.0137510

 NSERCH:   1  E=      -83.6050039098  GRAD. MAX=  0.0273783  R.M.S.=  0.0137510

          HESSIAN UPDATED USING THE BFGS FORMULA
             ACTUAL ENERGY CHANGE WAS  -0.0130583321
          PREDICTED ENERGY CHANGE WAS  -0.0152783041 RATIO=  0.855
          MIN SEARCH, CORRECT HESSIAN, TRYING PURE NR STEP
               NR STEP HAS LENGTH         =   0.868553
          TRIM/QA LAMBDA FOR NON-TS MODES =  -0.05614372
          TRIM/QA STEP HAS LENGTH         =   0.424264
          RADIUS OF STEP TAKEN=   0.42426  CURRENT TRUST RADIUS=   0.42426

 BEGINNING GEOMETRY SEARCH POINT NSERCH=   2 ...

 COORDINATES OF SYMMETRY UNIQUE ATOMS (ANGS)
   ATOM   CHARGE       X              Y              Z
 ------------------------------------------------------------
 SB         51.0  -0.0000000000  -0.0000000000  -0.0959571660
 H           1.0   1.4742466367   0.0000000000   0.6963621406
 COORDINATES OF ALL ATOMS ARE (ANGS)
   ATOM   CHARGE       X              Y              Z
 ------------------------------------------------------------
 SB         51.0  -0.0000000000  -0.0000000000  -0.0959571660
 H           1.0  -0.7371233184   1.2767350388   0.6963621406
 H           1.0  -0.7371233184  -1.2767350388   0.6963621406
 H           1.0   1.4742466367   0.0000000000   0.6963621406

          INTERNUCLEAR DISTANCES (ANGS.)
          ------------------------------

                1 SB         2 H          3 H          4 H     

   1 SB      0.0000000    1.6736705 *  1.6736705 *  1.6736705 *
   2 H       1.6736705 *  0.0000000    2.5534701 *  2.5534701 *
   3 H       1.6736705 *  2.5534701 *  0.0000000    2.5534701 *
   4 H       1.6736705 *  2.5534701 *  2.5534701 *  0.0000000  

  * ... LESS THAN  3.000

 ...... END OF ONE-ELECTRON INTEGRALS ......
 STEP CPU TIME =     0.00 TOTAL CPU TIME =        0.4 (    0.0 MIN)
 TOTAL WALL CLOCK TIME=        0.5 SECONDS, CPU UTILIZATION IS  97.83%
 TOTAL NUMBER OF NONZERO TWO-ELECTRON INTEGRALS =               53770
          4 INTEGRAL RECORDS WERE STORED ON DISK FILE  8.
  ...... END OF TWO-ELECTRON INTEGRALS .....
 STEP CPU TIME =     0.02 TOTAL CPU TIME =        0.5 (    0.0 MIN)
 TOTAL WALL CLOCK TIME=        0.5 SECONDS, CPU UTILIZATION IS  97.92%

          --------------------------
                 RHF SCF CALCULATION
          --------------------------
     DENSITY MATRIX CONV=  5.00E-05

 ITER EX DEM     TOTAL ENERGY        E CHANGE  DENSITY CHANGE    DIIS ERROR
          * * *   INITIATING DIIS PROCEDURE   * * *
   1  0  0      -83.6056807739   -83.6056807739   0.030730433   0.180390420
   2  1  0      -83.6154417403    -0.0097609664   0.012816723   0.010275697
   3  2  0      -83.6155963274    -0.0001545871   0.003799844   0.001072907
   4  3  0      -83.6156087414    -0.0000124140   0.002134538   0.000487236
   5  4  0      -83.6156102737    -0.0000015323   0.000804333   0.000088628
   6  5  0      -83.6156103739    -0.0000001002   0.000079714   0.000011411
   7  6  0      -83.6156103753    -0.0000000014   0.000030417   0.000002509
   8  7  0      -83.6156103754    -0.0000000001   0.000002499   0.000000491

          -----------------
          DENSITY CONVERGED
          -----------------
     TIME TO FORM FOCK OPERATORS=       0.0 SECONDS (       0.0 SEC/ITER)
     TIME TO SOLVE SCF EQUATIONS=       0.0 SECONDS (       0.0 SEC/ITER)

 FINAL RHF ENERGY IS      -83.6156103754 AFTER   8 ITERATIONS
 ...... END OF RHF CALCULATION ......
 STEP CPU TIME =     0.01 TOTAL CPU TIME =        0.5 (    0.0 MIN)
 TOTAL WALL CLOCK TIME=        0.5 SECONDS, CPU UTILIZATION IS  97.96%
 TIME TO DO      MCP GRADIENT INTEGRALS=      0.11
 ..... END OF 1-ELECTRON GRADIENT ......
 STEP CPU TIME =     0.11 TOTAL CPU TIME =        0.6 (    0.0 MIN)
 TOTAL WALL CLOCK TIME=        0.6 SECONDS, CPU UTILIZATION IS  98.33%
 ...... END OF 2-ELECTRON GRADIENT ......
 STEP CPU TIME =     0.06 TOTAL CPU TIME =        0.6 (    0.0 MIN)
 TOTAL WALL CLOCK TIME=        0.7 SECONDS, CPU UTILIZATION IS  98.48%

          NSERCH=  2     ENERGY=     -83.6156104

                                 -----------------------
                                 GRADIENT (HARTREE/BOHR)
                                 -----------------------
        ATOM     ZNUC       DE/DX         DE/DY         DE/DZ
 --------------------------------------------------------------
    1  SB          51.0     0.0000000     0.0000000     0.0260633
    2  H            1.0     0.0004894    -0.0008477    -0.0086878
    3  H            1.0     0.0004894     0.0008477    -0.0086878
    4  H            1.0    -0.0009788     0.0000000    -0.0086878

          MAXIMUM GRADIENT = 0.0260633    RMS GRADIENT = 0.0087015

 NSERCH:   2  E=      -83.6156103754  GRAD. MAX=  0.0260633  R.M.S.=  0.0087015

          HESSIAN UPDATED USING THE BFGS FORMULA
             ACTUAL ENERGY CHANGE WAS  -0.0106064656
          PREDICTED ENERGY CHANGE WAS  -0.0150805136 RATIO=  0.703
          MIN SEARCH, CORRECT HESSIAN, TRYING PURE NR STEP
               NR STEP HAS LENGTH         =   0.291571
          RADIUS OF STEP TAKEN=   0.29157  CURRENT TRUST RADIUS=   0.42426

 BEGINNING GEOMETRY SEARCH POINT NSERCH=   3 ...

 COORDINATES OF SYMMETRY UNIQUE ATOMS (ANGS)
   ATOM   CHARGE       X              Y              Z
 ------------------------------------------------------------
 SB         51.0  -0.0000000000   0.0000000000  -0.2067024240
 H           1.0   1.4244014496   0.0000000000   0.7332772266
 COORDINATES OF ALL ATOMS ARE (ANGS)
   ATOM   CHARGE       X              Y              Z
 ------------------------------------------------------------
 SB         51.0  -0.0000000000   0.0000000000  -0.2067024240
 H           1.0  -0.7122007248   1.2335678406   0.7332772266
 H           1.0  -0.7122007248  -1.2335678406   0.7332772266
 H           1.0   1.4244014496   0.0000000000   0.7332772266

          INTERNUCLEAR DISTANCES (ANGS.)
          ------------------------------

                1 SB         2 H          3 H          4 H     

   1 SB      0.0000000    1.7065993 *  1.7065993 *  1.7065993 *
   2 H       1.7065993 *  0.0000000    2.4671357 *  2.4671357 *
   3 H       1.7065993 *  2.4671357 *  0.0000000    2.4671357 *
   4 H       1.7065993 *  2.4671357 *  2.4671357 *  0.0000000  

  * ... LESS THAN  3.000

 ...... END OF ONE-ELECTRON INTEGRALS ......
 STEP CPU TIME =     0.00 TOTAL CPU TIME =        0.6 (    0.0 MIN)
 TOTAL WALL CLOCK TIME=        0.7 SECONDS, CPU UTILIZATION IS  98.48%
 TOTAL NUMBER OF NONZERO TWO-ELECTRON INTEGRALS =               53770
          4 INTEGRAL RECORDS WERE STORED ON DISK FILE  8.
  ...... END OF TWO-ELECTRON INTEGRALS .....
 STEP CPU TIME =     0.02 TOTAL CPU TIME =        0.7 (    0.0 MIN)
 TOTAL WALL CLOCK TIME=        0.7 SECONDS, CPU UTILIZATION IS  98.53%

          --------------------------
                 RHF SCF CALCULATION
          --------------------------
     DENSITY MATRIX CONV=  5.00E-05

 ITER EX DEM     TOTAL ENERGY        E CHANGE  DENSITY CHANGE    DIIS ERROR
          * * *   INITIATING DIIS PROCEDURE   * * *
   1  0  0      -83.6158543819   -83.6158543819   0.022656105   0.064125366
   2  1  0      -83.6183402648    -0.0024858829   0.008096964   0.003900962
   3  2  0      -83.6184180610    -0.0000777962   0.003166176   0.000889065
   4  3  0      -83.6184229689    -0.0000049080   0.001197889   0.000231667
   5  4  0      -83.6184233898    -0.0000004209   0.000320083   0.000046744
   6  5  0      -83.6184234096    -0.0000000198   0.000034011   0.000007585
   7  6  0      -83.6184234100    -0.0000000004   0.000003994   0.000001135

          -----------------
          DENSITY CONVERGED
          -----------------
     TIME TO FORM FOCK OPERATORS=       0.0 SECONDS (       0.0 SEC/ITER)
     TIME TO SOLVE SCF EQUATIONS=       0.0 SECONDS (       0.0 SEC/ITER)

 FINAL RHF ENERGY IS      -83.6184234100 AFTER   7 ITERATIONS
 ...... END OF RHF CALCULATION ......
 STEP CPU TIME =     0.01 TOTAL CPU TIME =        0.7 (    0.0 MIN)
 TOTAL WALL CLOCK TIME=        0.7 SECONDS, CPU UTILIZATION IS  98.55%
 TIME TO DO      MCP GRADIENT INTEGRALS=      0.11
 ..... END OF 1-ELECTRON GRADIENT ......
 STEP CPU TIME =     0.11 TOTAL CPU TIME =        0.8 (    0.0 MIN)
 TOTAL WALL CLOCK TIME=        0.8 SECONDS, CPU UTILIZATION IS  98.75%
 ...... END OF 2-ELECTRON GRADIENT ......
 STEP CPU TIME =     0.05 TOTAL CPU TIME =        0.8 (    0.0 MIN)
 TOTAL WALL CLOCK TIME=        0.9 SECONDS, CPU UTILIZATION IS  97.67%

          NSERCH=  3     ENERGY=     -83.6184234

                                 -----------------------
                                 GRADIENT (HARTREE/BOHR)
                                 -----------------------
        ATOM     ZNUC       DE/DX         DE/DY         DE/DZ
 --------------------------------------------------------------
    1  SB          51.0     0.0000000     0.0000000    -0.0084499
    2  H            1.0    -0.0012487     0.0021628     0.0028166
    3  H            1.0    -0.0012487    -0.0021628     0.0028166
    4  H            1.0     0.0024973     0.0000000     0.0028166

          MAXIMUM GRADIENT = 0.0084499    RMS GRADIENT = 0.0030810

 NSERCH:   3  E=      -83.6184234100  GRAD. MAX=  0.0084499  R.M.S.=  0.0030810

          HESSIAN UPDATED USING THE BFGS FORMULA
             ACTUAL ENERGY CHANGE WAS  -0.0028130346
          PREDICTED ENERGY CHANGE WAS  -0.0034980188 RATIO=  0.804
          MIN SEARCH, CORRECT HESSIAN, TRYING PURE NR STEP
               NR STEP HAS LENGTH         =   0.041652
          RADIUS OF STEP TAKEN=   0.04165  CURRENT TRUST RADIUS=   0.41234

 BEGINNING GEOMETRY SEARCH POINT NSERCH=   4 ...

 COORDINATES OF SYMMETRY UNIQUE ATOMS (ANGS)
   ATOM   CHARGE       X              Y              Z
 ------------------------------------------------------------
 SB         51.0  -0.0000000000   0.0000000000  -0.1876218614
 H           1.0   1.4247621048   0.0000000000   0.7269170390
 COORDINATES OF ALL ATOMS ARE (ANGS)
   ATOM   CHARGE       X              Y              Z
 ------------------------------------------------------------
 SB         51.0  -0.0000000000   0.0000000000  -0.1876218614
 H           1.0  -0.7123810524   1.2338801771   0.7269170390
 H           1.0  -0.7123810524  -1.2338801771   0.7269170390
 H           1.0   1.4247621048   0.0000000000   0.7269170390

          INTERNUCLEAR DISTANCES (ANGS.)
          ------------------------------

                1 SB         2 H          3 H          4 H     

   1 SB      0.0000000    1.6930235 *  1.6930235 *  1.6930235 *
   2 H       1.6930235 *  0.0000000    2.4677604 *  2.4677604 *
   3 H       1.6930235 *  2.4677604 *  0.0000000    2.4677604 *
   4 H       1.6930235 *  2.4677604 *  2.4677604 *  0.0000000  

  * ... LESS THAN  3.000

 ...... END OF ONE-ELECTRON INTEGRALS ......
 STEP CPU TIME =     0.01 TOTAL CPU TIME =        0.8 (    0.0 MIN)
 TOTAL WALL CLOCK TIME=        0.9 SECONDS, CPU UTILIZATION IS  98.84%
 TOTAL NUMBER OF NONZERO TWO-ELECTRON INTEGRALS =               53770
          4 INTEGRAL RECORDS WERE STORED ON DISK FILE  8.
  ...... END OF TWO-ELECTRON INTEGRALS .....
 STEP CPU TIME =     0.02 TOTAL CPU TIME =        0.9 (    0.0 MIN)
 TOTAL WALL CLOCK TIME=        0.9 SECONDS, CPU UTILIZATION IS  98.86%

          --------------------------
                 RHF SCF CALCULATION
          --------------------------
     DENSITY MATRIX CONV=  1.00E-05

 ITER EX DEM     TOTAL ENERGY        E CHANGE  DENSITY CHANGE    DIIS ERROR
          * * *   INITIATING DIIS PROCEDURE   * * *
   1  0  0      -83.6184130772   -83.6184130772   0.006172248   0.021529278
   2  1  0      -83.6186040330    -0.0001909558   0.002070774   0.001178642
   3  2  0      -83.6186082887    -0.0000042557   0.000686898   0.000208524
   4  3  0      -83.6186085925    -0.0000003038   0.000330615   0.000072760
   5  4  0      -83.6186086259    -0.0000000333   0.000094502   0.000011900
   6  5  0      -83.6186086273    -0.0000000015   0.000008326   0.000001585
   7  6  0      -83.6186086274    -0.0000000000   0.000001639   0.000000258

          -----------------
          DENSITY CONVERGED
          -----------------
     TIME TO FORM FOCK OPERATORS=       0.0 SECONDS (       0.0 SEC/ITER)
     TIME TO SOLVE SCF EQUATIONS=       0.0 SECONDS (       0.0 SEC/ITER)

 FINAL RHF ENERGY IS      -83.6186086274 AFTER   7 ITERATIONS
 ...... END OF RHF CALCULATION ......
 STEP CPU TIME =     0.00 TOTAL CPU TIME =        0.9 (    0.0 MIN)
 TOTAL WALL CLOCK TIME=        0.9 SECONDS, CPU UTILIZATION IS  97.75%
 TIME TO DO      MCP GRADIENT INTEGRALS=      0.10
 ..... END OF 1-ELECTRON GRADIENT ......
 STEP CPU TIME =     0.11 TOTAL CPU TIME =        1.0 (    0.0 MIN)
 TOTAL WALL CLOCK TIME=        1.0 SECONDS, CPU UTILIZATION IS  98.00%
 ...... END OF 2-ELECTRON GRADIENT ......
 STEP CPU TIME =     0.06 TOTAL CPU TIME =        1.0 (    0.0 MIN)
 TOTAL WALL CLOCK TIME=        1.1 SECONDS, CPU UTILIZATION IS  98.11%

          NSERCH=  4     ENERGY=     -83.6186086

                                 -----------------------
                                 GRADIENT (HARTREE/BOHR)
                                 -----------------------
        ATOM     ZNUC       DE/DX         DE/DY         DE/DZ
 --------------------------------------------------------------
    1  SB          51.0     0.0000000     0.0000000     0.0006570
    2  H            1.0     0.0000873    -0.0001512    -0.0002190
    3  H            1.0     0.0000873     0.0001512    -0.0002190
    4  H            1.0    -0.0001746     0.0000000    -0.0002190

          MAXIMUM GRADIENT = 0.0006570    RMS GRADIENT = 0.0002358

 NSERCH:   4  E=      -83.6186086274  GRAD. MAX=  0.0006570  R.M.S.=  0.0002358

          HESSIAN UPDATED USING THE BFGS FORMULA
             ACTUAL ENERGY CHANGE WAS  -0.0001852174
          PREDICTED ENERGY CHANGE WAS  -0.0002005668 RATIO=  0.923
          MIN SEARCH, CORRECT HESSIAN, TRYING PURE NR STEP
               NR STEP HAS LENGTH         =   0.003237
          RADIUS OF STEP TAKEN=   0.00324  CURRENT TRUST RADIUS=   0.08330

 BEGINNING GEOMETRY SEARCH POINT NSERCH=   5 ...

 COORDINATES OF SYMMETRY UNIQUE ATOMS (ANGS)
   ATOM   CHARGE       X              Y              Z
 ------------------------------------------------------------
 SB         51.0  -0.0000000000   0.0000000000  -0.1890864328
 H           1.0   1.4246051865   0.0000000000   0.7274052295
 COORDINATES OF ALL ATOMS ARE (ANGS)
   ATOM   CHARGE       X              Y              Z
 ------------------------------------------------------------
 SB         51.0  -0.0000000000   0.0000000000  -0.1890864328
 H           1.0  -0.7123025933   1.2337442819   0.7274052295
 H           1.0  -0.7123025933  -1.2337442819   0.7274052295
 H           1.0   1.4246051865   0.0000000000   0.7274052295

          INTERNUCLEAR DISTANCES (ANGS.)
          ------------------------------

                1 SB         2 H          3 H          4 H     

   1 SB      0.0000000    1.6939471 *  1.6939471 *  1.6939471 *
   2 H       1.6939471 *  0.0000000    2.4674886 *  2.4674886 *
   3 H       1.6939471 *  2.4674886 *  0.0000000    2.4674886 *
   4 H       1.6939471 *  2.4674886 *  2.4674886 *  0.0000000  

  * ... LESS THAN  3.000

[...]
          ------------------------------

                1 SB         2 H          3 H          4 H     

   1 SB      0.0000000    1.6939471 *  1.6939471 *  1.6939471 *
   2 H       1.6939471 *  0.0000000    2.4674886 *  2.4674886 *
   3 H       1.6939471 *  2.4674886 *  0.0000000    2.4674886 *
   4 H       1.6939471 *  2.4674886 *  2.4674886 *  0.0000000  

  * ... LESS THAN  3.000


          NUCLEAR ENERGY    =       14.7010651375
          ELECTRONIC ENERGY =      -98.3196748991
          TOTAL ENERGY      =      -83.6186097616

          ------------------
          MOLECULAR ORBITALS
          ------------------

                      1          2          3          4          5
                   -1.6290    -1.6290    -1.6220    -1.6220    -1.6177
                     E          E          E          E          A1  
    1  SB 1  S    0.000000   0.000000   0.000000   0.000000  -0.002326
    2  SB 1  S    0.000000   0.000000   0.000000   0.000000  -0.007238
    3  SB 1  S    0.000000   0.000000   0.000000   0.000000   0.006533
    4  SB 1  X    0.000426   0.000000  -0.000100   0.000000   0.000000
    5  SB 1  Y    0.000000   0.000426   0.000000  -0.000100   0.000000
    6  SB 1  Z    0.000000   0.000000   0.000000   0.000000  -0.000026
    7  SB 1  X    0.000489   0.000000   0.002365   0.000000   0.000000
    8  SB 1  Y    0.000000   0.000489   0.000000   0.002365   0.000000
    9  SB 1  Z    0.000000   0.000000   0.000000   0.000000   0.003837
   10  SB 1  X    0.005054   0.000000  -0.003713   0.000000   0.000000
   11  SB 1  Y    0.000000   0.005054   0.000000  -0.003713   0.000000
   12  SB 1  Z    0.000000   0.000000   0.000000   0.000000  -0.000221
   13  SB 1 XX   -0.783529   0.000000  -0.364263   0.000000  -0.499327
   14  SB 1 YY    0.783529   0.000000   0.364263   0.000000  -0.499327
   15  SB 1 ZZ    0.000000   0.000000   0.000000   0.000000   0.998653
   16  SB 1 XY    0.000000   0.904741   0.000000   0.420615   0.000000
   17  SB 1 XZ   -0.417629   0.000000   0.905194   0.000000   0.000000
   18  SB 1 YZ    0.000000  -0.417629   0.000000   0.905194   0.000000
   19  SB 1 XX   -0.000761   0.000000  -0.001405   0.000000  -0.001459
   20  SB 1 YY    0.000761   0.000000   0.001405   0.000000  -0.001459
   21  SB 1 ZZ    0.000000   0.000000   0.000000   0.000000   0.002918
   22  SB 1 XY    0.000000   0.000879   0.000000   0.001623   0.000000
   23  SB 1 XZ    0.000714   0.000000   0.001765   0.000000   0.000000
   24  SB 1 YZ    0.000000   0.000714   0.000000   0.001765   0.000000
   25  H  2  S    0.009775  -0.016930  -0.004899   0.008486  -0.001827
   26  H  2  S    0.002669  -0.004623  -0.001467   0.002541  -0.001191
   27  H  2  X    0.001365  -0.000905   0.000637   0.001496   0.000121
   28  H  2  Y   -0.000905   0.002410   0.001496  -0.001091  -0.000210
   29  H  2  Z   -0.001206   0.002088  -0.000017   0.000030   0.001521
   30  H  3  S    0.009775   0.016930  -0.004899  -0.008486  -0.001827
   31  H  3  S    0.002669   0.004623  -0.001467  -0.002541  -0.001191
   32  H  3  X    0.001365   0.000905   0.000637  -0.001496   0.000121
   33  H  3  Y    0.000905   0.002410  -0.001496  -0.001091   0.000210
   34  H  3  Z   -0.001206  -0.002088  -0.000017  -0.000030   0.001521
   35  H  4  S   -0.019550   0.000000   0.009799   0.000000  -0.001827
   36  H  4  S   -0.005338   0.000000   0.002935   0.000000  -0.001191
   37  H  4  X    0.002933   0.000000  -0.001955   0.000000  -0.000242
   38  H  4  Y    0.000000   0.000842   0.000000   0.001501   0.000000
   39  H  4  Z    0.002411   0.000000   0.000035   0.000000   0.001521

                      6          7          8          9         10
                   -0.7566    -0.4693    -0.4693    -0.3554     0.1251
                     A1         E          E          A1         E   
    1  SB 1  S   -0.518919   0.000000   0.000000  -0.274418   0.000000
    2  SB 1  S   -0.545504   0.000000   0.000000  -0.224034   0.000000
    3  SB 1  S   -0.350860   0.000000   0.000000  -0.482406   0.000000
    4  SB 1  X    0.000000   0.249027   0.000000   0.000000   0.205372
    5  SB 1  Y    0.000000   0.000000   0.249027   0.000000   0.000000
    6  SB 1  Z   -0.061039   0.000000   0.000000   0.295745   0.000000
    7  SB 1  X    0.000000   0.229651   0.000000   0.000000   0.020071
    8  SB 1  Y    0.000000   0.000000   0.229651   0.000000   0.000000
    9  SB 1  Z   -0.059633   0.000000   0.000000   0.257207   0.000000
   10  SB 1  X    0.000000   0.347007   0.000000   0.000000   1.317781
   11  SB 1  Y    0.000000   0.000000   0.347007   0.000000   0.000000
   12  SB 1  Z   -0.034527   0.000000   0.000000   0.547513   0.000000
   13  SB 1 XX    0.003444  -0.064643   0.000000  -0.000408   0.085065
   14  SB 1 YY    0.003444   0.064643   0.000000  -0.000408  -0.085065
   15  SB 1 ZZ   -0.006887   0.000000   0.000000   0.000815   0.000000
   16  SB 1 XY    0.000000   0.000000   0.074644   0.000000   0.000000
   17  SB 1 XZ    0.000000  -0.098533   0.000000   0.000000   0.112513
   18  SB 1 YZ    0.000000   0.000000  -0.098533   0.000000   0.000000
   19  SB 1 XX   -0.000139   0.051136   0.000000  -0.001816  -0.074424
   20  SB 1 YY   -0.000139  -0.051136   0.000000  -0.001816   0.074424
   21  SB 1 ZZ    0.000278   0.000000   0.000000   0.003633   0.000000
   22  SB 1 XY    0.000000   0.000000  -0.059047   0.000000   0.000000
   23  SB 1 XZ    0.000000   0.079763   0.000000   0.000000  -0.078908
   24  SB 1 YZ    0.000000   0.000000   0.079763   0.000000   0.000000
   25  H  2  S   -0.169090  -0.179268   0.310501   0.144392   0.109311
   26  H  2  S   -0.054258  -0.101583   0.175947   0.122991   0.442819
   27  H  2  X   -0.007400  -0.002640   0.010162   0.005100   0.012306
   28  H  2  Y    0.012817   0.010162  -0.014374  -0.008834  -0.003084
   29  H  2  Z    0.009988   0.008188  -0.014183   0.000015  -0.001872
   30  H  3  S   -0.169090  -0.179268  -0.310501   0.144392   0.109311
   31  H  3  S   -0.054258  -0.101583  -0.175947   0.122991   0.442819
   32  H  3  X   -0.007400  -0.002640  -0.010162   0.005100   0.012306
   33  H  3  Y   -0.012817  -0.010162  -0.014374   0.008834   0.003084
   34  H  3  Z    0.009988   0.008188   0.014183   0.000015  -0.001872
   35  H  4  S   -0.169090   0.358536   0.000000   0.144392  -0.218623
   36  H  4  S   -0.054258   0.203167   0.000000   0.122991  -0.885639
   37  H  4  X    0.014800  -0.020242   0.000000  -0.010201   0.017648
   38  H  4  Y    0.000000   0.000000   0.003227   0.000000   0.000000
   39  H  4  Z    0.009988  -0.016377   0.000000   0.000015   0.003744

                     11         12         13         14         15
                    0.1251     0.1904     0.4269     0.4269     0.4279
                     E          A1         E          E          A1  
    1  SB 1  S    0.000000   0.388300   0.000000   0.000000  -0.096876
    2  SB 1  S    0.000000   0.164305   0.000000   0.000000  -0.347029
    3  SB 1  S    0.000000   1.824810   0.000000   0.000000   0.229053
    4  SB 1  X    0.000000   0.000000   0.014253   0.000000   0.000000
    5  SB 1  Y    0.205372   0.000000   0.000000   0.014253   0.000000
    6  SB 1  Z    0.000000   0.151106   0.000000   0.000000  -0.022647
    7  SB 1  X    0.000000   0.000000   0.019326   0.000000   0.000000
    8  SB 1  Y    0.020071   0.000000   0.000000   0.019326   0.000000
    9  SB 1  Z    0.000000  -0.015555   0.000000   0.000000  -0.058244
   10  SB 1  X    0.000000   0.000000   0.037463   0.000000   0.000000
   11  SB 1  Y    1.317781   0.000000   0.000000   0.037463   0.000000
   12  SB 1  Z    0.000000   1.354193   0.000000   0.000000   0.016477
   13  SB 1 XX    0.000000   0.016400  -0.284500   0.000000   0.202985
   14  SB 1 YY    0.000000   0.016400   0.284500   0.000000   0.202985
   15  SB 1 ZZ    0.000000  -0.032800   0.000000   0.000000  -0.405970
   16  SB 1 XY   -0.098225   0.000000   0.000000   0.328512   0.000000
   17  SB 1 XZ    0.000000   0.000000   0.254517   0.000000   0.000000
   18  SB 1 YZ    0.112513   0.000000   0.000000   0.254517   0.000000
   19  SB 1 XX    0.000000  -0.026412   0.717847   0.000000  -0.509257
   20  SB 1 YY    0.000000  -0.026412  -0.717847   0.000000  -0.509257
   21  SB 1 ZZ    0.000000   0.052825   0.000000   0.000000   1.018514
   22  SB 1 XY    0.085937   0.000000   0.000000  -0.828898   0.000000
   23  SB 1 XZ    0.000000   0.000000  -0.637666   0.000000   0.000000
   24  SB 1 YZ   -0.078908   0.000000   0.000000  -0.637666   0.000000
   25  H  2  S   -0.189333  -0.070629  -0.008476   0.014681  -0.105675
   26  H  2  S   -0.766986  -1.079597   0.029185  -0.050551   0.109616
   27  H  2  X   -0.003084  -0.000286  -0.039654  -0.033326   0.008668
   28  H  2  Y    0.015867   0.000495  -0.033326  -0.001173  -0.015013
   29  H  2  Z    0.003243   0.007260   0.017252  -0.029882   0.046443
   30  H  3  S    0.189333  -0.070629  -0.008476  -0.014681  -0.105675
   31  H  3  S    0.766986  -1.079597   0.029185   0.050551   0.109616
   32  H  3  X    0.003084  -0.000286  -0.039654   0.033326   0.008668
   33  H  3  Y    0.015867  -0.000495   0.033326  -0.001173   0.015013
   34  H  3  Z   -0.003243   0.007260   0.017252   0.029882   0.046443
   35  H  4  S    0.000000  -0.070629   0.016952   0.000000  -0.105675
   36  H  4  S    0.000000  -1.079597  -0.058371   0.000000   0.109616
   37  H  4  X    0.000000   0.000572   0.018068   0.000000  -0.017335
   38  H  4  Y    0.010525   0.000000   0.000000  -0.058895   0.000000
   39  H  4  Z    0.000000   0.007260  -0.034504   0.000000   0.046443

                     16         17         18         19
                    0.4781     0.4781     0.6177     0.6394
                     E          E          A1         A1  
    1  SB 1  S    0.000000   0.000000   0.129602   0.679860
    2  SB 1  S    0.000000   0.000000  -0.028792   2.913142
    3  SB 1  S    0.000000   0.000000   0.090751  -3.763776
    4  SB 1  X    0.236064   0.000000   0.000000   0.000000
    5  SB 1  Y    0.000000   0.236064   0.000000   0.000000
    6  SB 1  Z    0.000000   0.000000  -0.186430  -0.387399
    7  SB 1  X    0.464834   0.000000   0.000000   0.000000
    8  SB 1  Y    0.000000   0.464834   0.000000   0.000000
    9  SB 1  Z    0.000000   0.000000  -0.607955  -0.711691
   10  SB 1  X    0.407950   0.000000   0.000000   0.000000
   11  SB 1  Y    0.000000   0.407950   0.000000   0.000000
   12  SB 1  Z    0.000000   0.000000   0.730729  -0.332307
   13  SB 1 XX   -0.130535   0.000000  -0.039527   0.027525
   14  SB 1 YY    0.130535   0.000000  -0.039527   0.027525
   15  SB 1 ZZ    0.000000   0.000000   0.079054  -0.055051
   16  SB 1 XY    0.000000   0.150729   0.000000   0.000000
   17  SB 1 XZ   -0.214488   0.000000   0.000000   0.000000
   18  SB 1 YZ    0.000000  -0.214488   0.000000   0.000000
   19  SB 1 XX    0.391211   0.000000   0.113017  -0.087722
   20  SB 1 YY   -0.391211   0.000000   0.113017  -0.087722
   21  SB 1 ZZ    0.000000   0.000000  -0.226035   0.175445
   22  SB 1 XY    0.000000  -0.451732   0.000000   0.000000
   23  SB 1 XZ    0.632032   0.000000   0.000000   0.000000
   24  SB 1 YZ    0.000000   0.632032   0.000000   0.000000
   25  H  2  S   -0.253024   0.438250  -0.690353   0.156149
   26  H  2  S    0.765646  -1.326138   0.394461   0.686606
   27  H  2  X   -0.006877   0.005249  -0.008926   0.004402
   28  H  2  Y    0.005249  -0.012938   0.015461  -0.007625
   29  H  2  Z    0.002369  -0.004103   0.029347  -0.028343
   30  H  3  S   -0.253024  -0.438250  -0.690353   0.156149
   31  H  3  S    0.765646   1.326138   0.394461   0.686606
   32  H  3  X   -0.006877  -0.005249  -0.008926   0.004402
   33  H  3  Y   -0.005249  -0.012938  -0.015461   0.007625
   34  H  3  Z    0.002369   0.004103   0.029347  -0.028343
   35  H  4  S    0.506047   0.000000  -0.690353   0.156149
   36  H  4  S   -1.531293   0.000000   0.394461   0.686606
   37  H  4  X   -0.015969   0.000000   0.017853  -0.008805
   38  H  4  Y    0.000000  -0.003846   0.000000   0.000000
   39  H  4  Z   -0.004738   0.000000   0.029347  -0.028343

     ----------------------------------------------------------------
     PROPERTY VALUES FOR THE RHF   SELF-CONSISTENT FIELD WAVEFUNCTION
     ----------------------------------------------------------------

          -----------------
          ENERGY COMPONENTS
          -----------------

         WAVEFUNCTION NORMALIZATION =       1.0000000000

                ONE ELECTRON ENERGY =    -176.2989047031
                TWO ELECTRON ENERGY =      77.9792298039
           NUCLEAR REPULSION ENERGY =      14.7010651375
                                      ------------------
                       TOTAL ENERGY =     -83.6186097616

 ELECTRON-ELECTRON POTENTIAL ENERGY =      77.9792298039
  NUCLEUS-ELECTRON POTENTIAL ENERGY =    -327.0849017354
   NUCLEUS-NUCLEUS POTENTIAL ENERGY =      14.7010651375
                                      ------------------
             TOTAL POTENTIAL ENERGY =    -234.4046067939
               TOTAL KINETIC ENERGY =     150.7859970323
                 VIRIAL RATIO (V/T) =       1.5545515592

          ---------------------------------------
          MULLIKEN AND LOWDIN POPULATION ANALYSES
          ---------------------------------------

     ATOMIC MULLIKEN POPULATION IN EACH MOLECULAR ORBITAL

                      1          2          3          4          5

                  2.000000   2.000000   2.000000   2.000000   2.000000

    1             1.992578   1.992578   1.997866   1.997866   1.999572
    2             0.001257   0.003691   0.000411   0.001011   0.000143
    3             0.001257   0.003691   0.000411   0.001011   0.000143
    4             0.004908   0.000040   0.001312   0.000111   0.000143

                      6          7          8          9

                  2.000000   2.000000   2.000000   2.000000

    1             1.382994   0.888070   0.888070   1.631049
    2             0.205669   0.185574   0.555713   0.122984
    3             0.205669   0.185574   0.555713   0.122984
    4             0.205669   0.740782   0.000505   0.122984

               ----- POPULATIONS IN EACH AO -----
                             MULLIKEN      LOWDIN
              1  SB 1  S     -0.00057     0.13064
              2  SB 1  S      0.86253     0.41284
              3  SB 1  S      0.83971     0.39875
              4  SB 1  X      0.00068     0.04061
              5  SB 1  Y      0.00068     0.04065
              6  SB 1  Z      0.00097     0.05923
              7  SB 1  X      0.24013     0.19740
              8  SB 1  Y      0.24013     0.19765
              9  SB 1  Z      0.32058     0.29942
             10  SB 1  X      0.56409     0.54926
             11  SB 1  Y      0.56409     0.55147
             12  SB 1  Z      0.99087     0.95208
             13  SB 1 XX      1.99731     1.28206
             14  SB 1 YY      1.99728     1.28206
             15  SB 1 ZZ      1.99728     1.28226
             16  SB 1 XY      1.99704     1.91710
             17  SB 1 XZ      1.99704     1.91674
             18  SB 1 YZ      0.00000     1.91673
             19  SB 1 XX      0.00222     0.30401
             20  SB 1 YY      0.02910     0.30401
             21  SB 1 ZZ      0.02910     0.28858
             22  SB 1 XY      0.05019     0.11622
             23  SB 1 XZ      0.05019     0.13944
             24  SB 1 YZ      0.00000     0.13990
             25  H  2  S      0.70005     0.61979
             26  H  2  S      0.36195     0.44155
             27  H  2  X      0.00267     0.00593
             28  H  2  Y      0.00669     0.01275
             29  H  2  Z      0.00508     0.01194
             30  H  3  S      0.70005     0.61979
             31  H  3  S      0.36195     0.44155
             32  H  3  X      0.00267     0.00593
             33  H  3  Y      0.00669     0.01275
             34  H  3  Z      0.00508     0.01194
             35  H  4  S      0.70005     0.62236
             36  H  4  S      0.36195     0.44332
             37  H  4  X      0.00871     0.01658
             38  H  4  Y      0.00066     0.00242
             39  H  4  Z      0.00508     0.01229

          ----- MULLIKEN ATOMIC OVERLAP POPULATIONS -----
          (OFF-DIAGONAL ELEMENTS NEED TO BE MULTIPLIED BY 2)

             1           2           3           4

    1   13.7688809
    2    0.3339209   0.7516808
    3    0.3339209  -0.0045748   0.7516808
    4    0.3339209  -0.0045748  -0.0045748   0.7516808

          TOTAL MULLIKEN AND LOWDIN ATOMIC POPULATIONS
       ATOM         MULL.POP.    CHARGE          LOW.POP.     CHARGE
    1 SB           14.770644    0.229356        14.719111    0.280889
    2 H             1.076452   -0.076452         1.091963   -0.091963
    3 H             1.076452   -0.076452         1.091963   -0.091963
    4 H             1.076452   -0.076452         1.096964   -0.096964

          MULLIKEN SPHERICAL HARMONIC POPULATIONS
       ATOM           S       P       D      F      G      H      I    TOTAL
    1 SB            1.70    2.92   10.15   0.00   0.00   0.00   0.00   14.77
    2 H             1.06    0.01    0.00   0.00   0.00   0.00   0.00    1.08
    3 H             1.06    0.01    0.00   0.00   0.00   0.00   0.00    1.08
    4 H             1.06    0.01    0.00   0.00   0.00   0.00   0.00    1.08

          -------------------------------
          BOND ORDER AND VALENCE ANALYSIS     BOND ORDER THRESHOLD=0.050
          -------------------------------

                   BOND                       BOND                       BOND
  ATOM PAIR DIST  ORDER      ATOM PAIR DIST  ORDER      ATOM PAIR DIST  ORDER
    1   2  1.694  0.975        1   3  1.694  0.975        1   4  1.694  0.975

                       TOTAL       BONDED        FREE
      ATOM            VALENCE     VALENCE     VALENCE
    1 SB                2.926       2.926      -0.000
    2 H                 0.976       0.976      -0.000
    3 H                 0.976       0.976      -0.000
    4 H                 0.976       0.976      -0.000

          ---------------------
          ELECTROSTATIC MOMENTS
          ---------------------

 POINT   1           X           Y           Z (BOHR)    CHARGE
                -0.000000    0.000000   -0.315068       -0.00 (A.U.)
         DX          DY          DZ         /D/  (DEBYE)
    -0.000000    0.000000   -0.086349    0.086349
 ...... END OF PROPERTY EVALUATION ......
 STEP CPU TIME =     0.01 TOTAL CPU TIME =        1.2 (    0.0 MIN)
 TOTAL WALL CLOCK TIME=        1.3 SECONDS, CPU UTILIZATION IS  98.41%
  $VIB   
          IVIB=   0 IATOM=   0 ICOORD=   0 E=      -83.6186097616
  0.000000000E+00 0.000000000E+00-1.256485996E-06-2.155826930E-06 3.734001775E-06
  4.188282136E-07-2.155826930E-06-3.734001775E-06 4.188282136E-07 4.311653860E-06
  0.000000000E+00 4.188282136E-07
 -1.015893769E-14 4.496866753E-15-8.634930959E-02
 ......END OF GEOMETRY SEARCH......
 STEP CPU TIME =     0.00 TOTAL CPU TIME =        1.2 (    0.0 MIN)
 TOTAL WALL CLOCK TIME=        1.3 SECONDS, CPU UTILIZATION IS  98.41%
              1056018  WORDS OF DYNAMIC MEMORY USED
 EXECUTION OF GAMESS TERMINATED NORMALLY Wed Aug  9 21:06:58 2017
 DDI: 263640 bytes (0.3 MB / 0 MWords) used by master data server.

 ----------------------------------------
 CPU timing information for all processes
 ========================================
 0: 1.213 + 0.38 = 1.252
 ----------------------------------------
 ddikick.x: exited gracefully.
unset echo
----- accounting info -----
Files used on the master node compute-0-6.local were:
-rw-rw-r-- 1 sarom sarom  912 Aug  9 21:06 /scratch/mcp-sbh3.F05
-rw-rw-r-- 1 sarom sarom 704K Aug  9 21:06 /scratch/mcp-sbh3.F08
-rw-rw-r-- 1 sarom sarom 1.7M Aug  9 21:06 /scratch/mcp-sbh3.F10
rm: No match.
ls: No match.
ls: No match.
ls: No match.
Wed Aug  9 21:07:01 CDT 2017
0.252u 0.159s 0:04.75 8.4%	0+0k 8+360io 0pf+0w
/opt/gridengine/default/spool/compute-0-6/active_jobs/36021.1/pe_hostfile compute-0-6.local
