-catch_rsh /opt/gridengine/default/spool/compute-0-7/active_jobs/36022.1/pe_hostfile
compute-0-7
The primary node assigned by SGE to this run is compute-0-7
Warning: no access to tty (Bad file descriptor).
Thus no job control in this shell.
source /home/sarom/dir.git.branch.saromleang-travis-ci/install.info
setenv GMS_PATH /home/sarom/dir.git.branch.saromleang-travis-ci
setenv GMS_BUILD_DIR /home/sarom/dir.git.branch.saromleang-travis-ci
setenv GMS_TARGET linux64
setenv GMS_FORTRAN gfortran
setenv GMS_GFORTRAN_VERNO 4.4
setenv GMS_MATHLIB mkl-so
setenv GMS_MATHLIB none
setenv GMS_MATHLIB_PATH /share/apps/intel/compilers_and_libraries_2017.1.132/linux/mkl/lib/intel64
setenv GMS_MKL_VERNO 12
setenv GMS_DDI_COMM sockets
setenv GMS_LIBCCHEM false
setenv GMS_EIGEN_PATH
setenv GMS_PHI false
setenv GMS_SHMTYPE sysv
setenv GMS_OPENMP false
unset echo
mcp-vn12
/home/sarom/dir.git.branch.saromleang-travis-ci/tests/mcp/parallel
----- GAMESS execution script 'rungms' -----
This job is running on host compute-0-7.local
under operating system Linux at Wed Aug 9 21:06:56 CDT 2017
Available scratch disk space (Kbyte units) at beginning of the job is
Filesystem           1K-blocks      Used Available Use% Mounted on
/dev/sda1             16126920   3962060  11345660  26% /
GAMESS temporary binary files will be written to /scratch
GAMESS supplementary output files will be written to /home/sarom/restart
Copying input file mcp-vn12.inp to your run's scratch directory...
cp /home/sarom/dir.git.branch.saromleang-travis-ci/tests/mcp/parallel/mcp-vn12.inp /scratch/mcp-vn12.F05
unset echo
The generated host list is
compute-0-7.local
/home/sarom/dir.git.branch.saromleang-travis-ci/ddikick.x /home/sarom/dir.git.branch.saromleang-travis-ci/gamess.00.x mcp-vn12 -ddi 1 1 compute-0-7.local -scr /scratch

 Distributed Data Interface kickoff program.
 Initiating 1 compute processes on 1 nodes to run the following command:
 /home/sarom/dir.git.branch.saromleang-travis-ci/gamess.00.x mcp-vn12 

          ******************************************************
          *         GAMESS VERSION = 20 APR 2017 (R1)          *
          *             FROM IOWA STATE UNIVERSITY             *
          * M.W.SCHMIDT, K.K.BALDRIDGE, J.A.BOATZ, S.T.ELBERT, *
          *   M.S.GORDON, J.H.JENSEN, S.KOSEKI, N.MATSUNAGA,   *
          *          K.A.NGUYEN, S.J.SU, T.L.WINDUS,           *
          *       TOGETHER WITH M.DUPUIS, J.A.MONTGOMERY       *
          *         J.COMPUT.CHEM.  14, 1347-1363(1993)        *
          **************** 64 BIT LINUX VERSION ****************

  SINCE 1993, STUDENTS AND POSTDOCS WORKING AT IOWA STATE UNIVERSITY
  AND ALSO IN THEIR VARIOUS JOBS AFTER LEAVING ISU HAVE MADE IMPORTANT
  CONTRIBUTIONS TO THE CODE:
     IVANA ADAMOVIC, CHRISTINE AIKENS, YURI ALEXEEV, POOJA ARORA,
     ANDREY ASADCHEV, ROB BELL, PRADIPTA BANDYOPADHYAY, JONATHAN BENTZ,
     BRETT BODE, KURT BRORSEN, CALEB CARLIN, GALINA CHABAN, WEI CHEN,
     CHEOL HO CHOI, PAUL DAY, ALBERT DEFUSCO, NUWAN DESILVA, TIM DUDLEY,
     DMITRI FEDOROV, GRAHAM FLETCHER, MARK FREITAG, KURT GLAESEMANN,
     DAN KEMP, GRANT MERRILL, NORIYUKI MINEZAWA, JONATHAN MULLIN,
     TAKESHI NAGATA, SEAN NEDD, HEATHER NETZLOFF, BOSILJKA NJEGIC, RYAN OLSON,
     MIKE PAK, SPENCER PRUITT, LUKE ROSKOP, JIM SHOEMAKER, LYUDMILA SLIPCHENKO,
     TONY SMITH, SAROM SOK LEANG, JIE SONG, TETSUYA TAKETSUGU, SIMON WEBB,
     PENG XU, SOOHAENG YOO, FEDERICO ZAHARIEV

  ADDITIONAL CODE HAS BEEN PROVIDED BY COLLABORATORS IN OTHER GROUPS:
     IOWA STATE UNIVERSITY:
          JOE IVANIC, AARON WEST, LAIMUTIS BYTAUTAS, KLAUS RUEDENBERG
     UNIVERSITY OF TOKYO: KIMIHIKO HIRAO, TAKAHITO NAKAJIMA,
          TAKAO TSUNEDA, MUNEAKI KAMIYA, SUSUMU YANAGISAWA,
          KIYOSHI YAGI, MAHITO CHIBA, SEIKEN TOKURA, NAOAKI KAWAKAMI
     UNIVERSITY OF AARHUS: FRANK JENSEN
     UNIVERSITY OF IOWA: VISVALDAS KAIRYS, HUI LI
     NATIONAL INST. OF STANDARDS AND TECHNOLOGY: WALT STEVENS, DAVID GARMER
     UNIVERSITY OF PISA: BENEDETTA MENNUCCI, JACOPO TOMASI
     UNIVERSITY OF MEMPHIS: HENRY KURTZ, PRAKASHAN KORAMBATH
     UNIVERSITY OF ALBERTA: TOBY ZENG, MARIUSZ KLOBUKOWSKI
     UNIVERSITY OF NEW ENGLAND: MARK SPACKMAN
     MIE UNIVERSITY: HIROAKI UMEDA
     NAT. INST. OF ADVANCED INDUSTRIAL SCIENCE AND TECHNOLOGY: KAZUO KITAURA
     MICHIGAN STATE UNIVERSITY:
          KAROL KOWALSKI, MARTA WLOCH, JEFFREY GOUR, JESSE LUTZ,
          WEI LI, PIOTR PIECUCH
     UNIVERSITY OF SILESIA: MONIKA MUSIAL, STANISLAW KUCHARSKI
     FACULTES UNIVERSITAIRES NOTRE-DAME DE LA PAIX:
          OLIVIER QUINET, BENOIT CHAMPAGNE
     UNIVERSITY OF CALIFORNIA - SANTA BARBARA: BERNARD KIRTMAN
     INSTITUTE FOR MOLECULAR SCIENCE:
          KAZUYA ISHIMURA, MICHIO KATOUDA, AND SHIGERU NAGASE
     UNIVERSITY OF NOTRE DAME: ANNA POMOGAEVA, DAN CHIPMAN
     KYUSHU UNIVERSITY:
          HARUYUKI NAKANO,
          FENG LONG GU, JACEK KORCHOWIEC, MARCIN MAKOWSKI, AND YURIKO AOKI,
          HIROTOSHI MORI AND EISAKU MIYOSHI
     PENNSYLVANIA STATE UNIVERSITY:
          TZVETELIN IORDANOV, CHET SWALINA, JONATHAN SKONE,
          SHARON HAMMES-SCHIFFER
     WASEDA UNIVERSITY:
          MASATO KOBAYASHI, TOMOKO AKAMA, TSUGUKI TOUMA,
          TAKESHI YOSHIKAWA, YASUHIRO IKABATA, JUNJI SEINO,
          YUYA NAKAJIMA, HIROMI NAKAI
     NANJING UNIVERSITY: SHUHUA LI
     UNIVERSITY OF NEBRASKA:
          PEIFENG SU, DEJUN SI, NANDUN THELLAMUREGE, YALI WANG, HUI LI
     UNIVERSITY OF ZURICH: ROBERTO PEVERATI, KIM BALDRIDGE
     N. COPERNICUS UNIVERSITY AND JACKSON STATE UNIVERSITY:
          MARIA BARYSZ
     UNIVERSITY OF COPENHAGEN: Jimmy Kromann, CASPER STEINMANN
     TOKYO INSTITUTE OF TECHNOLOGY: HIROYA NAKATA
     NAGOYA UNIVERSITY: YOSHIO NISHIMOTO, STEPHAN IRLE
     MOSCOW STATE UNIVERSITY: VLADIMIR MIRONOV

 EXECUTION OF GAMESS BEGUN Wed Aug  9 21:06:56 2017

            ECHO OF THE FIRST FEW INPUT CARDS -
 INPUT CARD>!   Jerry's V(N3)4 which is so cool it is even adopts S4 symmetry,              
 INPUT CARD>!   which is the symmetry of a baseball (considering its stitches).             
 INPUT CARD>!   the MCP run has 37 alpha and 36 beta MOs, 385 total MOs, 452 AOs.           
 INPUT CARD>!   test case collected June 2010.                                              
 INPUT CARD>!                                                                               
 INPUT CARD>!   This input exposed an error in parallel MCP gradients, now fixed.           
 INPUT CARD>!   It was kept because guess=Huckel finds an incorrect configuration,          
 INPUT CARD>!   but converges if one flips the Huckel HOMO and LUMO.  Note that             
 INPUT CARD>!   April 2013 Huckel changes made the iterations far more systematic,          
 INPUT CARD>!   from clean symmetry starting orbs, but did not remove the need              
 INPUT CARD>!   to reorder to place a B symmetry orbital at #37.                            
 INPUT CARD>!                                                                               
 INPUT CARD>!   2-B state FINAL RO-B3LYP E= -191.2006418131, 34 iters, RMS= 0.031822576     
 INPUT CARD>!                                                                               
 INPUT CARD>!   this run took 1847 seconds 2.66 GHz Cloverton ( 7 Apr 2015)                 
 INPUT CARD>!   answers have been stable since 2013.                                        
 INPUT CARD>!                                                                               
 INPUT CARD>!   -----------------------------------------------------------------------     
 INPUT CARD>!        information about the incorrect SCF solution (old-style grid):         
 INPUT CARD>!   Huckel guess w/o reordering was finding this Kohn-Sham ordering:            
 INPUT CARD>!      31      32      33      34    35&36     37      38      39     40&41     
 INPUT CARD>!       E       A       B       A      E        A       B       B       E       
 INPUT CARD>!   -0.3245 -0.3218 -0.3081 -0.2993 -0.2867 -0.1772 -0.1682 -0.1364 -0.1158     
 INPUT CARD>!   with B3LYP 2-A state energy -191.1799622655, r.m.s.= 0.0294061,             
 INPUT CARD>!   going through SCF, coarse grid, and fine grid stages.                       
 INPUT CARD>!                                                                               
 INPUT CARD>!   flipping the SOMO and the first virtual (w/o coarse grid stage) gives       
 INPUT CARD>!      31      32      33      34    35&36     37      38     39&40    41       
 INPUT CARD>!       E       E       B       A       E       B       A       E       B       
 INPUT CARD>!   -0.3222 -0.3222 -0.3083 -0.2971 -0.2886 -0.1868 -0.1559 -0.1212 -0.1121     
 INPUT CARD>!   and Jerry's original 2-B E= -191.2006220793, R.M.S. of 0.031837804          
 INPUT CARD>!   the good solution has SCF energy around -187.3468489                        
 INPUT CARD>!                                                                               
 INPUT CARD> $CONTRL SCFTYP=ROHF dfttyp=b3lyp RUNTYP=gradient PP=mcp                        
 INPUT CARD>         mult=2 maxit=50 ISPHER=1 $END                                          
 INPUT CARD> $SYSTEM mwords=10 $end                                                         
 INPUT CARD> $basis  gbasis=mcp-tzp $end                                                    
 INPUT CARD> $guess  guess=huckel norder=1 iorder(37)=38,37 $end                            
 INPUT CARD> $SCF    dirscf=.t. diis=.t. soscf=.f. $end                                     
 INPUT CARD> $DATA                                                                          
 INPUT CARD>B3LYP/MPC-TZP for V(N3)4 in S4 symmetry                                         
 INPUT CARD>S2n 2                                                                           
 INPUT CARD>                                                                                
 INPUT CARD>V   23.0    .0000000000    .0000000000    .0000000000                           
 INPUT CARD>N    7.0    .5461312650   1.3840306081  -1.0838907510                           
 INPUT CARD>N    7.0   1.5147522581   1.6251160782  -1.7713425430                           
 INPUT CARD>N    7.0   2.4080547800   1.9230061148  -2.4469520312                           
 INPUT CARD> $END                                                                           
 INPUT CARD>                                                                                
   10000000 WORDS OF MEMORY AVAILABLE

     $BASIS REQUESTS READING THE "MCP-TZP " BASIS SET FROM AN EXTERNAL FILE


     RUN TITLE
     ---------
 B3LYP/MPC-TZP for V(N3)4 in S4 symmetry                                         

 THE POINT GROUP OF THE MOLECULE IS S2N     
 THE ORDER OF THE PRINCIPAL AXIS IS     2

 THE EXTERNAL BASIS SET FILE BEING READ IS
     "/home/sarom/dir.git.branch.saromleang-travis-ci/auxdata/MCP/MCP-TZP"
 *** WARNING! ATOM   1 SHELL    1 TYPE S HAS NORMALIZATION   0.99887069
 *** WARNING! ATOM   1 SHELL    2 TYPE S HAS NORMALIZATION   2.18688769
 *** WARNING! ATOM   1 SHELL    7 TYPE D HAS NORMALIZATION   1.87741896
 *** WARNING! ATOM   2 SHELL   12 TYPE S HAS NORMALIZATION   3.14894998
 *** WARNING! ATOM   2 SHELL   15 TYPE P HAS NORMALIZATION   3.30229648
 *** WARNING! ATOM   6 SHELL   48 TYPE S HAS NORMALIZATION   3.14894998
 *** WARNING! ATOM   6 SHELL   51 TYPE P HAS NORMALIZATION   3.30229648
 *** WARNING! ATOM  10 SHELL   84 TYPE S HAS NORMALIZATION   3.14894998
 *** WARNING! ATOM  10 SHELL   87 TYPE P HAS NORMALIZATION   3.30229648

 ATOM      ATOMIC                      COORDINATES (BOHR)
           CHARGE         X                   Y                   Z
 V          23.0     0.0000000000        0.0000000000        0.0000000000
 N           7.0    -1.0320384442       -2.6154386079       -2.0482565200
 N           7.0    -2.6154386079        1.0320384442        2.0482565200
 N           7.0     2.6154386079       -1.0320384442        2.0482565200
 N           7.0     1.0320384442        2.6154386079       -2.0482565200
 N           7.0    -2.8624667071       -3.0710240860       -3.3473520367
 N           7.0    -3.0710240860        2.8624667071        3.3473520367
 N           7.0     3.0710240860       -2.8624667071        3.3473520367
 N           7.0     2.8624667071        3.0710240860       -3.3473520367
 N           7.0    -4.5505636976       -3.6339546297       -4.6240688441
 N           7.0    -3.6339546297        4.5505636976        4.6240688441
 N           7.0     3.6339546297       -4.5505636976        4.6240688441
 N           7.0     4.5505636976        3.6339546297       -4.6240688441

          INTERNUCLEAR DISTANCES (ANGS.)
          ------------------------------

                1 V          2 N          3 N          4 N          5 N     

   1 V       0.0000000    1.8408203 *  1.8408203 *  1.8408203 *  1.8408203 *
   2 N       1.8408203 *  0.0000000    3.0210721    3.0210721    2.9757689 *
   3 N       1.8408203 *  3.0210721    0.0000000    2.9757689 *  3.0210721  
   4 N       1.8408203 *  3.0210721    2.9757689 *  0.0000000    3.0210721  
   5 N       1.8408203 *  2.9757689 *  3.0210721    3.0210721    0.0000000  
   6 N       2.8413256 *  1.2119979 *  3.5893955    4.2094545    3.7114410  
   7 N       2.8413256 *  4.2094545    1.2119979 *  3.7114410    3.5893955  
   8 N       2.8413256 *  3.5893955    3.7114410    1.2119979 *  4.2094545  
   9 N       2.8413256 *  3.7114410    4.2094545    3.5893955    1.2119979 *
  10 N       3.9350038    2.3696392 *  4.4285568    5.3612076    4.6391425  
  11 N       3.9350038    5.3612076    2.3696392 *  4.6391425    4.4285568  
  12 N       3.9350038    4.4285568    4.6391425    2.3696392 *  5.3612076  
  13 N       3.9350038    4.6391425    5.3612076    4.4285568    2.3696392 *

                6 N          7 N          8 N          9 N         10 N     

   1 V       2.8413256 *  2.8413256 *  2.8413256 *  2.8413256 *  3.9350038  
   2 N       1.2119979 *  4.2094545    3.5893955    3.7114410    2.3696392 *
   3 N       3.5893955    1.2119979 *  3.7114410    4.2094545    4.4285568  
   4 N       4.2094545    3.7114410    1.2119979 *  3.5893955    5.3612076  
   5 N       3.7114410    3.5893955    4.2094545    1.2119979 *  4.6391425  
   6 N       0.0000000    4.7351421    4.7351421    4.4431865    1.1589547 *
   7 N       4.7351421    0.0000000    4.4431865    4.7351421    5.4977436  
   8 N       4.7351421    4.4431865    0.0000000    4.7351421    5.8503972  
   9 N       4.4431865    4.7351421    4.7351421    0.0000000    5.3323573  
  10 N       1.1589547 *  5.4977436    5.8503972    5.3323573    0.0000000  
  11 N       5.8503972    1.1589547 *  5.3323573    5.4977436    6.5531411  
  12 N       5.4977436    5.3323573    1.1589547 *  5.8503972    6.5531411  
  13 N       5.3323573    5.8503972    5.4977436    1.1589547 *  6.1633369  

               11 N         12 N         13 N     

   1 V       3.9350038    3.9350038    3.9350038  
   2 N       5.3612076    4.4285568    4.6391425  
   3 N       2.3696392 *  4.6391425    5.3612076  
   4 N       4.6391425    2.3696392 *  4.4285568  
   5 N       4.4285568    5.3612076    2.3696392 *
   6 N       5.8503972    5.4977436    5.3323573  
   7 N       1.1589547 *  5.3323573    5.8503972  
   8 N       5.3323573    1.1589547 *  5.4977436  
   9 N       5.4977436    5.8503972    1.1589547 *
  10 N       6.5531411    6.5531411    6.1633369  
  11 N       0.0000000    6.1633369    6.5531411  
  12 N       6.1633369    0.0000000    6.5531411  
  13 N       6.5531411    6.5531411    0.0000000  

  * ... LESS THAN  3.000


     ATOMIC BASIS SET
     ----------------
 THE CONTRACTED PRIMITIVE FUNCTIONS HAVE BEEN UNNORMALIZED
 THE CONTRACTED BASIS FUNCTIONS ARE NOW NORMALIZED TO UNITY

  SHELL TYPE  PRIMITIVE        EXPONENT          CONTRACTION COEFFICIENT(S)

 V         

      1   S       1           204.8113800    0.156568885327
      1   S       2             7.4500427   -0.623002242056
      1   S       3             1.3145814    0.637564378301
      1   S       4             0.5362356    0.561024013806

      2   S       5           204.8113800   -0.061186493364
      2   S       6             7.4500427    0.351793688613
      2   S       7             1.3145814   -0.497500767016
      2   S       8             0.5362356   -0.660347577708

      3   S       9             0.0849416    1.000000000000

      4   S      10             0.0322209    1.000000000000

      5   P      11            84.0575190   -0.067557504406
      5   P      12            17.1248850   -0.268598017518
      5   P      13             1.5763034    0.664341643328
      5   P      14             0.5139849    0.422666927566

      6   P      15             0.1400450    0.684154043068
      6   P      16             0.0537500    0.376144023678

      7   D      17            24.7104330    0.058957338419
      7   D      18             6.2199135    0.317403207282
      7   D      19             1.9749281    0.766480319442

      8   D      20             0.6418431    1.000000000000

      9   D      21             0.1950409    1.000000000000

     10   D      22             0.0592683    1.000000000000

     11   F      23             2.0497450    0.351790964098
     11   F      24             0.4214050    0.843487913917

 N         

     39   S      25            50.9582410   -0.262600385339
     39   S      26             7.3942370   -0.832865464227

     40   S      27             0.6244510    1.000000000000

     41   S      28             0.1943427    1.000000000000

     42   P      29            12.0364550    0.172336285941
     42   P      30             2.4004170    0.906022355229

     43   P      31             0.6424300    1.000000000000

     44   P      32             0.1798500    1.000000000000

     45   D      33             4.5862240    0.118046003062
     45   D      34             1.3187720    0.932695024194

     46   D      35             0.4213840    1.000000000000

     47   F      36             1.8264550    0.423954846456
     47   F      37             0.6221640    0.706424744154

 N         

     75   S      38            50.9582410   -0.262600385339
     75   S      39             7.3942370   -0.832865464227

     76   S      40             0.6244510    1.000000000000

     77   S      41             0.1943427    1.000000000000

     78   P      42            12.0364550    0.172336285941
     78   P      43             2.4004170    0.906022355229

     79   P      44             0.6424300    1.000000000000

     80   P      45             0.1798500    1.000000000000

     81   D      46             4.5862240    0.118046003062
     81   D      47             1.3187720    0.932695024194

     82   D      48             0.4213840    1.000000000000

     83   F      49             1.8264550    0.423954846456
     83   F      50             0.6221640    0.706424744154

 N         

    111   S      51            50.9582410   -0.262600385339
    111   S      52             7.3942370   -0.832865464227

    112   S      53             0.6244510    1.000000000000

    113   S      54             0.1943427    1.000000000000

    114   P      55            12.0364550    0.172336285941
    114   P      56             2.4004170    0.906022355229

    115   P      57             0.6424300    1.000000000000

    116   P      58             0.1798500    1.000000000000

    117   D      59             4.5862240    0.118046003062
    117   D      60             1.3187720    0.932695024194

    118   D      61             0.4213840    1.000000000000

    119   F      62             1.8264550    0.423954846456
    119   F      63             0.6221640    0.706424744154

 TOTAL NUMBER OF BASIS SET SHELLS             =  119
 NUMBER OF CARTESIAN GAUSSIAN BASIS FUNCTIONS =  452
 NOTE: THIS RUN WILL RESTRICT THE MO VARIATION SPACE TO SPHERICAL HARMONICS.
 THE NUMBER OF ORBITALS KEPT IN THE VARIATIONAL SPACE WILL BE PRINTED LATER.
 NUMBER OF ELECTRONS                          =  107
 CHARGE OF MOLECULE                           =    0
 SPIN MULTIPLICITY                            =    2
 NUMBER OF OCCUPIED ORBITALS (ALPHA)          =   54
 NUMBER OF OCCUPIED ORBITALS (BETA )          =   53
 TOTAL NUMBER OF ATOMS                        =   13
 THE NUCLEAR REPULSION ENERGY IS      922.7408356423
 NOTE THIS RUN IS USING CORE POTENTIALS, AND THE NUMBER OF ELECTRONS,
 OCCUPIED ORBITALS, AND NUCLEAR REPULSION ENERGY WILL BE ADJUSTED BELOW
 AFTER REMOVAL OF THE CORE CHARGES.

     LEBEDEV GRID-BASED DFT OPTIONS
     ------------------------------
     DFTTYP=B3LYP   
     NRAD  =      96     NLEB  =     302
     NRAD0 =      24     NLEB0 =     110
     SWOFF =    5.00E-03 (PURE SCF -> DFT)
     SWITCH=    3.00E-04 (COARSE -> TIGHT GRID)
     THRESH=    0.00E+00 GTHRE=    1.00E+00

 GRIMME'S EMPIRICAL DISPERSION CORRECTION= F

     $CONTRL OPTIONS
     ---------------
 SCFTYP=ROHF         RUNTYP=GRADIENT     EXETYP=RUN     
 MPLEVL=       0     CITYP =NONE         CCTYP =NONE         VBTYP =NONE    
 DFTTYP=B3LYP        TDDFT =NONE    
 MULT  =       2     ICHARG=       0     NZVAR =       0     COORD =UNIQUE  
 PP    =MCP          RELWFN=NONE         LOCAL =NONE         NUMGRD=       F
 ISPHER=       1     NOSYM =       0     MAXIT =      50     UNITS =ANGS    
 PLTORB=       F     MOLPLT=       F     AIMPAC=       F     FRIEND=        
 NPRINT=       7     IREST =       0     GEOM  =INPUT   
 NORMF =       0     NORMP =       0     ITOL  =      20     ICUT  =       9
 INTTYP=BEST         GRDTYP=BEST         QMTTOL= 1.0E-06

     $SYSTEM OPTIONS
     ---------------
  REPLICATED MEMORY=    10000000 WORDS (ON EVERY NODE).
 DISTRIBUTED MEMDDI=           0 MILLION WORDS IN AGGREGATE,
 MEMDDI DISTRIBUTED OVER   1 PROCESSORS IS           0 WORDS/PROCESSOR.
 TOTAL MEMORY REQUESTED ON EACH PROCESSOR=    10000000 WORDS.
 TIMLIM=      525600.00 MINUTES, OR     365.0 DAYS.
 PARALL= F  BALTYP=  DLB     KDIAG=    0  COREFL= F
 MXSEQ2=     300 MXSEQ3=     150  mem10=         0

          ----------------
          MODEL-POTENTIALS
          ----------------
 V       MCP-TZP 
 *******************************************************************************
 * Element : V
 * Basis : MCP segmented  (4411/42/3111/2)
 * Effective Charge : 13.0
 * Term : 4F   Valence configuration : 1s(2)3d(3)
 * SCF energy : -70.5897464 a.u.
 * Valence Correlation energy : -0.05988562 a.u.
 * References
 * Authors : Y. Osanai, M. S. Mon, T. Noro, H. Mori, H. Nakashima, M. Klobukowski
 * Journal : Chem. Phys. Lett., 452, 210-214 (2008)
 * Authors : T. Noro, M. Sekiya, T. Koga, H. Matsuyama,   [valence correlated set
 * Journal : Theor. Chem. Acc. 104, 146 (2000)
 *******************************************************************************
 N       MCP-TZP 
 *******************************************************************************
 * Element : N
 * Basis : MCP segmented  (211/211/21/2)
 * Effective Charge : 5.0
 * Term : 4S   Valence configuration : 1s(2)2p(3)
 * SCF energy : -9.68276973 a.u.
 * Valence Correlation energy : -0.11210344 a.u.
 * References
 * Authors : Y. Sakai, E. Miyoshi, M. Klobukowski, S. Huzinaga,   [inner and vale
 * Journal : J. Chem. Phys. 106, 8084-8092 (1997)
 * Authors : T. Noro, M. Sekiya, T. Koga,   [valence correlated set]
 * Journal : Theor. Chem. Acc. 98, 25 (1997)
 *******************************************************************************
 N       MCP-TZP 
 *******************************************************************************
 * Element : N
 * Basis : MCP segmented  (211/211/21/2)
 * Effective Charge : 5.0
 * Term : 4S   Valence configuration : 1s(2)2p(3)
 * SCF energy : -9.68276973 a.u.
 * Valence Correlation energy : -0.11210344 a.u.
 * References
 * Authors : Y. Sakai, E. Miyoshi, M. Klobukowski, S. Huzinaga,   [inner and vale
 * Journal : J. Chem. Phys. 106, 8084-8092 (1997)
 * Authors : T. Noro, M. Sekiya, T. Koga,   [valence correlated set]
 * Journal : Theor. Chem. Acc. 98, 25 (1997)
 *******************************************************************************
 N       MCP-TZP 
 *******************************************************************************
 * Element : N
 * Basis : MCP segmented  (211/211/21/2)
 * Effective Charge : 5.0
 * Term : 4S   Valence configuration : 1s(2)2p(3)
 * SCF energy : -9.68276973 a.u.
 * Valence Correlation energy : -0.11210344 a.u.
 * References
 * Authors : Y. Sakai, E. Miyoshi, M. Klobukowski, S. Huzinaga,   [inner and vale
 * Journal : J. Chem. Phys. 106, 8084-8092 (1997)
 * Authors : T. Noro, M. Sekiya, T. Koga,   [valence correlated set]
 * Journal : Theor. Chem. Acc. 98, 25 (1997)
 *******************************************************************************
 N       MCP-TZP 
 *******************************************************************************
 * Element : N
 * Basis : MCP segmented  (211/211/21/2)
 * Effective Charge : 5.0
 * Term : 4S   Valence configuration : 1s(2)2p(3)
 * SCF energy : -9.68276973 a.u.
 * Valence Correlation energy : -0.11210344 a.u.
 * References
 * Authors : Y. Sakai, E. Miyoshi, M. Klobukowski, S. Huzinaga,   [inner and vale
 * Journal : J. Chem. Phys. 106, 8084-8092 (1997)
 * Authors : T. Noro, M. Sekiya, T. Koga,   [valence correlated set]
 * Journal : Theor. Chem. Acc. 98, 25 (1997)
 *******************************************************************************
 N       MCP-TZP 
 *******************************************************************************
 * Element : N
 * Basis : MCP segmented  (211/211/21/2)
 * Effective Charge : 5.0
 * Term : 4S   Valence configuration : 1s(2)2p(3)
 * SCF energy : -9.68276973 a.u.
 * Valence Correlation energy : -0.11210344 a.u.
 * References
 * Authors : Y. Sakai, E. Miyoshi, M. Klobukowski, S. Huzinaga,   [inner and vale
 * Journal : J. Chem. Phys. 106, 8084-8092 (1997)
 * Authors : T. Noro, M. Sekiya, T. Koga,   [valence correlated set]
 * Journal : Theor. Chem. Acc. 98, 25 (1997)
 *******************************************************************************
 N       MCP-TZP 
 *******************************************************************************
 * Element : N
 * Basis : MCP segmented  (211/211/21/2)
 * Effective Charge : 5.0
 * Term : 4S   Valence configuration : 1s(2)2p(3)
 * SCF energy : -9.68276973 a.u.
 * Valence Correlation energy : -0.11210344 a.u.
 * References
 * Authors : Y. Sakai, E. Miyoshi, M. Klobukowski, S. Huzinaga,   [inner and vale
 * Journal : J. Chem. Phys. 106, 8084-8092 (1997)
 * Authors : T. Noro, M. Sekiya, T. Koga,   [valence correlated set]
 * Journal : Theor. Chem. Acc. 98, 25 (1997)
 *******************************************************************************
 N       MCP-TZP 
 *******************************************************************************
 * Element : N
 * Basis : MCP segmented  (211/211/21/2)
 * Effective Charge : 5.0
 * Term : 4S   Valence configuration : 1s(2)2p(3)
 * SCF energy : -9.68276973 a.u.
 * Valence Correlation energy : -0.11210344 a.u.
 * References
 * Authors : Y. Sakai, E. Miyoshi, M. Klobukowski, S. Huzinaga,   [inner and vale
 * Journal : J. Chem. Phys. 106, 8084-8092 (1997)
 * Authors : T. Noro, M. Sekiya, T. Koga,   [valence correlated set]
 * Journal : Theor. Chem. Acc. 98, 25 (1997)
 *******************************************************************************
 N       MCP-TZP 
 *******************************************************************************
 * Element : N
 * Basis : MCP segmented  (211/211/21/2)
 * Effective Charge : 5.0
 * Term : 4S   Valence configuration : 1s(2)2p(3)
 * SCF energy : -9.68276973 a.u.
 * Valence Correlation energy : -0.11210344 a.u.
 * References
 * Authors : Y. Sakai, E. Miyoshi, M. Klobukowski, S. Huzinaga,   [inner and vale
 * Journal : J. Chem. Phys. 106, 8084-8092 (1997)
 * Authors : T. Noro, M. Sekiya, T. Koga,   [valence correlated set]
 * Journal : Theor. Chem. Acc. 98, 25 (1997)
 *******************************************************************************
 N       MCP-TZP 
 *******************************************************************************
 * Element : N
 * Basis : MCP segmented  (211/211/21/2)
 * Effective Charge : 5.0
 * Term : 4S   Valence configuration : 1s(2)2p(3)
 * SCF energy : -9.68276973 a.u.
 * Valence Correlation energy : -0.11210344 a.u.
 * References
 * Authors : Y. Sakai, E. Miyoshi, M. Klobukowski, S. Huzinaga,   [inner and vale
 * Journal : J. Chem. Phys. 106, 8084-8092 (1997)
 * Authors : T. Noro, M. Sekiya, T. Koga,   [valence correlated set]
 * Journal : Theor. Chem. Acc. 98, 25 (1997)
 *******************************************************************************
 N       MCP-TZP 
 *******************************************************************************
 * Element : N
 * Basis : MCP segmented  (211/211/21/2)
 * Effective Charge : 5.0
 * Term : 4S   Valence configuration : 1s(2)2p(3)
 * SCF energy : -9.68276973 a.u.
 * Valence Correlation energy : -0.11210344 a.u.
 * References
 * Authors : Y. Sakai, E. Miyoshi, M. Klobukowski, S. Huzinaga,   [inner and vale
 * Journal : J. Chem. Phys. 106, 8084-8092 (1997)
 * Authors : T. Noro, M. Sekiya, T. Koga,   [valence correlated set]
 * Journal : Theor. Chem. Acc. 98, 25 (1997)
 *******************************************************************************
 N       MCP-TZP 
 *******************************************************************************
 * Element : N
 * Basis : MCP segmented  (211/211/21/2)
 * Effective Charge : 5.0
 * Term : 4S   Valence configuration : 1s(2)2p(3)
 * SCF energy : -9.68276973 a.u.
 * Valence Correlation energy : -0.11210344 a.u.
 * References
 * Authors : Y. Sakai, E. Miyoshi, M. Klobukowski, S. Huzinaga,   [inner and vale
 * Journal : J. Chem. Phys. 106, 8084-8092 (1997)
 * Authors : T. Noro, M. Sekiya, T. Koga,   [valence correlated set]
 * Journal : Theor. Chem. Acc. 98, 25 (1997)
 *******************************************************************************
 N       MCP-TZP 
 *******************************************************************************
 * Element : N
 * Basis : MCP segmented  (211/211/21/2)
 * Effective Charge : 5.0
 * Term : 4S   Valence configuration : 1s(2)2p(3)
 * SCF energy : -9.68276973 a.u.
 * Valence Correlation energy : -0.11210344 a.u.
 * References
 * Authors : Y. Sakai, E. Miyoshi, M. Klobukowski, S. Huzinaga,   [inner and vale
 * Journal : J. Chem. Phys. 106, 8084-8092 (1997)
 * Authors : T. Noro, M. Sekiya, T. Koga,   [valence correlated set]
 * Journal : Theor. Chem. Acc. 98, 25 (1997)
 *******************************************************************************
 THE MCP PLACED ON ATOM    1 REMOVES ZCORE= 10
 THE MCP PLACED ON ATOM    2 REMOVES ZCORE=  2
 THE MCP PLACED ON ATOM    3 REMOVES ZCORE=  2
 THE MCP PLACED ON ATOM    4 REMOVES ZCORE=  2
 THE MCP PLACED ON ATOM    5 REMOVES ZCORE=  2
 THE MCP PLACED ON ATOM    6 REMOVES ZCORE=  2
 THE MCP PLACED ON ATOM    7 REMOVES ZCORE=  2
 THE MCP PLACED ON ATOM    8 REMOVES ZCORE=  2
 THE MCP PLACED ON ATOM    9 REMOVES ZCORE=  2
 THE MCP PLACED ON ATOM   10 REMOVES ZCORE=  2
 THE MCP PLACED ON ATOM   11 REMOVES ZCORE=  2
 THE MCP PLACED ON ATOM   12 REMOVES ZCORE=  2
 THE MCP PLACED ON ATOM   13 REMOVES ZCORE=  2

 THE MCP RUN REMOVES   34 CORE ELECTRONS, AND THE SAME NUMBER OF PROTONS.
 NUMBER OF ELECTRONS KEPT IN THE CALCULATION IS =   73
 NUMBER OF OCCUPIED ORBITALS (ALPHA) KEPT IS    =   37
 NUMBER OF OCCUPIED ORBITALS (BETA ) KEPT IS    =   36
 THE ADJUSTED NUCLEAR REPULSION ENERGY=      429.0816324746

     MODEL-POTENTIAL PARAMETERS
     --------------------------

  NO.    N                        ALPHA           A

 V         
   1     0                      262.856680    0.414618
   2     0                       14.120683    0.101639
   3     0                        4.752114    0.016623
   1     1                     1470.027300   44.361070
   2     1                       39.767160    3.354556
   3     1                        5.421251    0.029962

 N         
   1     0                       27.639300    0.319157
   2     0                        5.022100    0.052484

 N         
   1     0                       27.639300    0.319157
   2     0                        5.022100    0.052484

 N         
   1     0                       27.639300    0.319157
   2     0                        5.022100    0.052484

 N         
   1     0                       27.639300    0.319157
   2     0                        5.022100    0.052484

 N         
   1     0                       27.639300    0.319157
   2     0                        5.022100    0.052484

 N         
   1     0                       27.639300    0.319157
   2     0                        5.022100    0.052484

 N         
   1     0                       27.639300    0.319157
   2     0                        5.022100    0.052484

 N         
   1     0                       27.639300    0.319157
   2     0                        5.022100    0.052484

 N         
   1     0                       27.639300    0.319157
   2     0                        5.022100    0.052484

 N         
   1     0                       27.639300    0.319157
   2     0                        5.022100    0.052484

 N         
   1     0                       27.639300    0.319157
   2     0                        5.022100    0.052484

 N         
   1     0                       27.639300    0.319157
   2     0                        5.022100    0.052484

     CORE-SHELL BASIS SET FOR MODEL-POTENTIAL ATOMS
     ----------------------------------------------

 SHELL TYPE PRIM    EXPONENT          CONTRACTION COEFFICIENTS

 V         

   1   S    PARAMETER B =       405.950680
   1   S    1      8260.213600   12.391599 (  0.020067) 
   1   S    2      1065.163000   18.770520 (  0.141255) 
   1   S    3       234.794660   19.912217 (  0.465793) 
   1   S    4        65.190776    8.185650 (  0.500614) 
   1   S    5       105.721700   -0.084361 ( -0.003590) 
   1   S    6        11.188049    0.098766 (  0.022653) 
   1   S    7         4.496906    0.033555 (  0.015246) 
   1   S    8         7.948709    0.016720 (  0.004956) 
   1   S    9         1.221533   -0.013841 ( -0.016714) 
   1   S   10         0.484211   -0.003335 ( -0.008060) 

   2   S    PARAMETER B =        48.330148
   2   S   11      8260.213600    4.082078 (  0.006610) 
   2   S   12      1065.163000    6.183457 (  0.046533) 
   2   S   13       234.794660    6.559552 (  0.153443) 
   2   S   14        65.190776    2.696545 (  0.164914) 
   2   S   15       105.721700    2.480657 (  0.105568) 
   2   S   16        11.188049   -2.904264 ( -0.666132) 
   2   S   17         4.496906   -0.986697 ( -0.448320) 
   2   S   18         7.948709    0.008474 (  0.002511) 
   2   S   19         1.221533   -0.007015 ( -0.008471) 
   2   S   20         0.484211   -0.001690 ( -0.004085) 

   3   P    PARAMETER B =        40.150128
   3   P   21       286.899890   56.905890 (  0.033811) 
   3   P   22        62.041833   52.976773 (  0.213447) 
   3   P   23        18.582583   29.003783 (  0.527390) 
   3   P   24         6.248332    5.630554 (  0.399858) 
   3   P   25         2.642841    0.038605 (  0.008037) 
   3   P   26         0.986020    0.017497 (  0.012493) 
   3   P   27         0.367724    0.001725 (  0.004227) 

 N         

   4   S    PARAMETER B =        31.258000
   4   S   28       563.509380    1.997010 (  0.024227) 
   4   S   29        77.387535    3.081501 (  0.165710) 
   4   S   30        17.448549    3.030045 (  0.497989) 
   4   S   31         4.843508    1.049683 (  0.451105) 
   4   S   32         7.820957    0.004448 (  0.001335) 
   4   S   33         0.663302    0.004930 (  0.009411) 
   4   S   34         0.202946    0.001676 (  0.007779) 

 N         

   5   S    PARAMETER B =        31.258000
   5   S   35       563.509380    1.997010 (  0.024227) 
   5   S   36        77.387535    3.081501 (  0.165710) 
   5   S   37        17.448549    3.030045 (  0.497989) 
   5   S   38         4.843508    1.049683 (  0.451105) 
   5   S   39         7.820957    0.004448 (  0.001335) 
   5   S   40         0.663302    0.004930 (  0.009411) 
   5   S   41         0.202946    0.001676 (  0.007779) 

 N         

   6   S    PARAMETER B =        31.258000
   6   S   42       563.509380    1.997010 (  0.024227) 
   6   S   43        77.387535    3.081501 (  0.165710) 
   6   S   44        17.448549    3.030045 (  0.497989) 
   6   S   45         4.843508    1.049683 (  0.451105) 
   6   S   46         7.820957    0.004448 (  0.001335) 
   6   S   47         0.663302    0.004930 (  0.009411) 
   6   S   48         0.202946    0.001676 (  0.007779) 

 N         

   7   S    PARAMETER B =        31.258000
   7   S   49       563.509380    1.997010 (  0.024227) 
   7   S   50        77.387535    3.081501 (  0.165710) 
   7   S   51        17.448549    3.030045 (  0.497989) 
   7   S   52         4.843508    1.049683 (  0.451105) 
   7   S   53         7.820957    0.004448 (  0.001335) 
   7   S   54         0.663302    0.004930 (  0.009411) 
   7   S   55         0.202946    0.001676 (  0.007779) 

 N         

   8   S    PARAMETER B =        31.258000
   8   S   56       563.509380    1.997010 (  0.024227) 
   8   S   57        77.387535    3.081501 (  0.165710) 
   8   S   58        17.448549    3.030045 (  0.497989) 
   8   S   59         4.843508    1.049683 (  0.451105) 
   8   S   60         7.820957    0.004448 (  0.001335) 
   8   S   61         0.663302    0.004930 (  0.009411) 
   8   S   62         0.202946    0.001676 (  0.007779) 

 N         

   9   S    PARAMETER B =        31.258000
   9   S   63       563.509380    1.997010 (  0.024227) 
   9   S   64        77.387535    3.081501 (  0.165710) 
   9   S   65        17.448549    3.030045 (  0.497989) 
   9   S   66         4.843508    1.049683 (  0.451105) 
   9   S   67         7.820957    0.004448 (  0.001335) 
   9   S   68         0.663302    0.004930 (  0.009411) 
   9   S   69         0.202946    0.001676 (  0.007779) 

 N         

  10   S    PARAMETER B =        31.258000
  10   S   70       563.509380    1.997010 (  0.024227) 
  10   S   71        77.387535    3.081501 (  0.165710) 
  10   S   72        17.448549    3.030045 (  0.497989) 
  10   S   73         4.843508    1.049683 (  0.451105) 
  10   S   74         7.820957    0.004448 (  0.001335) 
  10   S   75         0.663302    0.004930 (  0.009411) 
  10   S   76         0.202946    0.001676 (  0.007779) 

 N         

  11   S    PARAMETER B =        31.258000
  11   S   77       563.509380    1.997010 (  0.024227) 
  11   S   78        77.387535    3.081501 (  0.165710) 
  11   S   79        17.448549    3.030045 (  0.497989) 
  11   S   80         4.843508    1.049683 (  0.451105) 
  11   S   81         7.820957    0.004448 (  0.001335) 
  11   S   82         0.663302    0.004930 (  0.009411) 
  11   S   83         0.202946    0.001676 (  0.007779) 

 N         

  12   S    PARAMETER B =        31.258000
  12   S   84       563.509380    1.997010 (  0.024227) 
  12   S   85        77.387535    3.081501 (  0.165710) 
  12   S   86        17.448549    3.030045 (  0.497989) 
  12   S   87         4.843508    1.049683 (  0.451105) 
  12   S   88         7.820957    0.004448 (  0.001335) 
  12   S   89         0.663302    0.004930 (  0.009411) 
  12   S   90         0.202946    0.001676 (  0.007779) 

 N         

  13   S    PARAMETER B =        31.258000
  13   S   91       563.509380    1.997010 (  0.024227) 
  13   S   92        77.387535    3.081501 (  0.165710) 
  13   S   93        17.448549    3.030045 (  0.497989) 
  13   S   94         4.843508    1.049683 (  0.451105) 
  13   S   95         7.820957    0.004448 (  0.001335) 
  13   S   96         0.663302    0.004930 (  0.009411) 
  13   S   97         0.202946    0.001676 (  0.007779) 

 N         

  14   S    PARAMETER B =        31.258000
  14   S   98       563.509380    1.997010 (  0.024227) 
  14   S   99        77.387535    3.081501 (  0.165710) 
  14   S  100        17.448549    3.030045 (  0.497989) 
  14   S  101         4.843508    1.049683 (  0.451105) 
  14   S  102         7.820957    0.004448 (  0.001335) 
  14   S  103         0.663302    0.004930 (  0.009411) 
  14   S  104         0.202946    0.001676 (  0.007779) 

 N         

  15   S    PARAMETER B =        31.258000
  15   S  105       563.509380    1.997010 (  0.024227) 
  15   S  106        77.387535    3.081501 (  0.165710) 
  15   S  107        17.448549    3.030045 (  0.497989) 
  15   S  108         4.843508    1.049683 (  0.451105) 
  15   S  109         7.820957    0.004448 (  0.001335) 
  15   S  110         0.663302    0.004930 (  0.009411) 
  15   S  111         0.202946    0.001676 (  0.007779) 

          ----------------
          PROPERTIES INPUT
          ----------------

     MOMENTS            FIELD           POTENTIAL          DENSITY
 IEMOM =       1   IEFLD =       0   IEPOT =       0   IEDEN =       0
 WHERE =COMASS     WHERE =NUCLEI     WHERE =NUCLEI     WHERE =NUCLEI  
 OUTPUT=BOTH       OUTPUT=BOTH       OUTPUT=BOTH       OUTPUT=BOTH    
 IEMINT=       0   IEFINT=       0                     IEDINT=       0
                                                       MORB  =       0
          EXTRAPOLATION IN EFFECT
          DIIS IN EFFECT
 ORBITAL PRINTING OPTION: NPREO=     1   452     2     1

     -------------------------------
     INTEGRAL TRANSFORMATION OPTIONS
     -------------------------------
     NWORD  =            0
     CUTOFF = 1.0E-09     MPTRAN =       0
     DIRTRF =       T     AOINTS =DUP     

          ----------------------
          INTEGRAL INPUT OPTIONS
          ----------------------
 NOPK  =       1 NORDER=       0 SCHWRZ=       T

     ------------------------------------------
     THE POINT GROUP IS S2N, NAXIS= 2, ORDER= 4
     ------------------------------------------
 .. THE CHARACTERS OF THE -E- REPRESENTATIONS ARE COMPLEX NUMBERS ..

 -- VARIATIONAL SPACE WILL BE RESTRICTED TO PURE SPHERICAL HARMONICS ONLY --
 AFTER EXCLUDING CONTAMINANT COMBINATIONS FROM THE CARTESIAN GAUSSIAN BASIS
 SET, THE NUMBER OF SPHERICAL HARMONICS KEPT IN THE VARIATION SPACE IS  385

     DIMENSIONS OF THE SYMMETRY SUBSPACES ARE
 A   =   97     B   =   98     E   =   95

 ..... DONE SETTING UP THE RUN .....
 STEP CPU TIME =     0.17 TOTAL CPU TIME =        0.2 (    0.0 MIN)
 TOTAL WALL CLOCK TIME=        0.2 SECONDS, CPU UTILIZATION IS  89.47%

                    --------------------------------
                    SINGLE POINT ENERGY AND GRADIENT
                    --------------------------------

          ********************
          1 ELECTRON INTEGRALS
          ********************
 TIME TO DO ORDINARY INTEGRALS=      0.06
 TIME TO DO      MCP INTEGRALS=      0.19
 ...... END OF ONE-ELECTRON INTEGRALS ......
 STEP CPU TIME =     0.25 TOTAL CPU TIME =        0.4 (    0.0 MIN)
 TOTAL WALL CLOCK TIME=        0.4 SECONDS, CPU UTILIZATION IS  97.67%

          -------------
          GUESS OPTIONS
          -------------
          GUESS =HUCKEL            NORB  =       0          NORDER=       1
          MIX   =       F          PRTMO =       F          PUNMO =       F
          TOLZ  = 1.0E-08          TOLE  = 1.0E-05
          SYMDEN=       F          PURIFY=       F

 INITIAL GUESS ORBITALS GENERATED BY HUCKEL   ROUTINE.
 HUCKEL GUESS REQUIRES   1492752 WORDS.

 STATISTICS FOR GENERATION OF SYMMETRY ORBITAL -Q- MATRIX
 NUMBER OF CARTESIAN ATOMIC ORBITALS=        452
 NUMBER OF SPHERICAL CONTAMINANTS DROPPED=    67
 NUMBER OF LINEARLY DEPENDENT MOS DROPPED=     0
 TOTAL NUMBER OF MOS IN VARIATION SPACE=     385

 SYMMETRIES FOR INITIAL GUESS ORBITALS FOLLOW.  ALPHA SET(S).
    37 ORBITALS ARE OCCUPIED (    4 CORE ORBITALS).
     5=B        6=B        7=E        8=E        9=A       10=E       11=E   
    12=B       13=A       14=A       15=B       16=E       17=E       18=B   
    19=E       20=E       21=A       22=B       23=E       24=E       25=B   
    26=A       27=E       28=E       29=A       30=B       31=E       32=E   
    33=B       34=A       35=E       36=E       37=B       38=A       39=E   
    40=E       41=B       42=A       43=A       44=A       45=A       46=A   
    47=A   

 SYMMETRIES FOR INITIAL GUESS ORBITALS FOLLOW.   BETA SET(S).
    36 ORBITALS ARE OCCUPIED (    4 CORE ORBITALS).
     5=B        6=B        7=E        8=E        9=A       10=E       11=E   
    12=B       13=A       14=A       15=B       16=E       17=E       18=B   
    19=E       20=E       21=A       22=B       23=E       24=E       25=B   
    26=A       27=E       28=E       29=A       30=B       31=E       32=E   
    33=B       34=A       35=E       36=E       37=B       38=A       39=E   
    40=E       41=B       42=A       43=A       44=A       45=A       46=A   
 ...... END OF INITIAL ORBITAL SELECTION ......
 STEP CPU TIME =     0.84 TOTAL CPU TIME =        1.3 (    0.0 MIN)
 TOTAL WALL CLOCK TIME=        1.3 SECONDS, CPU UTILIZATION IS  99.21%

                    ----------------------
                    AO INTEGRAL TECHNOLOGY
                    ----------------------
     S,P,L SHELL ROTATED AXIS INTEGRALS, REPROGRAMMED BY
        KAZUYA ISHIMURA (IMS) AND JOSE SIERRA (SYNSTAR).
     S,P,D,L SHELL ROTATED AXIS INTEGRALS PROGRAMMED BY
        KAZUYA ISHIMURA (INSTITUTE FOR MOLECULAR SCIENCE).
     S,P,D,F,G SHELL TO TOTAL QUARTET ANGULAR MOMENTUM SUM 5,
        ERIC PROGRAM BY GRAHAM FLETCHER (ELORET AND NASA ADVANCED
        SUPERCOMPUTING DIVISION, AMES RESEARCH CENTER).
     S,P,D,F,G,L SHELL GENERAL RYS QUADRATURE PROGRAMMED BY
        MICHEL DUPUIS (PACIFIC NORTHWEST NATIONAL LABORATORY).

          --------------------
          2 ELECTRON INTEGRALS
          --------------------

 DIRECT SCF METHOD SKIPS INTEGRAL STORAGE ON DISK.
 DIRECT TRANSFORMATION SKIPS AO INTEGRAL STORAGE ON DISK.
  ...... END OF TWO-ELECTRON INTEGRALS .....
 STEP CPU TIME =     0.01 TOTAL CPU TIME =        1.3 (    0.0 MIN)
 TOTAL WALL CLOCK TIME=        1.3 SECONDS, CPU UTILIZATION IS  98.45%

          ---------------------------
             RO-B3LYP SCF CALCULATION
          ---------------------------

     NUCLEAR ENERGY =       429.0816324746
     MAXIT = 50     NPUNCH=  2     MULT=  2
     EXTRAP=T  DAMP=F  SHIFT=F  RSTRCT=F  DIIS=T  SOSCF=F
         DENSITY MATRIX CONVERGENCE THRESHOLD=  2.00E-05
     COARSE -> FINE DFT GRID SWITCH THRESHOLD=  3.00E-04 (SWITCH IN $DFT)
                   HF -> DFT SWITCH THRESHOLD=  5.00E-03 (SWOFF IN $DFT)
     ROHF CANONICALIZATION PARAMETERS
             C-C     O-O     V-V
     ALPHA -0.5000  0.5000  1.5000
     BETA   1.5000  0.5000 -0.5000
     MEMORY REQUIRED FOR UHF/ROHF ITERS=   2562832 WORDS.

 DIRECT SCF CALCULATION, SCHWRZ=T   FDIFF=T
 SCHWARZ INEQUALITY OVERHEAD:     86308 INTEGRALS, T=        0.10

 DFT CODE IS SWITCHING FROM THE FINE GRID NRAD= 96,  NLEB=  302
                      TO THE COARSE GRID NRAD0= 24, NLEB0=  110

     EXCHANGE FUNCTIONAL   =B88&HFX   
     CORRELATION FUNCTIONAL=LYP88&VWN5
     DFT THRESHOLD         =.106E-07
     GRID CHANGE THRESHOLD =.300E-03
 FOR AN EULER-MACLAURIN QUADRATURE USING  96 RADIAL POINTS:
 SMALLEST GAUSSIAN PRIMITIVE EXPONENT=        0.0322209000 OF TYPE -S-
 ON ATOM NUMBER   1 HAS RADIAL NORMALIZATION=  1.000000
  LARGEST GAUSSIAN PRIMITIVE EXPONENT=      204.8113800000 OF TYPE -S-
 ON ATOM NUMBER   1 HAS RADIAL NORMALIZATION=  1.000000
 DFT IS SWITCHED OFF, PERFORMING PURE SCF UNTIL SWOFF THRESHOLD IS REACHED.

                                                                                NONZERO     BLOCKS
 ITER EX      TOTAL ENERGY        E CHANGE  DENSITY CHANGE    DIIS ERROR      INTEGRALS    SKIPPED
   1  0     -161.4111633045  -161.4111633045   4.101768966   6.817640420      492868631    3699866
          * * *   INITIATING DIIS PROCEDURE   * * *
   2  1     -184.9995926480   -23.5884293435   5.880997538   0.384497791      495022471    3698093
   3  2     -181.8862260499     3.1133665981   5.762266247   0.559943789      494267872    3645073
   4  3     -186.9308041509    -5.0445781010   0.100304464   0.216665061      492573419    3658420
   5  4     -187.2592334942    -0.3284293433   0.084097141   0.064326253      472054930    3916336
   6  5     -187.3284362642    -0.0692027700   0.026793083   0.031299454      460313239    3993164
   7  6     -187.3433402680    -0.0149040038   0.017929453   0.004757160      435887590    4132555
   8  7     -187.3450427081    -0.0017024400   0.012224752   0.002780414      413370640    4247729
   9  8     -187.3457048219    -0.0006621139   0.010469776   0.002472485      402868506    4307078
  10  9     -187.3461523238    -0.0004475019   0.013604470   0.001729331      389753398    4393974
  11 10     -187.3465660661    -0.0004137422   0.011166965   0.001146420      394363188    4364434
  12 11     -187.3467779258    -0.0002118597   0.008093807   0.000612913      389648705    4392953
  13 12     -187.3468489111    -0.0000709853   0.002196307   0.000189065      380718456    4441836
 CONVERGED TO SWOFF, SO DFT CALCULATION IS NOW SWITCHED ON.
          * * *   INITIATING DIIS PROCEDURE   * * *
  14 13     -190.9890866772    -3.6422377661   0.266885803   0.143249225      486159171    3757267
  15 14     -189.7281302548     1.2609564224   0.256729260   0.570108130      476675912    3849818
  16 15     -190.9079273545    -1.1797970997   0.115370349   0.127114538      474600752    3885512
  17 16     -190.7459942551     0.1619330993   0.050925108   0.211804547      470616617    3905188
  18 17     -191.0861325592    -0.3401383041   0.027501905   0.087816909      455662414    3996659
  19 18     -191.1350069059    -0.0488743467   0.009070028   0.015937961      437453842    4110479
  20 19     -191.1379219392    -0.0029150334   0.002839690   0.002995252      409104098    4256554
  21 20     -191.1381137610    -0.0001918218   0.000877047   0.000414063      380817296    4408054
  22 21     -191.1381188232    -0.0000050622   0.000559340   0.000231285      347447876    4592862
  23 22     -191.1381200757    -0.0000012525   0.000485622   0.000052350      323915973    4707673
  24 23     -191.1381204822    -0.0000004065   0.000208833   0.000014444      319861079    4730503
 DFT CODE IS SWITCHING BACK TO THE FINE GRID
          * * *   INITIATING DIIS PROCEDURE   * * *
  25 24     -191.1972429533    -0.0591224711   0.021861376   0.013567775      486384853    3748206
  26 25     -191.1998379100    -0.0025949567   0.016897934   0.008075306      439864405    4118163
  27 26     -191.1940871870     0.0057507230   0.015601391   0.030637453      421475431    4195476
  28 27     -191.1996284797    -0.0055412926   0.003869676   0.009414407      419418179    4217287
  29 28     -191.2005248951    -0.0008964154   0.001314250   0.003026222      399950929    4317681
  30 29     -191.2006305550    -0.0001056600   0.000661396   0.001033710      360221636    4504592
  31 30     -191.2006410423    -0.0000104872   0.000133453   0.000281040      330986039    4670835
  32 31     -191.2006417954    -0.0000007532   0.000034165   0.000026717      310099566    4783149
  33 32     -191.2006418097    -0.0000000142   0.000019176   0.000017652      266040421    4997220
  34 33     -191.2006418131    -0.0000000034   0.000010149   0.000001498      240404154    5119328

          -----------------
          DENSITY CONVERGED
          -----------------
     TIME TO FORM FOCK OPERATORS=     927.7 SECONDS (      27.3 SEC/ITER)
     FOCK TIME ON FIRST ITERATION=      30.1, LAST ITERATION=      23.0
     TIME TO SOLVE SCF EQUATIONS=      26.4 SECONDS (       0.8 SEC/ITER)

 FINAL RO-B3LYP ENERGY IS     -191.2006418131 AFTER  34 ITERATIONS
 DFT EXCHANGE + CORRELATION ENERGY =       -31.5230369055
 TOTAL ELECTRON NUMBER             =        72.9998655015

          --------------------
          SPIN SZ   =    0.500
          S-SQUARED =    0.750
          --------------------

          ------------
          EIGENVECTORS
          ------------

                      1          2          3          4          5
                   -2.7783    -1.7740    -1.7114    -1.7114    -1.1729
                     A          B          E          E          A   
    1  V  1  S    1.027377   0.000000  -0.000000  -0.000000  -0.011828
    2  V  1  S    0.022744   0.000000  -0.000000  -0.000000   0.020810
    3  V  1  S    0.016902   0.000000  -0.000000  -0.000000   0.055164
    4  V  1  S   -0.001495   0.000000  -0.000000  -0.000000  -0.006484
    5  V  1  X   -0.000000   0.000000   1.000320  -0.042873   0.000000
    6  V  1  Y   -0.000000   0.000000   0.042873   1.000320   0.000000
    7  V  1  Z   -0.000000   1.003231  -0.000000  -0.000000   0.000000
    8  V  1  X   -0.000000   0.000000  -0.012973  -0.009368   0.000000
    9  V  1  Y   -0.000000   0.000000   0.009368  -0.012973   0.000000
   10  V  1  Z   -0.000000  -0.005670  -0.000000  -0.000000   0.000000
   11  V  1 XX   -0.002598  -0.000738  -0.000000  -0.000000  -0.000169
   12  V  1 YY   -0.002598   0.000738  -0.000000  -0.000000  -0.000169
   13  V  1 ZZ    0.005196   0.000000  -0.000000  -0.000000   0.000339
   14  V  1 XY   -0.000000   0.001538  -0.000000  -0.000000   0.000000
   15  V  1 XZ   -0.000000   0.000000  -0.000433   0.000987   0.000000
   16  V  1 YZ   -0.000000   0.000000   0.000987   0.000433   0.000000
   17  V  1 XX   -0.001821   0.004767  -0.000000  -0.000000  -0.000787
   18  V  1 YY   -0.001821  -0.004767  -0.000000  -0.000000  -0.000787
   19  V  1 ZZ    0.003642   0.000000  -0.000000  -0.000000   0.001573
   20  V  1 XY   -0.000000  -0.006669  -0.000000  -0.000000   0.000000
   21  V  1 XZ   -0.000000   0.000000   0.006032  -0.006749   0.000000
   22  V  1 YZ   -0.000000   0.000000  -0.006749  -0.006032   0.000000
   23  V  1 XX    0.000346   0.005973  -0.000000  -0.000000   0.002769
   24  V  1 YY    0.000346  -0.005973  -0.000000  -0.000000   0.002769
   25  V  1 ZZ   -0.000692   0.000000  -0.000000  -0.000000  -0.005538
   26  V  1 XY   -0.000000  -0.001433  -0.000000  -0.000000   0.000000
   27  V  1 XZ   -0.000000   0.000000   0.004952  -0.006068   0.000000
   28  V  1 YZ   -0.000000   0.000000  -0.006068  -0.004952   0.000000
   29  V  1 XX    0.000185   0.000252  -0.000000  -0.000000   0.000929
   30  V  1 YY    0.000185  -0.000252  -0.000000  -0.000000   0.000929
   31  V  1 ZZ   -0.000371   0.000000  -0.000000  -0.000000  -0.001858
   32  V  1 XY   -0.000000   0.003411  -0.000000  -0.000000   0.000000
   33  V  1 XZ   -0.000000   0.000000  -0.004093   0.002822   0.000000
   34  V  1 YZ   -0.000000   0.000000   0.002822   0.004093   0.000000
   35  V  1 XXX  -0.000000   0.000000  -0.002361  -0.000685   0.000000
   36  V  1 YYY  -0.000000   0.000000   0.000685  -0.002361   0.000000
   37  V  1 ZZZ  -0.000000   0.000408  -0.000000  -0.000000   0.000000
   38  V  1 XXY  -0.000000   0.000000  -0.000989  -0.001877   0.000000
   39  V  1 XXZ   0.002587  -0.000274  -0.000000  -0.000000   0.002386
   40  V  1 YYX  -0.000000   0.000000  -0.001877   0.000989   0.000000
   41  V  1 YYZ  -0.002587  -0.000274  -0.000000  -0.000000  -0.002386
   42  V  1 ZZX  -0.000000   0.000000   0.005045  -0.000070   0.000000
   43  V  1 ZZY  -0.000000   0.000000   0.000070   0.005045   0.000000
   44  V  1 XYZ  -0.002169   0.000000  -0.000000  -0.000000  -0.001913
   45  N  2  S    0.004152  -0.008956  -0.005729  -0.012446   0.061458
   46  N  2  S    0.007319  -0.016392  -0.009096  -0.024593   0.121551
   47  N  2  S   -0.019874   0.009330  -0.016746   0.033356   0.086241
   48  N  2  X    0.000425  -0.001257   0.000647  -0.001645  -0.022171
   49  N  2  Y    0.001260  -0.003980  -0.002450  -0.003887  -0.004574
   50  N  2  Z    0.000332  -0.001476  -0.001918  -0.003997  -0.015242
   51  N  2  X    0.002942  -0.004332   0.000935  -0.006027  -0.040150
   52  N  2  Y    0.005550  -0.010673  -0.006236  -0.011211  -0.006952
   53  N  2  Z    0.003820  -0.005969  -0.004784  -0.010771  -0.026728
   54  N  2  X    0.000852   0.002097   0.021117  -0.013477  -0.031687
   55  N  2  Y   -0.000865   0.001105   0.007071   0.005031  -0.006393
   56  N  2  Z   -0.001670   0.009509   0.011779  -0.011944  -0.023676
   57  N  2 XX   -0.001041   0.001119   0.001100   0.001171   0.002640
   58  N  2 YY    0.000926  -0.001465  -0.000979  -0.001092  -0.002682
   59  N  2 ZZ    0.000115   0.000347  -0.000121  -0.000079   0.000042
   60  N  2 XY    0.000930  -0.001211  -0.000222  -0.001304   0.001646
   61  N  2 XZ    0.000520  -0.000535   0.000042  -0.001178   0.004644
   62  N  2 YZ    0.001819  -0.002042  -0.001260  -0.002607   0.001184
   63  N  2 XX    0.002964  -0.003243  -0.003377  -0.002716   0.002233
   64  N  2 YY   -0.001826   0.001870   0.003065   0.003661  -0.000586
   65  N  2 ZZ   -0.001138   0.001373   0.000312  -0.000946  -0.001647
   66  N  2 XY   -0.004637   0.004736   0.003091   0.005803   0.000164
   67  N  2 XZ   -0.002807   0.001992  -0.000157   0.005346   0.002743
   68  N  2 YZ   -0.006305   0.007276   0.002362   0.007790   0.000515
   69  N  2 XXX   0.000098  -0.000378   0.000091  -0.000226  -0.000090
   70  N  2 YYY  -0.000467   0.000477   0.000149   0.000484   0.000078
   71  N  2 ZZZ   0.000543  -0.000607  -0.000629  -0.000796  -0.000155
   72  N  2 XXY   0.000972  -0.000941  -0.000335  -0.000912  -0.000084
   73  N  2 XXZ   0.000381  -0.000037   0.000444  -0.000452  -0.000021
   74  N  2 YYX  -0.000291   0.000237  -0.000169   0.000598   0.000019
   75  N  2 YYZ  -0.001110   0.000851   0.000400   0.001521   0.000229
   76  N  2 ZZX   0.000159   0.000270   0.000047  -0.000294   0.000102
   77  N  2 ZZY  -0.000345   0.000301   0.000135   0.000263  -0.000021
   78  N  2 XYZ  -0.000015   0.000161   0.000288   0.000258   0.000130
   79  N  3  S    0.004152   0.008956  -0.012446   0.005729   0.061458
   80  N  3  S    0.007319   0.016392  -0.024593   0.009096   0.121551
   81  N  3  S   -0.019874  -0.009330   0.033356   0.016746   0.086241
   82  N  3  X    0.001260   0.003980  -0.003887   0.002450  -0.004574
   83  N  3  Y   -0.000425  -0.001257   0.001645   0.000647   0.022171
   84  N  3  Z   -0.000332  -0.001476   0.003997  -0.001918   0.015242
   85  N  3  X    0.005550   0.010673  -0.011211   0.006236  -0.006952
   86  N  3  Y   -0.002942  -0.004332   0.006027   0.000935   0.040150
   87  N  3  Z   -0.003820  -0.005969   0.010771  -0.004784   0.026728
   88  N  3  X   -0.000865  -0.001105   0.005031  -0.007071  -0.006393
   89  N  3  Y   -0.000852   0.002097   0.013477   0.021117   0.031687
   90  N  3  Z    0.001670   0.009509   0.011944   0.011779   0.023676
   91  N  3 XX    0.000926   0.001465  -0.001092   0.000979  -0.002682
   92  N  3 YY   -0.001041  -0.001119   0.001171  -0.001100   0.002640
   93  N  3 ZZ    0.000115  -0.000347  -0.000079   0.000121   0.000042
   94  N  3 XY   -0.000930  -0.001211   0.001304  -0.000222  -0.001646
   95  N  3 XZ   -0.001819  -0.002042   0.002607  -0.001260  -0.001184
   96  N  3 YZ    0.000520   0.000535  -0.001178  -0.000042   0.004644
   97  N  3 XX   -0.001826  -0.001870   0.003661  -0.003065  -0.000586
   98  N  3 YY    0.002964   0.003243  -0.002716   0.003377   0.002233
   99  N  3 ZZ   -0.001138  -0.001373  -0.000946  -0.000312  -0.001647
  100  N  3 XY    0.004637   0.004736  -0.005803   0.003091  -0.000164
  101  N  3 XZ    0.006305   0.007276  -0.007790   0.002362  -0.000515
  102  N  3 YZ   -0.002807  -0.001992   0.005346   0.000157   0.002743
  103  N  3 XXX  -0.000467  -0.000477   0.000484  -0.000149   0.000078
  104  N  3 YYY  -0.000098  -0.000378   0.000226   0.000091   0.000090
  105  N  3 ZZZ  -0.000543  -0.000607   0.000796  -0.000629   0.000155
  106  N  3 XXY   0.000291   0.000237  -0.000598  -0.000169  -0.000019
  107  N  3 XXZ   0.001110   0.000851  -0.001521   0.000400  -0.000229
  108  N  3 YYX   0.000972   0.000941  -0.000912   0.000335  -0.000084
  109  N  3 YYZ  -0.000381  -0.000037   0.000452   0.000444   0.000021
  110  N  3 ZZX  -0.000345  -0.000301   0.000263  -0.000135  -0.000021
  111  N  3 ZZY  -0.000159   0.000270   0.000294   0.000047  -0.000102
  112  N  3 XYZ  -0.000015  -0.000161   0.000258  -0.000288   0.000130
  113  N  4  S    0.004152   0.008956   0.012446  -0.005729   0.061458
  114  N  4  S    0.007319   0.016392   0.024593  -0.009096   0.121551
  115  N  4  S   -0.019874  -0.009330  -0.033356  -0.016746   0.086241
  116  N  4  X   -0.001260  -0.003980  -0.003887   0.002450   0.004574
  117  N  4  Y    0.000425   0.001257   0.001645   0.000647  -0.022171
  118  N  4  Z   -0.000332  -0.001476  -0.003997   0.001918   0.015242
  119  N  4  X   -0.005550  -0.010673  -0.011211   0.006236   0.006952
  120  N  4  Y    0.002942   0.004332   0.006027   0.000935  -0.040150
  121  N  4  Z   -0.003820  -0.005969  -0.010771   0.004784   0.026728
  122  N  4  X    0.000865   0.001105   0.005031  -0.007071   0.006393
  123  N  4  Y    0.000852  -0.002097   0.013477   0.021117  -0.031687
  124  N  4  Z    0.001670   0.009509  -0.011944  -0.011779   0.023676
  125  N  4 XX    0.000926   0.001465   0.001092  -0.000979  -0.002682
  126  N  4 YY   -0.001041  -0.001119  -0.001171   0.001100   0.002640
  127  N  4 ZZ    0.000115  -0.000347   0.000079  -0.000121   0.000042
  128  N  4 XY   -0.000930  -0.001211  -0.001304   0.000222  -0.001646
  129  N  4 XZ    0.001819   0.002042   0.002607  -0.001260   0.001184
  130  N  4 YZ   -0.000520  -0.000535  -0.001178  -0.000042  -0.004644
  131  N  4 XX   -0.001826  -0.001870  -0.003661   0.003065  -0.000586
  132  N  4 YY    0.002964   0.003243   0.002716  -0.003377   0.002233
  133  N  4 ZZ   -0.001138  -0.001373   0.000946   0.000312  -0.001647
  134  N  4 XY    0.004637   0.004736   0.005803  -0.003091  -0.000164
  135  N  4 XZ   -0.006305  -0.007276  -0.007790   0.002362   0.000515
  136  N  4 YZ    0.002807   0.001992   0.005346   0.000157  -0.002743
  137  N  4 XXX   0.000467   0.000477   0.000484  -0.000149  -0.000078
  138  N  4 YYY   0.000098   0.000378   0.000226   0.000091  -0.000090
  139  N  4 ZZZ  -0.000543  -0.000607  -0.000796   0.000629   0.000155
  140  N  4 XXY  -0.000291  -0.000237  -0.000598  -0.000169   0.000019
  141  N  4 XXZ   0.001110   0.000851   0.001521  -0.000400  -0.000229
  142  N  4 YYX  -0.000972  -0.000941  -0.000912   0.000335   0.000084
  143  N  4 YYZ  -0.000381  -0.000037  -0.000452  -0.000444   0.000021
  144  N  4 ZZX   0.000345   0.000301   0.000263  -0.000135   0.000021
  145  N  4 ZZY   0.000159  -0.000270   0.000294   0.000047   0.000102
  146  N  4 XYZ  -0.000015  -0.000161  -0.000258   0.000288   0.000130
  147  N  5  S    0.004152  -0.008956   0.005729   0.012446   0.061458
  148  N  5  S    0.007319  -0.016392   0.009096   0.024593   0.121551
  149  N  5  S   -0.019874   0.009330   0.016746  -0.033356   0.086241
  150  N  5  X   -0.000425   0.001257   0.000647  -0.001645   0.022171
  151  N  5  Y   -0.001260   0.003980  -0.002450  -0.003887   0.004574
  152  N  5  Z    0.000332  -0.001476   0.001918   0.003997  -0.015242
  153  N  5  X   -0.002942   0.004332   0.000935  -0.006027   0.040150
  154  N  5  Y   -0.005550   0.010673  -0.006236  -0.011211   0.006952
  155  N  5  Z    0.003820  -0.005969   0.004784   0.010771  -0.026728
  156  N  5  X   -0.000852  -0.002097   0.021117  -0.013477   0.031687
  157  N  5  Y    0.000865  -0.001105   0.007071   0.005031   0.006393
  158  N  5  Z   -0.001670   0.009509  -0.011779   0.011944  -0.023676
  159  N  5 XX   -0.001041   0.001119  -0.001100  -0.001171   0.002640
  160  N  5 YY    0.000926  -0.001465   0.000979   0.001092  -0.002682
  161  N  5 ZZ    0.000115   0.000347   0.000121   0.000079   0.000042
  162  N  5 XY    0.000930  -0.001211   0.000222   0.001304   0.001646
  163  N  5 XZ   -0.000520   0.000535   0.000042  -0.001178  -0.004644
  164  N  5 YZ   -0.001819   0.002042  -0.001260  -0.002607  -0.001184
  165  N  5 XX    0.002964  -0.003243   0.003377   0.002716   0.002233
  166  N  5 YY   -0.001826   0.001870  -0.003065  -0.003661  -0.000586
  167  N  5 ZZ   -0.001138   0.001373  -0.000312   0.000946  -0.001647
  168  N  5 XY   -0.004637   0.004736  -0.003091  -0.005803   0.000164
  169  N  5 XZ    0.002807  -0.001992  -0.000157   0.005346  -0.002743
  170  N  5 YZ    0.006305  -0.007276   0.002362   0.007790  -0.000515
  171  N  5 XXX  -0.000098   0.000378   0.000091  -0.000226   0.000090
  172  N  5 YYY   0.000467  -0.000477   0.000149   0.000484  -0.000078
  173  N  5 ZZZ   0.000543  -0.000607   0.000629   0.000796  -0.000155
  174  N  5 XXY  -0.000972   0.000941  -0.000335  -0.000912   0.000084
  175  N  5 XXZ   0.000381  -0.000037  -0.000444   0.000452  -0.000021
  176  N  5 YYX   0.000291  -0.000237  -0.000169   0.000598  -0.000019
  177  N  5 YYZ  -0.001110   0.000851  -0.000400  -0.001521   0.000229
  178  N  5 ZZX  -0.000159  -0.000270   0.000047  -0.000294  -0.000102
  179  N  5 ZZY   0.000345  -0.000301   0.000135   0.000263   0.000021
  180  N  5 XYZ  -0.000015   0.000161  -0.000288  -0.000258   0.000130
  181  N  6  S    0.000301  -0.001023  -0.001027  -0.001135   0.131117
  182  N  6  S    0.001795  -0.001835  -0.002079  -0.001121   0.266119
  183  N  6  S    0.000408   0.005915   0.030032  -0.027669   0.009641
  184  N  6  X   -0.000282  -0.000112  -0.000243   0.000076  -0.006543
  185  N  6  Y    0.000221  -0.000631  -0.000627  -0.000530  -0.003717
  186  N  6  Z   -0.000027  -0.000299  -0.000580  -0.000293  -0.005804
  187  N  6  X    0.002823  -0.002368   0.000354  -0.004007  -0.006448
  188  N  6  Y   -0.000767   0.001390   0.001484   0.000778  -0.004574
  189  N  6  Z    0.001198  -0.000423   0.000828  -0.002250  -0.006402
  190  N  6  X    0.010234  -0.008623   0.004374  -0.022512  -0.032801
  191  N  6  Y    0.002728  -0.005289  -0.003259  -0.010240  -0.011559
  192  N  6  Z    0.007648  -0.011280   0.002098  -0.015618  -0.024784
  193  N  6 XX   -0.000066  -0.000108   0.000036   0.000099   0.005504
  194  N  6 YY   -0.000017   0.000109   0.000137   0.000128  -0.005467
  195  N  6 ZZ    0.000082  -0.000001  -0.000173  -0.000227  -0.000037
  196  N  6 XY    0.000324  -0.000313  -0.000090  -0.000231   0.004168
  197  N  6 XZ    0.000054   0.000037  -0.000054  -0.000148   0.010381
  198  N  6 YZ    0.000140  -0.000042   0.000113  -0.000050   0.003157
  199  N  6 XX    0.003936  -0.003144  -0.001738  -0.005207  -0.005869
  200  N  6 YY   -0.002288   0.002465   0.000288   0.003140   0.005975
  201  N  6 ZZ   -0.001648   0.000679   0.001449   0.002067  -0.000106
  202  N  6 XY   -0.003434   0.003887   0.002167   0.002351  -0.003697
  203  N  6 XZ    0.001247  -0.002409   0.000292  -0.003704  -0.011115
  204  N  6 YZ   -0.002864   0.002438   0.001397   0.001732  -0.002986
  205  N  6 XXX   0.000234  -0.000180  -0.000024  -0.000202   0.000335
  206  N  6 YYY   0.000051  -0.000091   0.000009  -0.000198   0.000570
  207  N  6 ZZZ  -0.000255   0.000299   0.000345   0.000363   0.000435
  208  N  6 XXY  -0.000058   0.000231  -0.000005   0.000259  -0.000488
  209  N  6 XXZ   0.000467  -0.000489  -0.000408  -0.000442  -0.000716
  210  N  6 YYX  -0.000358   0.000386   0.000153   0.000188   0.000102
  211  N  6 YYZ  -0.000125   0.000088  -0.000055  -0.000045   0.000133
  212  N  6 ZZX   0.000044  -0.000144  -0.000121   0.000082  -0.000551
  213  N  6 ZZY  -0.000011  -0.000108  -0.000007   0.000007  -0.000277
  214  N  6 XYZ  -0.000043  -0.000063  -0.000095   0.000154  -0.000827
  215  N  7  S    0.000301   0.001023  -0.001135   0.001027   0.131117
  216  N  7  S    0.001795   0.001835  -0.001121   0.002079   0.266119
  217  N  7  S    0.000408  -0.005915  -0.027669  -0.030032   0.009641
  218  N  7  X    0.000221   0.000631  -0.000530   0.000627  -0.003717
  219  N  7  Y    0.000282  -0.000112  -0.000076  -0.000243   0.006543
  220  N  7  Z    0.000027  -0.000299   0.000293  -0.000580   0.005804
  221  N  7  X   -0.000767  -0.001390   0.000778  -0.001484  -0.004574
  222  N  7  Y   -0.002823  -0.002368   0.004007   0.000354   0.006448
  223  N  7  Z   -0.001198  -0.000423   0.002250   0.000828   0.006402
  224  N  7  X    0.002728   0.005289  -0.010240   0.003259  -0.011559
  225  N  7  Y   -0.010234  -0.008623   0.022512   0.004374   0.032801
  226  N  7  Z   -0.007648  -0.011280   0.015618   0.002098   0.024784
  227  N  7 XX   -0.000017  -0.000109   0.000128  -0.000137  -0.005467
  228  N  7 YY   -0.000066   0.000108   0.000099  -0.000036   0.005504
  229  N  7 ZZ    0.000082   0.000001  -0.000227   0.000173  -0.000037
  230  N  7 XY   -0.000324  -0.000313   0.000231  -0.000090  -0.004168
  231  N  7 XZ   -0.000140  -0.000042   0.000050   0.000113  -0.003157
  232  N  7 YZ    0.000054  -0.000037  -0.000148   0.000054   0.010381
  233  N  7 XX   -0.002288  -0.002465   0.003140  -0.000288   0.005975
  234  N  7 YY    0.003936   0.003144  -0.005207   0.001738  -0.005869
  235  N  7 ZZ   -0.001648  -0.000679   0.002067  -0.001449  -0.000106
  236  N  7 XY    0.003434   0.003887  -0.002351   0.002167   0.003697
  237  N  7 XZ    0.002864   0.002438  -0.001732   0.001397   0.002986
  238  N  7 YZ    0.001247   0.002409  -0.003704  -0.000292  -0.011115
  239  N  7 XXX   0.000051   0.000091  -0.000198  -0.000009   0.000570
  240  N  7 YYY  -0.000234  -0.000180   0.000202  -0.000024  -0.000335
  241  N  7 ZZZ   0.000255   0.000299  -0.000363   0.000345  -0.000435
  242  N  7 XXY   0.000358   0.000386  -0.000188   0.000153  -0.000102
  243  N  7 XXZ   0.000125   0.000088   0.000045  -0.000055  -0.000133
  244  N  7 YYX  -0.000058  -0.000231   0.000259   0.000005  -0.000488
  245  N  7 YYZ  -0.000467  -0.000489   0.000442  -0.000408   0.000716
  246  N  7 ZZX  -0.000011   0.000108   0.000007   0.000007  -0.000277
  247  N  7 ZZY  -0.000044  -0.000144  -0.000082  -0.000121   0.000551
  248  N  7 XYZ  -0.000043   0.000063   0.000154   0.000095  -0.000827
  249  N  8  S    0.000301   0.001023   0.001135  -0.001027   0.131117
  250  N  8  S    0.001795   0.001835   0.001121  -0.002079   0.266119
  251  N  8  S    0.000408  -0.005915   0.027669   0.030032   0.009641
  252  N  8  X   -0.000221  -0.000631  -0.000530   0.000627   0.003717
  253  N  8  Y   -0.000282   0.000112  -0.000076  -0.000243  -0.006543
  254  N  8  Z    0.000027  -0.000299  -0.000293   0.000580   0.005804
  255  N  8  X    0.000767   0.001390   0.000778  -0.001484   0.004574
  256  N  8  Y    0.002823   0.002368   0.004007   0.000354  -0.006448
  257  N  8  Z   -0.001198  -0.000423  -0.002250  -0.000828   0.006402
  258  N  8  X   -0.002728  -0.005289  -0.010240   0.003259   0.011559
  259  N  8  Y    0.010234   0.008623   0.022512   0.004374  -0.032801
  260  N  8  Z   -0.007648  -0.011280  -0.015618  -0.002098   0.024784
  261  N  8 XX   -0.000017  -0.000109  -0.000128   0.000137  -0.005467
  262  N  8 YY   -0.000066   0.000108  -0.000099   0.000036   0.005504
  263  N  8 ZZ    0.000082   0.000001   0.000227  -0.000173  -0.000037
  264  N  8 XY   -0.000324  -0.000313  -0.000231   0.000090  -0.004168
  265  N  8 XZ    0.000140   0.000042   0.000050   0.000113   0.003157
  266  N  8 YZ   -0.000054   0.000037  -0.000148   0.000054  -0.010381
  267  N  8 XX   -0.002288  -0.002465  -0.003140   0.000288   0.005975
  268  N  8 YY    0.003936   0.003144   0.005207  -0.001738  -0.005869
  269  N  8 ZZ   -0.001648  -0.000679  -0.002067   0.001449  -0.000106
  270  N  8 XY    0.003434   0.003887   0.002351  -0.002167   0.003697
  271  N  8 XZ   -0.002864  -0.002438  -0.001732   0.001397  -0.002986
  272  N  8 YZ   -0.001247  -0.002409  -0.003704  -0.000292   0.011115
  273  N  8 XXX  -0.000051  -0.000091  -0.000198  -0.000009  -0.000570
  274  N  8 YYY   0.000234   0.000180   0.000202  -0.000024   0.000335
  275  N  8 ZZZ   0.000255   0.000299   0.000363  -0.000345  -0.000435
  276  N  8 XXY  -0.000358  -0.000386  -0.000188   0.000153   0.000102
  277  N  8 XXZ   0.000125   0.000088  -0.000045   0.000055  -0.000133
  278  N  8 YYX   0.000058   0.000231   0.000259   0.000005   0.000488
  279  N  8 YYZ  -0.000467  -0.000489  -0.000442   0.000408   0.000716
  280  N  8 ZZX   0.000011  -0.000108   0.000007   0.000007   0.000277
  281  N  8 ZZY   0.000044   0.000144  -0.000082  -0.000121  -0.000551
  282  N  8 XYZ  -0.000043   0.000063  -0.000154  -0.000095  -0.000827
  283  N  9  S    0.000301  -0.001023   0.001027   0.001135   0.131117
  284  N  9  S    0.001795  -0.001835   0.002079   0.001121   0.266119
  285  N  9  S    0.000408   0.005915  -0.030032   0.027669   0.009641
  286  N  9  X    0.000282   0.000112  -0.000243   0.000076   0.006543
  287  N  9  Y   -0.000221   0.000631  -0.000627  -0.000530   0.003717
  288  N  9  Z   -0.000027  -0.000299   0.000580   0.000293  -0.005804
  289  N  9  X   -0.002823   0.002368   0.000354  -0.004007   0.006448
  290  N  9  Y    0.000767  -0.001390   0.001484   0.000778   0.004574
  291  N  9  Z    0.001198  -0.000423  -0.000828   0.002250  -0.006402
  292  N  9  X   -0.010234   0.008623   0.004374  -0.022512   0.032801
  293  N  9  Y   -0.002728   0.005289  -0.003259  -0.010240   0.011559
  294  N  9  Z    0.007648  -0.011280  -0.002098   0.015618  -0.024784
  295  N  9 XX   -0.000066  -0.000108  -0.000036  -0.000099   0.005504
  296  N  9 YY   -0.000017   0.000109  -0.000137  -0.000128  -0.005467
  297  N  9 ZZ    0.000082  -0.000001   0.000173   0.000227  -0.000037
  298  N  9 XY    0.000324  -0.000313   0.000090   0.000231   0.004168
  299  N  9 XZ   -0.000054  -0.000037  -0.000054  -0.000148  -0.010381
  300  N  9 YZ   -0.000140   0.000042   0.000113  -0.000050  -0.003157
  301  N  9 XX    0.003936  -0.003144   0.001738   0.005207  -0.005869
  302  N  9 YY   -0.002288   0.002465  -0.000288  -0.003140   0.005975
  303  N  9 ZZ   -0.001648   0.000679  -0.001449  -0.002067  -0.000106
  304  N  9 XY   -0.003434   0.003887  -0.002167  -0.002351  -0.003697
  305  N  9 XZ   -0.001247   0.002409   0.000292  -0.003704   0.011115
  306  N  9 YZ    0.002864  -0.002438   0.001397   0.001732   0.002986
  307  N  9 XXX  -0.000234   0.000180  -0.000024  -0.000202  -0.000335
  308  N  9 YYY  -0.000051   0.000091   0.000009  -0.000198  -0.000570
  309  N  9 ZZZ  -0.000255   0.000299  -0.000345  -0.000363   0.000435
  310  N  9 XXY   0.000058  -0.000231  -0.000005   0.000259   0.000488
  311  N  9 XXZ   0.000467  -0.000489   0.000408   0.000442  -0.000716
  312  N  9 YYX   0.000358  -0.000386   0.000153   0.000188  -0.000102
  313  N  9 YYZ  -0.000125   0.000088   0.000055   0.000045   0.000133
  314  N  9 ZZX  -0.000044   0.000144  -0.000121   0.000082   0.000551
  315  N  9 ZZY   0.000011   0.000108  -0.000007   0.000007   0.000277
  316  N  9 XYZ  -0.000043  -0.000063   0.000095  -0.000154  -0.000827
  317  N 10  S    0.000023  -0.000000  -0.000069   0.000020   0.076419
  318  N 10  S   -0.000250   0.001054  -0.000223   0.002256   0.153030
  319  N 10  S    0.011022  -0.014518  -0.006499  -0.016100   0.030421
  320  N 10  X   -0.000276   0.000104  -0.000038   0.000024   0.028965
  321  N 10  Y   -0.000028  -0.000094   0.000011  -0.000143   0.009382
  322  N 10  Z    0.000187  -0.000007   0.000064  -0.000018   0.021742
  323  N 10  X    0.001359  -0.001016  -0.001111  -0.000790   0.046742
  324  N 10  Y   -0.001394   0.001255   0.000362   0.001297   0.015880
  325  N 10  Z    0.000656  -0.000434  -0.000042   0.000531   0.035371
  326  N 10  X    0.003315  -0.005424  -0.003826  -0.003933   0.003535
  327  N 10  Y   -0.000566   0.001082   0.001817   0.001150   0.002043
  328  N 10  Z    0.001968  -0.001977  -0.001461  -0.002540   0.002612
  329  N 10 XX   -0.000006   0.000132   0.000130   0.000008   0.002854
  330  N 10 YY   -0.000017  -0.000071  -0.000130  -0.000047  -0.002935
  331  N 10 ZZ    0.000023  -0.000061   0.000000   0.000038   0.000081
  332  N 10 XY    0.000073  -0.000094  -0.000096  -0.000141   0.002466
  333  N 10 XZ    0.000130  -0.000071   0.000042  -0.000084   0.005667
  334  N 10 YZ    0.000112  -0.000163  -0.000127  -0.000147   0.001864
  335  N 10 XX    0.001419  -0.001632  -0.001270  -0.001307   0.000710
  336  N 10 YY   -0.001031   0.001300   0.000924   0.001040  -0.000695
  337  N 10 ZZ   -0.000387   0.000332   0.000346   0.000267  -0.000016
  338  N 10 XY   -0.001012   0.001374   0.000860   0.001341   0.001616
  339  N 10 XZ    0.000403  -0.000405  -0.000278  -0.000196   0.002102
  340  N 10 YZ   -0.001231   0.001557   0.001108   0.001464   0.001295
  341  N 10 XXX   0.000206  -0.000174  -0.000131  -0.000183  -0.000116
  342  N 10 YYY   0.000112  -0.000125  -0.000136  -0.000042  -0.000366
  343  N 10 ZZZ   0.000001  -0.000069  -0.000098   0.000064  -0.000334
  344  N 10 XXY  -0.000034   0.000083   0.000055  -0.000041   0.000337
  345  N 10 XXZ   0.000168  -0.000085   0.000092  -0.000266   0.000571
  346  N 10 YYX  -0.000231   0.000226   0.000034   0.000248  -0.000154
  347  N 10 YYZ  -0.000169   0.000178   0.000039   0.000180  -0.000123
  348  N 10 ZZX  -0.000046   0.000007   0.000142  -0.000002   0.000310
  349  N 10 ZZY  -0.000116   0.000084   0.000127   0.000097   0.000154
  350  N 10 XYZ  -0.000223   0.000252   0.000237   0.000120   0.000517
  351  N 11  S    0.000023   0.000000   0.000020   0.000069   0.076419
  352  N 11  S   -0.000250  -0.001054   0.002256   0.000223   0.153030
  353  N 11  S    0.011022   0.014518  -0.016100   0.006499   0.030421
  354  N 11  X   -0.000028   0.000094  -0.000143  -0.000011   0.009382
  355  N 11  Y    0.000276   0.000104  -0.000024  -0.000038  -0.028965
  356  N 11  Z   -0.000187  -0.000007   0.000018   0.000064  -0.021742
  357  N 11  X   -0.001394  -0.001255   0.001297  -0.000362   0.015880
  358  N 11  Y   -0.001359  -0.001016   0.000790  -0.001111  -0.046742
  359  N 11  Z   -0.000656  -0.000434  -0.000531  -0.000042  -0.035371
  360  N 11  X   -0.000566  -0.001082   0.001150  -0.001817   0.002043
  361  N 11  Y   -0.003315  -0.005424   0.003933  -0.003826  -0.003535
  362  N 11  Z   -0.001968  -0.001977   0.002540  -0.001461  -0.002612
  363  N 11 XX   -0.000017   0.000071  -0.000047   0.000130  -0.002935
  364  N 11 YY   -0.000006  -0.000132   0.000008  -0.000130   0.002854
  365  N 11 ZZ    0.000023   0.000061   0.000038  -0.000000   0.000081
  366  N 11 XY   -0.000073  -0.000094   0.000141  -0.000096  -0.002466
  367  N 11 XZ   -0.000112  -0.000163   0.000147  -0.000127  -0.001864
  368  N 11 YZ    0.000130   0.000071  -0.000084  -0.000042   0.005667
  369  N 11 XX   -0.001031  -0.001300   0.001040  -0.000924  -0.000695
  370  N 11 YY    0.001419   0.001632  -0.001307   0.001270   0.000710
  371  N 11 ZZ   -0.000387  -0.000332   0.000267  -0.000346  -0.000016
  372  N 11 XY    0.001012   0.001374  -0.001341   0.000860  -0.001616
  373  N 11 XZ    0.001231   0.001557  -0.001464   0.001108  -0.001295
  374  N 11 YZ    0.000403   0.000405  -0.000196   0.000278   0.002102
  375  N 11 XXX   0.000112   0.000125  -0.000042   0.000136  -0.000366
  376  N 11 YYY  -0.000206  -0.000174   0.000183  -0.000131   0.000116
  377  N 11 ZZZ  -0.000001  -0.000069  -0.000064  -0.000098   0.000334
  378  N 11 XXY   0.000231   0.000226  -0.000248   0.000034   0.000154
  379  N 11 XXZ   0.000169   0.000178  -0.000180   0.000039   0.000123
  380  N 11 YYX  -0.000034  -0.000083  -0.000041  -0.000055   0.000337
  381  N 11 YYZ  -0.000168  -0.000085   0.000266   0.000092  -0.000571
  382  N 11 ZZX  -0.000116  -0.000084   0.000097  -0.000127   0.000154
  383  N 11 ZZY   0.000046   0.000007   0.000002   0.000142  -0.000310
  384  N 11 XYZ  -0.000223  -0.000252   0.000120  -0.000237   0.000517
  385  N 12  S    0.000023   0.000000  -0.000020  -0.000069   0.076419
  386  N 12  S   -0.000250  -0.001054  -0.002256  -0.000223   0.153030
  387  N 12  S    0.011022   0.014518   0.016100  -0.006499   0.030421
  388  N 12  X    0.000028  -0.000094  -0.000143  -0.000011  -0.009382
  389  N 12  Y   -0.000276  -0.000104  -0.000024  -0.000038   0.028965
[...]
            277  N  8 XXZ     0.00456     0.08384
            278  N  8 YYX     0.00278     0.12182
            279  N  8 YYZ     0.00211     0.12287
            280  N  8 ZZX     0.00000     0.10346
            281  N  8 ZZY     0.00000     0.09778
            282  N  8 XYZ     0.00000     0.00770
            283  N  9  S      0.01053     0.05328
            284  N  9  S      1.05507     0.25096
            285  N  9  S      0.05390     0.15369
            286  N  9  X      0.25818     0.22595
            287  N  9  Y      0.23987     0.21814
            288  N  9  Z      0.25087     0.22638
            289  N  9  X      0.61996     0.29817
            290  N  9  Y      0.63315     0.28276
            291  N  9  Z      0.63017     0.30063
            292  N  9  X      0.25950     0.20961
            293  N  9  Y      0.29917     0.20093
            294  N  9  Z      0.27758     0.20494
            295  N  9 XX      0.00773     0.14972
            296  N  9 YY      0.00644     0.11856
            297  N  9 ZZ      0.00690     0.13896
            298  N  9 XY      0.00711     0.00696
            299  N  9 XZ      0.00415     0.00600
            300  N  9 YZ      0.00000     0.00434
            301  N  9 XX      0.03400     0.15394
            302  N  9 YY      0.00896     0.05028
            303  N  9 ZZ      0.02534     0.11040
            304  N  9 XY     -0.01312     0.08040
            305  N  9 XZ      0.01481     0.07518
            306  N  9 YZ      0.00000     0.04795
            307  N  9 XXX     0.00211     0.23858
            308  N  9 YYY     0.00222     0.18414
            309  N  9 ZZZ     0.00456     0.21771
            310  N  9 XXY     0.00109     0.12182
            311  N  9 XXZ     0.00054     0.12287
            312  N  9 YYX     0.00278     0.07704
            313  N  9 YYZ     0.00187     0.08384
            314  N  9 ZZX     0.00000     0.09778
            315  N  9 ZZY     0.00000     0.10346
            316  N  9 XYZ     0.00000     0.00770
            317  N 10  S      0.01261     0.05277
            318  N 10  S      1.15314     0.34018
            319  N 10  S      0.51694     0.28972
            320  N 10  X      0.23603     0.21082
            321  N 10  Y      0.21690     0.19802
            322  N 10  Z      0.22791     0.20694
            323  N 10  X      0.57289     0.30263
            324  N 10  Y      0.55570     0.26806
            325  N 10  Z      0.56638     0.29125
            326  N 10  X      0.28187     0.22882
            327  N 10  Y      0.31543     0.22969
            328  N 10  Z      0.30275     0.23169
            329  N 10 XX      0.00327     0.17334
            330  N 10 YY      0.00383     0.17237
            331  N 10 ZZ      0.00354     0.17360
            332  N 10 XY      0.00627     0.00368
            333  N 10 XZ      0.00216     0.00847
            334  N 10 YZ      0.00000     0.00235
            335  N 10 XX      0.01208     0.11443
            336  N 10 YY      0.00857     0.10030
            337  N 10 ZZ      0.01013     0.10957
            338  N 10 XY      0.00720     0.02196
            339  N 10 XZ      0.00628     0.02980
            340  N 10 YZ      0.00000     0.01375
            341  N 10 XXX     0.00093     0.25106
            342  N 10 YYY     0.00089     0.18871
            343  N 10 ZZZ     0.00196     0.22403
            344  N 10 XXY     0.00047     0.11197
            345  N 10 XXZ     0.00028     0.11652
            346  N 10 YYX     0.00122     0.09307
            347  N 10 YYZ     0.00076     0.09152
            348  N 10 ZZX     0.00000     0.10746
            349  N 10 ZZY     0.00000     0.09933
            350  N 10 XYZ     0.00000     0.00619
            351  N 11  S      0.01261     0.05277
            352  N 11  S      1.15314     0.34018
            353  N 11  S      0.51694     0.28972
            354  N 11  X      0.21690     0.19802
            355  N 11  Y      0.23603     0.21082
            356  N 11  Z      0.22791     0.20694
            357  N 11  X      0.55570     0.26806
            358  N 11  Y      0.57289     0.30263
            359  N 11  Z      0.56638     0.29125
            360  N 11  X      0.31543     0.22969
            361  N 11  Y      0.28187     0.22882
            362  N 11  Z      0.30275     0.23169
            363  N 11 XX      0.00327     0.17237
            364  N 11 YY      0.00383     0.17334
            365  N 11 ZZ      0.00354     0.17360
            366  N 11 XY      0.00216     0.00368
            367  N 11 XZ      0.00627     0.00235
            368  N 11 YZ      0.00000     0.00847
            369  N 11 XX      0.01208     0.10030
            370  N 11 YY      0.00857     0.11443
            371  N 11 ZZ      0.01013     0.10957
            372  N 11 XY      0.00628     0.02196
            373  N 11 XZ      0.00720     0.01375
            374  N 11 YZ      0.00000     0.02980
            375  N 11 XXX     0.00076     0.18871
            376  N 11 YYY     0.00089     0.25106
            377  N 11 ZZZ     0.00028     0.22403
            378  N 11 XXY     0.00047     0.09307
            379  N 11 XXZ     0.00196     0.09152
            380  N 11 YYX     0.00122     0.11197
            381  N 11 YYZ     0.00093     0.11652
            382  N 11 ZZX     0.00000     0.09933
            383  N 11 ZZY     0.00000     0.10746
            384  N 11 XYZ     0.00000     0.00619
            385  N 12  S      0.01261     0.05277
            386  N 12  S      1.15314     0.34018
            387  N 12  S      0.51694     0.28972
            388  N 12  X      0.21690     0.19802
            389  N 12  Y      0.23603     0.21082
            390  N 12  Z      0.22791     0.20694
            391  N 12  X      0.55570     0.26806
            392  N 12  Y      0.57289     0.30263
            393  N 12  Z      0.56638     0.29125
            394  N 12  X      0.31543     0.22969
            395  N 12  Y      0.28187     0.22882
            396  N 12  Z      0.30275     0.23169
            397  N 12 XX      0.00327     0.17237
            398  N 12 YY      0.00383     0.17334
            399  N 12 ZZ      0.00354     0.17360
            400  N 12 XY      0.00216     0.00368
            401  N 12 XZ      0.00627     0.00235
            402  N 12 YZ      0.00000     0.00847
            403  N 12 XX      0.01208     0.10030
            404  N 12 YY      0.00857     0.11443
            405  N 12 ZZ      0.01013     0.10957
            406  N 12 XY      0.00628     0.02196
            407  N 12 XZ      0.00720     0.01375
            408  N 12 YZ      0.00000     0.02980
            409  N 12 XXX     0.00076     0.18871
            410  N 12 YYY     0.00089     0.25106
            411  N 12 ZZZ     0.00028     0.22403
            412  N 12 XXY     0.00047     0.09307
            413  N 12 XXZ     0.00196     0.09152
            414  N 12 YYX     0.00122     0.11197
            415  N 12 YYZ     0.00093     0.11652
            416  N 12 ZZX     0.00000     0.09933
            417  N 12 ZZY     0.00000     0.10746
            418  N 12 XYZ     0.00000     0.00619
            419  N 13  S      0.01261     0.05277
            420  N 13  S      1.15314     0.34018
            421  N 13  S      0.51694     0.28972
            422  N 13  X      0.23603     0.21082
            423  N 13  Y      0.21690     0.19802
            424  N 13  Z      0.22791     0.20694
            425  N 13  X      0.57289     0.30263
            426  N 13  Y      0.55570     0.26806
            427  N 13  Z      0.56638     0.29125
            428  N 13  X      0.28187     0.22882
            429  N 13  Y      0.31543     0.22969
            430  N 13  Z      0.30275     0.23169
            431  N 13 XX      0.00327     0.17334
            432  N 13 YY      0.00383     0.17237
            433  N 13 ZZ      0.00354     0.17360
            434  N 13 XY      0.00627     0.00368
            435  N 13 XZ      0.00216     0.00847
            436  N 13 YZ      0.00000     0.00235
            437  N 13 XX      0.01208     0.11443
            438  N 13 YY      0.00857     0.10030
            439  N 13 ZZ      0.01013     0.10957
            440  N 13 XY      0.00720     0.02196
            441  N 13 XZ      0.00628     0.02980
            442  N 13 YZ      0.00000     0.01375
            443  N 13 XXX     0.00093     0.25106
            444  N 13 YYY     0.00089     0.18871
            445  N 13 ZZZ     0.00196     0.22403
            446  N 13 XXY     0.00047     0.11197
            447  N 13 XXZ     0.00028     0.11652
            448  N 13 YYX     0.00122     0.09307
            449  N 13 YYZ     0.00076     0.09152
            450  N 13 ZZX     0.00000     0.10746
            451  N 13 ZZY     0.00000     0.09933
            452  N 13 XYZ     0.00000     0.00619

          ----- MULLIKEN ATOMIC OVERLAP POPULATIONS -----
          (OFF-DIAGONAL ELEMENTS NEED TO BE MULTIPLIED BY 2)

             1           2           3           4           5

    1   11.1479627
    2    0.2752735   5.2412714
    3    0.2752735  -0.0046219   5.2412714
    4    0.2752735  -0.0046219  -0.0048780   5.2412714
    5    0.2752735  -0.0048780  -0.0046219  -0.0046219   5.2412714
    6   -0.0514964   0.0601429  -0.0005834  -0.0008884  -0.0005387
    7   -0.0514964  -0.0008884   0.0601429  -0.0005387  -0.0005834
    8   -0.0514964  -0.0005834  -0.0005387   0.0601429  -0.0008884
    9   -0.0514964  -0.0005387  -0.0008884  -0.0005834   0.0601429
   10    0.0029499  -0.0581006  -0.0000301  -0.0000149   0.0000478
   11    0.0029499  -0.0000149  -0.0581006   0.0000478  -0.0000301
   12    0.0029499  -0.0000301   0.0000478  -0.0581006  -0.0000149
   13    0.0029499   0.0000478  -0.0000149  -0.0000301  -0.0581006

             6           7           8           9          10

    6    3.8875386
    7   -0.0000466   3.8875386
    8   -0.0000466  -0.0000641   3.8875386
    9   -0.0000641  -0.0000466  -0.0000466   3.8875386
   10    0.8114110   0.0000088   0.0000001   0.0000059   4.2721052
   11    0.0000001   0.8114110   0.0000059   0.0000088  -0.0000001
   12    0.0000088   0.0000059   0.8114110   0.0000001  -0.0000001
   13    0.0000059   0.0000001   0.0000088   0.8114110  -0.0000010

            11          12          13

   11    4.2721052
   12   -0.0000010   4.2721052
   13   -0.0000001  -0.0000001   4.2721052

          TOTAL MULLIKEN AND LOWDIN ATOMIC POPULATIONS
       ATOM         MULL.POP.    CHARGE          LOW.POP.     CHARGE
    1 V            12.054871    0.945129        12.638595    0.361405
    2 N             5.502457   -0.502457         5.203221   -0.203221
    3 N             5.502457   -0.502457         5.203221   -0.203221
    4 N             5.502457   -0.502457         5.203221   -0.203221
    5 N             5.502457   -0.502457         5.203221   -0.203221
    6 N             4.705443    0.294557         4.823053    0.176947
    7 N             4.705443    0.294557         4.823053    0.176947
    8 N             4.705443    0.294557         4.823053    0.176947
    9 N             4.705443    0.294557         4.823053    0.176947
   10 N             5.028382   -0.028382         5.064077   -0.064077
   11 N             5.028382   -0.028382         5.064077   -0.064077
   12 N             5.028382   -0.028382         5.064077   -0.064077
   13 N             5.028382   -0.028382         5.064077   -0.064077

          MULLIKEN SPHERICAL HARMONIC POPULATIONS
       ATOM           S       P       D      F      G      H      I    TOTAL
    1 V             2.34    6.41    3.27   0.05   0.00   0.00   0.00   12.05
    2 N             1.81    3.66    0.03   0.01   0.00   0.00   0.00    5.50
    3 N             1.81    3.66    0.03   0.01   0.00   0.00   0.00    5.50
    4 N             1.81    3.66    0.03   0.01   0.00   0.00   0.00    5.50
    5 N             1.81    3.66    0.03   0.01   0.00   0.00   0.00    5.50
    6 N             1.12    3.47    0.10   0.02   0.00   0.00   0.00    4.71
    7 N             1.12    3.47    0.10   0.02   0.00   0.00   0.00    4.71
    8 N             1.12    3.47    0.10   0.02   0.00   0.00   0.00    4.71
    9 N             1.12    3.47    0.10   0.02   0.00   0.00   0.00    4.71
   10 N             1.68    3.28    0.06   0.01   0.00   0.00   0.00    5.03
   11 N             1.68    3.28    0.06   0.01   0.00   0.00   0.00    5.03
   12 N             1.68    3.28    0.06   0.01   0.00   0.00   0.00    5.03
   13 N             1.68    3.28    0.06   0.01   0.00   0.00   0.00    5.03

          -------------------------------
          BOND ORDER AND VALENCE ANALYSIS     BOND ORDER THRESHOLD=0.050
          -------------------------------

                   BOND                       BOND                       BOND
  ATOM PAIR DIST  ORDER      ATOM PAIR DIST  ORDER      ATOM PAIR DIST  ORDER
    1   2  1.841  0.969        1   3  1.841  0.969        1   4  1.841  0.969
    1   5  1.841  0.969        1  10  3.935  0.166        1  11  3.935  0.166
    1  12  3.935  0.166        1  13  3.935  0.166        2   6  1.212  1.380
    2  10  2.370  0.414        3   7  1.212  1.380        3  11  2.370  0.414
    4   8  1.212  1.380        4  12  2.370  0.414        5   9  1.212  1.380
    5  13  2.370  0.414        6  10  1.159  2.507        7  11  1.159  2.507
    8  12  1.159  2.507        9  13  1.159  2.507

                       TOTAL       BONDED        FREE
      ATOM            VALENCE     VALENCE     VALENCE
    1 V                 5.429       4.661       0.768
    2 N                 2.824       2.824       0.000
    3 N                 2.824       2.824       0.000
    4 N                 2.824       2.824       0.000
    5 N                 2.824       2.824       0.000
    6 N                 3.931       3.931       0.000
    7 N                 3.931       3.931       0.000
    8 N                 3.931       3.931       0.000
    9 N                 3.931       3.931       0.000
   10 N                 3.137       3.137       0.000
   11 N                 3.137       3.137       0.000
   12 N                 3.137       3.137       0.000
   13 N                 3.137       3.137       0.000

          -----------------------------------------
          ATOMIC SPIN DENSITY AT THE NUCLEUS (A.U.)
          -----------------------------------------
                            SPIN DENS    ALPHA DENS     BETA DENS
    1  V           13.0    -0.0000000      25.04099      25.04099
    2  N            5.0     0.0123935       2.25783       2.24543
    3  N            5.0     0.0123935       2.25783       2.24543
    4  N            5.0     0.0123935       2.25783       2.24543
    5  N            5.0     0.0123935       2.25783       2.24543
    6  N            5.0     0.0088347       2.16100       2.15216
    7  N            5.0     0.0088347       2.16100       2.15216
    8  N            5.0     0.0088347       2.16100       2.15216
    9  N            5.0     0.0088347       2.16100       2.15216
   10  N            5.0     0.0001463       2.43273       2.43259
   11  N            5.0     0.0001463       2.43273       2.43259
   12  N            5.0     0.0001463       2.43273       2.43259
   13  N            5.0     0.0001463       2.43273       2.43259

          ---------------------
          ELECTROSTATIC MOMENTS
          ---------------------

 POINT   1           X           Y           Z (BOHR)    CHARGE
                -0.000000   -0.000000    0.000000       -0.00 (A.U.)
         DX          DY          DZ         /D/  (DEBYE)
    -0.000000   -0.000000    0.000000    0.000000
 ...... END OF PROPERTY EVALUATION ......
 STEP CPU TIME =     1.33 TOTAL CPU TIME =      957.8 (   16.0 MIN)
 TOTAL WALL CLOCK TIME=      958.1 SECONDS, CPU UTILIZATION IS  99.97%

 BEGINNING ONE ELECTRON GRADIENT...
 TIME TO DO ORDINARY GRADIENT INTEGRALS=      0.51
 TIME TO DO      MCP GRADIENT INTEGRALS=      4.06
 ..... END OF 1-ELECTRON GRADIENT ......
 STEP CPU TIME =     4.57 TOTAL CPU TIME =      962.4 (   16.0 MIN)
 TOTAL WALL CLOCK TIME=      962.7 SECONDS, CPU UTILIZATION IS  99.97%

          ----------------------
          GRADIENT OF THE ENERGY
          ----------------------
 MEMORY FOR GRID POINT CONTRIBUTIONS TO THE DFT GRADIENT=   1468012 WORDS.
 STEP CPU TIME =    35.17 TOTAL CPU TIME =      997.6 (   16.6 MIN)
 TOTAL WALL CLOCK TIME=      997.9 SECONDS, CPU UTILIZATION IS  99.97%

 THE MINIMUM MEMORY REQUIRED FOR THIS RUN IS     726587 WORDS.
 USING    3010817 WORDS FOR 2E- DERIVATIVE INTEGRAL CONTRIBUTIONS.
 THE COARSE/FINE SCHWARZ SCREENINGS SKIPPED      2816779/     1120833 BLOCKS.
 THE NUMBER OF GRADIENT INTEGRAL BLOCKS COMPUTED WAS   1413141
 ...... END OF 2-ELECTRON GRADIENT ......
 STEP CPU TIME =    45.61 TOTAL CPU TIME =     1043.2 (   17.4 MIN)
 TOTAL WALL CLOCK TIME=     1043.6 SECONDS, CPU UTILIZATION IS  99.97%

                         ----------------------
                         GRADIENT OF THE ENERGY
                         ----------------------

 UNITS ARE HARTREE/BOHR    E'X               E'Y               E'Z 
    1 V                0.000000000       0.000000000       0.000000000
    2 N                0.004952901       0.010170017       0.008711022
    3 N                0.010170017      -0.004952901      -0.008711022
    4 N               -0.010170017       0.004952901      -0.008711022
    5 N               -0.004952901      -0.010170017       0.008711022
    6 N                0.053502001       0.017284376       0.039927644
    7 N                0.017284376      -0.053502001      -0.039927644
    8 N               -0.017284376       0.053502001      -0.039927644
    9 N               -0.053502001      -0.017284376       0.039927644
   10 N               -0.054296042      -0.017584901      -0.040706661
   11 N               -0.017584901       0.054296042       0.040706661
   12 N                0.017584901      -0.054296042       0.040706661
   13 N                0.054296042       0.017584901      -0.040706661

                   MAXIMUM GRADIENT =    0.054296042
                       RMS GRADIENT =    0.031822576
  $VIB   
          IVIB=   0 IATOM=   0 ICOORD=   0 E=     -191.2006418131
  0.000000000E+00 0.000000000E+00 0.000000000E+00 4.952901210E-03 1.017001654E-02
  8.711022134E-03 1.017001654E-02-4.952901210E-03-8.711022134E-03-1.017001654E-02
  4.952901210E-03-8.711022134E-03-4.952901210E-03-1.017001654E-02 8.711022134E-03
  5.350200063E-02 1.728437610E-02 3.992764438E-02 1.728437610E-02-5.350200063E-02
 -3.992764438E-02-1.728437610E-02 5.350200063E-02-3.992764438E-02-5.350200063E-02
 -1.728437610E-02 3.992764438E-02-5.429604221E-02-1.758490086E-02-4.070666067E-02
 -1.758490086E-02 5.429604221E-02 4.070666067E-02 1.758490086E-02-5.429604221E-02
  4.070666067E-02 5.429604221E-02 1.758490086E-02-4.070666067E-02
 -1.020408853E-12-3.792670071E-13 1.806033367E-14

..... END OF SINGLE POINT GRADIENT .....
 STEP CPU TIME =     0.00 TOTAL CPU TIME =     1043.2 (   17.4 MIN)
 TOTAL WALL CLOCK TIME=     1043.6 SECONDS, CPU UTILIZATION IS  99.97%
              3010973  WORDS OF DYNAMIC MEMORY USED
 EXECUTION OF GAMESS TERMINATED NORMALLY Wed Aug  9 21:24:20 2017
 DDI: 263640 bytes (0.3 MB / 0 MWords) used by master data server.

 ----------------------------------------
 CPU timing information for all processes
 ========================================
 0: 1043.09 + 0.198 = 1043.208
 ----------------------------------------
 ddikick.x: exited gracefully.
unset echo
----- accounting info -----
Files used on the master node compute-0-7.local were:
-rw-rw-r-- 1 sarom sarom 2.3K Aug  9 21:06 /scratch/mcp-vn12.F05
-rw-rw-r-- 1 sarom sarom  23M Aug  9 21:24 /scratch/mcp-vn12.F10
-rw-rw-r-- 1 sarom sarom 3.4M Aug  9 21:17 /scratch/mcp-vn12.F22
rm: No match.
ls: No match.
ls: No match.
ls: No match.
Wed Aug  9 21:24:23 CDT 2017
0.244u 0.175s 17:27.19 0.0%	0+0k 8+360io 0pf+0w
/opt/gridengine/default/spool/compute-0-7/active_jobs/36022.1/pe_hostfile compute-0-7.local
