----- GAMESS execution script 'rungms' -----
This job is running on host alpha1
under operating system Linux at Tue Feb 25 22:30:15 JST 2020
Available scratch disk space (Kbyte units) at beginning of the job is
Filesystem      1K-blocks      Used Available Use% Mounted on
/dev/sda2      1440803456 586714104 780830808  43% /scr
GAMESS temporary binary files will be written to /scr/asada3
GAMESS supplementary output files will be written to /scr/asada3
Copying input file exam02.inp to your run's scratch directory...
Deleting old files...
Using 6 nodes and 36 cores from machine1.lst.

 Distributed Data Interface kickoff program.
 Initiating 36 compute processes on 6 nodes to run the following command:
 /home/users/asada3/haruta/bin/gamess-dev/gamess/gamess.00.x exam02 

          ******************************************************
          *         GAMESS VERSION = 30 SEP 2018 (R3)         *
          *             FROM IOWA STATE UNIVERSITY             *
          * M.W.SCHMIDT, K.K.BALDRIDGE, J.A.BOATZ, S.T.ELBERT, *
          *   M.S.GORDON, J.H.JENSEN, S.KOSEKI, N.MATSUNAGA,   *
          *          K.A.NGUYEN, S.J.SU, T.L.WINDUS,           *
          *       TOGETHER WITH M.DUPUIS, J.A.MONTGOMERY       *
          *         J.COMPUT.CHEM.  14, 1347-1363(1993)        *
          **************** 64 BIT INTEL VERSION ****************

  SINCE 1993, STUDENTS AND POSTDOCS WORKING AT IOWA STATE UNIVERSITY
  AND ALSO IN THEIR VARIOUS JOBS AFTER LEAVING ISU HAVE MADE IMPORTANT
  CONTRIBUTIONS TO THE CODE:
     IVANA ADAMOVIC, CHRISTINE AIKENS, YURI ALEXEEV, POOJA ARORA,
     ANDREY ASADCHEV, ROB BELL, PRADIPTA BANDYOPADHYAY, JONATHAN BENTZ,
     BRETT BODE, KURT BRORSEN, CALEB CARLIN, GALINA CHABAN, WEI CHEN,
     CHEOL HO CHOI, PAUL DAY, ALBERT DEFUSCO, NUWAN DESILVA, TIM DUDLEY,
     DMITRI FEDOROV, ALEX FINDLATER, GRAHAM FLETCHER, MARK FREITAG,
     KURT GLAESEMANN, ANASTASIA GUNINA,
     DAN KEMP, GRANT MERRILL, NORIYUKI MINEZAWA, JONATHAN MULLIN,
     TAKESHI NAGATA, SEAN NEDD, HEATHER NETZLOFF, BOSILJKA NJEGIC, RYAN OLSON,
     MIKE PAK, BUU PHAM,
     SPENCER PRUITT, LUKE ROSKOP, JIM SHOEMAKER, LYUDMILA SLIPCHENKO,
     TONY SMITH, SAROM SOK LEANG, JIE SONG, TETSUYA TAKETSUGU, SIMON WEBB,
     PENG XU, SOOHAENG YOO, FEDERICO ZAHARIEV

  ADDITIONAL CODE HAS BEEN PROVIDED BY COLLABORATORS IN OTHER GROUPS:
     IOWA STATE UNIVERSITY:
          JOE IVANIC, AARON WEST, LAIMUTIS BYTAUTAS, KLAUS RUEDENBERG
     UNIVERSITY OF TOKYO: KIMIHIKO HIRAO, TAKAHITO NAKAJIMA,
          TAKAO TSUNEDA, MUNEAKI KAMIYA, SUSUMU YANAGISAWA,
          KIYOSHI YAGI, MAHITO CHIBA, SEIKEN TOKURA, NAOAKI KAWAKAMI
     UNIVERSITY OF AARHUS: FRANK JENSEN
     UNIVERSITY OF IOWA: VISVALDAS KAIRYS, HUI LI
     NATIONAL INST. OF STANDARDS AND TECHNOLOGY: WALT STEVENS, DAVID GARMER
     UNIVERSITY OF PISA: BENEDETTA MENNUCCI, JACOPO TOMASI
     UNIVERSITY OF MEMPHIS: HENRY KURTZ, PRAKASHAN KORAMBATH
     UNIVERSITY OF ALBERTA: TOBY ZENG, MARIUSZ KLOBUKOWSKI
     UNIVERSITY OF NEW ENGLAND: MARK SPACKMAN
     MIE UNIVERSITY: HIROAKI UMEDA
     NAT. INST. OF ADVANCED INDUSTRIAL SCIENCE AND TECHNOLOGY: KAZUO KITAURA
     MICHIGAN STATE UNIVERSITY:
          KAROL KOWALSKI, MARTA WLOCH, JEFFREY GOUR, JESSE LUTZ,
          WEI LI, JUN SHEN, J. EMILIANO DEUSTUA, PIOTR PIECUCH
     UNIVERSITY OF MINNESOTA:
          YINAN SHU
     UNIVERSITY OF SILESIA: MONIKA MUSIAL, STANISLAW KUCHARSKI
     FACULTES UNIVERSITAIRES NOTRE-DAME DE LA PAIX:
          OLIVIER QUINET, BENOIT CHAMPAGNE
     UNIVERSITY OF CALIFORNIA - SANTA BARBARA: BERNARD KIRTMAN
     INSTITUTE FOR MOLECULAR SCIENCE:
          KAZUYA ISHIMURA, MICHIO KATOUDA, AND SHIGERU NAGASE
     UNIVERSITY OF NOTRE DAME: ANNA POMOGAEVA, DAN CHIPMAN
     KYUSHU UNIVERSITY:
          HARUYUKI NAKANO,
          FENG LONG GU, JACEK KORCHOWIEC, MARCIN MAKOWSKI, AND YURIKO AOKI,
          HIROTOSHI MORI AND EISAKU MIYOSHI
     PENNSYLVANIA STATE UNIVERSITY:
          TZVETELIN IORDANOV, CHET SWALINA, JONATHAN SKONE,
          SHARON HAMMES-SCHIFFER
     WASEDA UNIVERSITY:
          MASATO KOBAYASHI, TOMOKO AKAMA, TSUGUKI TOUMA,
          TAKESHI YOSHIKAWA, YASUHIRO IKABATA, JUNJI SEINO,
          YUYA NAKAJIMA, HIROMI NAKAI
     NANJING UNIVERSITY: SHUHUA LI
     UNIVERSITY OF NEBRASKA:
          PEIFENG SU, DEJUN SI, NANDUN THELLAMUREGE, YALI WANG, HUI LI
     UNIVERSITY OF ZURICH: ROBERTO PEVERATI, KIM BALDRIDGE
     N. COPERNICUS UNIVERSITY AND JACKSON STATE UNIVERSITY:
          MARIA BARYSZ
     UNIVERSITY OF COPENHAGEN: Jimmy Kromann, CASPER STEINMANN
     TOKYO INSTITUTE OF TECHNOLOGY: HIROYA NAKATA
     NAGOYA UNIVERSITY: YOSHIO NISHIMOTO, STEPHAN IRLE
     MOSCOW STATE UNIVERSITY: VLADIMIR MIRONOV


 PARALLEL VERSION RUNNING ON       36 PROCESSORS IN        6 NODES.

 EXECUTION OF GAMESS BEGUN Tue Feb 25 22:30:17 2020

            ECHO OF THE FIRST FEW INPUT CARDS -
 INPUT CARD>! Ethane bond rotation M06-2X/6-31++G(d,p)                                      
 INPUT CARD> $SCF    DIRSCF=.TRUE. $END                                                     
 INPUT CARD> $CONTRL RUNTYP=NEBPATH $END                                                    
 INPUT CARD> $CONTRL INTTYP=HONDO ICUT=21 ITOL=31 MAXIT=200 $END                            
 INPUT CARD> $CONTRL SCFTYP=RHF DFTTYP=M06-2X ICHARG=0 MULT=1 $END                          
 INPUT CARD> $BASIS  NGAUSS=6 GBASIS=N31 DIFFSP=.TRUE. DIFFS=.TRUE. NDFUNC=1 NPFUNC=1 $END  
 INPUT CARD> $SYSTEM MWORDS=1000 MEMDDI=200 TIMLIM=99999999 KDIAG=0 $END                    
 INPUT CARD> $NEB    IMAGES=15 MORINT=.TRUE. SPFORC=300.9 OPTTOL=3.0 $END                   
 INPUT CARD>                                                                                
 INPUT CARD> $DATA                                                                          
 INPUT CARD>ethane                                                                          
 INPUT CARD>C1                                                                              
 INPUT CARD>C           6.0  -0.0000741764   0.0000581432  -0.7636382576                    
 INPUT CARD>C           6.0  -0.0000472835  -0.0000628505   0.7636339864                    
 INPUT CARD>H           1.0   0.8829414307  -0.4953160036  -1.1564915921                    
 INPUT CARD>H           1.0  -0.0125734706   1.0125307442  -1.1563101750                    
 INPUT CARD>H           1.0  -0.8706019711  -0.5169519906  -1.1564798905                    
 INPUT CARD>H           1.0   0.8704806153   0.5169447850   1.1564821043                    
 INPUT CARD>H           1.0  -0.8830581509   0.4953145108   1.1564923867                    
 INPUT CARD>H           1.0   0.0124600065  -1.0125333384   1.1563114377                    
 INPUT CARD> $END                                                                           
 INPUT CARD>                                                                                
 INPUT CARD> $DATAPD                                                                        
 INPUT CARD>C           6.0  -0.0001034910   0.0000596312  -0.7636341788                    
 INPUT CARD>C           6.0   0.0000694937  -0.0000214039   0.7636338184                    
 INPUT CARD>H           1.0   0.8828888802  -0.4953026212  -1.1565516700                    
 INPUT CARD>H           1.0  -0.0126218366   1.0125095211  -1.1563610031                    
 INPUT CARD>H           1.0  -0.8706904311  -0.5169486060  -1.1563450601                    
 INPUT CARD>H           1.0  -0.8829089046   0.4953658906   1.1565523355                    
 INPUT CARD>H           1.0   0.0125976236  -1.0124694074   1.1563589483                    
 INPUT CARD>H           1.0   0.8706476658   0.5170039957   1.1563468098                    
 INPUT CARD> $END                                                                           
 INPUT CARD>                                                                                
 1000000000 WORDS OF MEMORY AVAILABLE

     BASIS OPTIONS
     -------------
     GBASIS=N31          IGAUSS=       6      POLAR=POPN31  
     NDFUNC=       1     NFFUNC=       0     DIFFSP=       T
     NPFUNC=       1      DIFFS=       T     BASNAM=        


     RUN TITLE
     ---------
 ethane                                                                          

 THE POINT GROUP OF THE MOLECULE IS C1      
 THE ORDER OF THE PRINCIPAL AXIS IS     0

 ATOM      ATOMIC                      COORDINATES (BOHR)
           CHARGE         X                   Y                   Z
 C           6.0    -0.0001401731        0.0001098747       -1.4430670606
 C           6.0    -0.0000893529       -0.0001187702        1.4430589892
 H           1.0     1.6685173672       -0.9360115241       -2.1854522162
 H           1.0    -0.0237604141        1.9134056607       -2.1851093876
 H           1.0    -1.6451991697       -0.9768976110       -2.1854301034
 H           1.0     1.6449698405        0.9768839944        2.1854342868
 H           1.0    -1.6687379364        0.9360087032        2.1854537177
 H           1.0     0.0235459981       -1.9134105630        2.1851117737

          INTERNUCLEAR DISTANCES (ANGS.)
          ------------------------------

                1 C          2 C          3 H          4 H          5 H     

   1 C       0.0000000    1.5272722 *  1.0860230 *  1.0860240 *  1.0860215 *
   2 C       1.5272722 *  0.0000000    2.1706743 *  2.1706424 *  2.1706859 *
   3 H       1.0860230 *  2.1706743 *  0.0000000    1.7537243 *  1.7536769 *
   4 H       1.0860240 *  2.1706424 *  1.7537243 *  0.0000000    1.7537190 *
   5 H       1.0860215 *  2.1706859 *  1.7536769 *  1.7537190 *  0.0000000  
   6 H       2.1706911 *  1.0860227 *  2.5248118 *  2.5247570 *  3.0741022  
   7 H       2.1706776 *  1.0860224 *  3.0740849    2.5247400 *  2.5248127 *
   8 H       2.1706463 *  1.0860242 *  2.5247395 *  3.0740413    2.5247580 *

                6 H          7 H          8 H     

   1 C       2.1706911 *  2.1706776 *  2.1706463 *
   2 C       1.0860227 *  1.0860224 *  1.0860242 *
   3 H       2.5248118 *  3.0740849    2.5247395 *
   4 H       2.5247570 *  2.5247400 *  3.0740413  
   5 H       3.0741022    2.5248127 *  2.5247580 *
   6 H       0.0000000    1.7536722 *  1.7537111 *
   7 H       1.7536722 *  0.0000000    1.7537269 *
   8 H       1.7537111 *  1.7537269 *  0.0000000  

  * ... LESS THAN  3.000


     ATOMIC BASIS SET
     ----------------
 THE CONTRACTED PRIMITIVE FUNCTIONS HAVE BEEN UNNORMALIZED
 THE CONTRACTED BASIS FUNCTIONS ARE NOW NORMALIZED TO UNITY

  SHELL TYPE  PRIMITIVE        EXPONENT          CONTRACTION COEFFICIENT(S)

 C         

      1   S       1          3047.5248800    0.001834737132
      1   S       2           457.3695180    0.014037322813
      1   S       3           103.9486850    0.068842622264
      1   S       4            29.2101553    0.232184443216
      1   S       5             9.2866630    0.467941348435
      1   S       6             3.1639270    0.362311985337

      2   L       7             7.8682723   -0.119332419775    0.068999066591
      2   L       8             1.8812885   -0.160854151696    0.316423960957
      2   L       9             0.5442493    1.143456437840    0.744308290898

      3   L      10             0.1687145    1.000000000000    1.000000000000

      4   L      11             0.0438000    1.000000000000    1.000000000000

      5   D      12             0.8000000    1.000000000000

 C         

      6   S      13          3047.5248800    0.001834737132
      6   S      14           457.3695180    0.014037322813
      6   S      15           103.9486850    0.068842622264
      6   S      16            29.2101553    0.232184443216
      6   S      17             9.2866630    0.467941348435
      6   S      18             3.1639270    0.362311985337

      7   L      19             7.8682723   -0.119332419775    0.068999066591
      7   L      20             1.8812885   -0.160854151696    0.316423960957
      7   L      21             0.5442493    1.143456437840    0.744308290898

      8   L      22             0.1687145    1.000000000000    1.000000000000

      9   L      23             0.0438000    1.000000000000    1.000000000000

     10   D      24             0.8000000    1.000000000000

 H         

     11   S      25            18.7311370    0.033494604338
     11   S      26             2.8253944    0.234726953484
     11   S      27             0.6401217    0.813757326146

     12   S      28             0.1612778    1.000000000000

     13   S      29             0.0360000    1.000000000000

     14   P      30             1.1000000    1.000000000000

 H         

     15   S      31            18.7311370    0.033494604338
     15   S      32             2.8253944    0.234726953484
     15   S      33             0.6401217    0.813757326146

     16   S      34             0.1612778    1.000000000000

     17   S      35             0.0360000    1.000000000000

     18   P      36             1.1000000    1.000000000000

 H         

     19   S      37            18.7311370    0.033494604338
     19   S      38             2.8253944    0.234726953484
     19   S      39             0.6401217    0.813757326146

     20   S      40             0.1612778    1.000000000000

     21   S      41             0.0360000    1.000000000000

     22   P      42             1.1000000    1.000000000000

 H         

     23   S      43            18.7311370    0.033494604338
     23   S      44             2.8253944    0.234726953484
     23   S      45             0.6401217    0.813757326146

     24   S      46             0.1612778    1.000000000000

     25   S      47             0.0360000    1.000000000000

     26   P      48             1.1000000    1.000000000000

 H         

     27   S      49            18.7311370    0.033494604338
     27   S      50             2.8253944    0.234726953484
     27   S      51             0.6401217    0.813757326146

     28   S      52             0.1612778    1.000000000000

     29   S      53             0.0360000    1.000000000000

     30   P      54             1.1000000    1.000000000000

 H         

     31   S      55            18.7311370    0.033494604338
     31   S      56             2.8253944    0.234726953484
     31   S      57             0.6401217    0.813757326146

     32   S      58             0.1612778    1.000000000000

     33   S      59             0.0360000    1.000000000000

     34   P      60             1.1000000    1.000000000000

 TOTAL NUMBER OF BASIS SET SHELLS             =   34
 NUMBER OF CARTESIAN GAUSSIAN BASIS FUNCTIONS =   74
 NUMBER OF ELECTRONS                          =   18
 CHARGE OF MOLECULE                           =    0
 SPIN MULTIPLICITY                            =    1
 NUMBER OF OCCUPIED ORBITALS (ALPHA)          =    9
 NUMBER OF OCCUPIED ORBITALS (BETA )          =    9
 TOTAL NUMBER OF ATOMS                        =    8
 THE NUCLEAR REPULSION ENERGY IS       42.3756333846

     LEBEDEV GRID-BASED DFT OPTIONS
     ------------------------------
     DFTTYP=M06-2X  
     NRAD  =      99     NLEB  =     590
     NRAD0 =      24     NLEB0 =     110
     SWOFF =    5.00E-03 (PURE SCF -> DFT)
     SWITCH=    3.00E-04 (COARSE -> TIGHT GRID)
     THRESH=    0.00E+00 GTHRE=    1.00E+00

 GRIMME'S EMPIRICAL DISPERSION CORRECTION= F

     $CONTRL OPTIONS
     ---------------
 SCFTYP=RHF          RUNTYP=NEBPATH      EXETYP=RUN     
 MPLEVL=       0     CITYP =NONE         CCTYP =NONE         VBTYP =NONE    
 DFTTYP=M06-2X       TDDFT =NONE    
 MULT  =       1     ICHARG=       0     NZVAR =       0     COORD =UNIQUE  
 PP    =NONE         RELWFN=NONE         LOCAL =NONE         NUMGRD=       F
 ISPHER=      -1     NOSYM =       0     MAXIT =     200     UNITS =ANGS    
 PLTORB=       F     MOLPLT=       F     AIMPAC=       F     FRIEND=        
 NPRINT=       7     IREST =       0     GEOM  =INPUT   
 NORMF =       0     NORMP =       0     ITOL  =      31     ICUT  =      21
 INTTYP=BEST         GRDTYP=BEST         QMTTOL= 1.0E-06

     $SYSTEM OPTIONS
     ---------------
  REPLICATED MEMORY=  1000000000 WORDS (ON EVERY NODE).
 DISTRIBUTED MEMDDI=         200 MILLION WORDS IN AGGREGATE,
 MEMDDI DISTRIBUTED OVER  36 PROCESSORS IS     5555555 WORDS/PROCESSOR.
 TOTAL MEMORY REQUESTED ON EACH PROCESSOR=  1005555555 WORDS.
 TIMLIM=    99999999.00 MINUTES, OR   69444.4 DAYS.
 PARALL= T  BALTYP=  DLB     KDIAG=    0  COREFL= F
 MXSEQ2=     300 MXSEQ3=     150  mem10=         0

          ----------------
          PROPERTIES INPUT
          ----------------

     MOMENTS            FIELD           POTENTIAL          DENSITY
 IEMOM =       1   IEFLD =       0   IEPOT =       0   IEDEN =       0
 WHERE =COMASS     WHERE =NUCLEI     WHERE =NUCLEI     WHERE =NUCLEI  
 OUTPUT=BOTH       OUTPUT=BOTH       OUTPUT=BOTH       OUTPUT=BOTH    
 IEMINT=       0   IEFINT=       0                     IEDINT=       0
                                                       MORB  =       0
          EXTRAPOLATION IN EFFECT
          DIIS IN EFFECT
 ORBITAL PRINTING OPTION: NPREO=     1    74     2     1

     -------------------------------
     INTEGRAL TRANSFORMATION OPTIONS
     -------------------------------
     NWORD  =            0
     CUTOFF = 1.0E-09     MPTRAN =       0
     DIRTRF =       T     AOINTS =DUP     

          ----------------------
          INTEGRAL INPUT OPTIONS
          ----------------------
 NOPK  =       1 NORDER=       0 SCHWRZ=       T

     ------------------------------------------
     THE POINT GROUP IS C1 , NAXIS= 0, ORDER= 1
     ------------------------------------------

     DIMENSIONS OF THE SYMMETRY SUBSPACES ARE
 A   =   74

 ..... DONE SETTING UP THE RUN .....
 CPU     0: STEP CPU TIME=     0.04 TOTAL CPU TIME=          0.0 (      0.0 MIN)
 TOTAL WALL CLOCK TIME=          0.0 SECONDS, CPU UTILIZATION IS   100.00%

          ---------------------------------------
          Nudged Elastic Band / String Pathfinder
          ---------------------------------------
                                        Version 3
          implemented in March 2019
           by Nozomi Sawada, Mamoru Haruta, Toshio Asada, and Shiro Koseki,
          Osaka Prefecture University, Japan.
          Reference: Chem Phys Lett in progress.

     $NEB OPTIONS
     ------------
 Parallel computation                   (GOPARR) = T
 Output log level (1=minimum,9=maximum) (NPRINT) =        1
 Number of images                       (IMAGES) =       15
 Maximum cycle number                   (MAXCYC) =      500
 Method of path optimizing              (METHOD) = NEB     
 Tangent vector definition              (TANGNT) = ORIGINAL
 Unit for coordinates                   (UNTCRD) = ANGS    
 Unit for constants                     (UNTCNT) = ANGS    
 Generate initial guess MOs at first    (INIGSS) = T
 Generate initial guess MOs every time  (EVRGSS) = F
 Restart option                         (RESTRT) = F
 Number of the cycles                   (ISTART) =        0
 Caution for molecular orientation      (MORINT) = T
 Caution for molecular symmetry         (MOLSYM) = F
 Via-point structure                    (VIAPNT) = F
 Transition-state search                (TSLOCT) = F
 Optimizer                              (OPTMZR) = QUICKMIN
 Interpolation method for making images (INTERP) = IDPP    
 Coordinate fitting between images      (FITTNG) = ANGULAR 
 First end image condition              (FSTEND) = FIXED   
 Last end image condition               (LSTEND) = FIXED   
 Delta r for Climbing-end               (DELTAR) =    0.00000 [angs]
                                                 =    0.00000 [bohr]
 Dist change cycletime for climbing-end (SWCYCL) =        1
 Distance multiplier for optimizer      (DELTAT) =    0.01000 [angs/sqrt(kcal/mol)]
                                                 =    0.47338 [bohr/sqrt(hartree)]
 Spring force constant                  (SPFORC) =  300.90000 [kcal/mol/(angs^2)]
                                                 =    0.13428 [hartree/(bohr^2)]
 Tolerance for geometrical optimization (OPTTOL) =    3.00000 [kcal/mol/angs]
                                                 =    0.00253 [hartree/bohr]
 Tolerance MAX geometrical optimization (OPMTOL) =   10.00000 [kcal/mol/angs]
                                                 =    0.00843 [hartree/bohr]
 Tolerance for coordination displacement(CRDTOL) =    0.01000 [angs]
                                                 =    0.01890 [bohr]
 Tolerance MAX coordination displacement(CRMTOL) =    0.10000 [angs]
                                                 =    0.18897 [bohr]
 Coordinate fitting for initial path    (INIFIT) = RMS     
 IDPP interpolation optimize method     (IPMETH) = STRING  
 IDPP interpolation NEB/STR MAXCYC      (IPMXCY) =     3000
 IDPP interpolation NEB/STR DELTAT      (IPDLTT) =    0.10000
 IDPP interpolation NEB     SPFORC      (IPSPFC) =    0.01000
 IDPP interpolation NEB/STR OPTTOL      (IPOPTL) =    0.01000


--------------------------------- Checking the entered coordinates ---------------------------------
Coordinates of the reactant [angs]...
 C            6.0     -0.0000741764      0.0000581432     -0.7636382576
 C            6.0     -0.0000472835     -0.0000628505      0.7636339864
 H            1.0      0.8829414307     -0.4953160036     -1.1564915921
 H            1.0     -0.0125734706      1.0125307442     -1.1563101750
 H            1.0     -0.8706019711     -0.5169519906     -1.1564798905
 H            1.0      0.8704806153      0.5169447850      1.1564821043
 H            1.0     -0.8830581509      0.4953145108      1.1564923867
 H            1.0      0.0124600065     -1.0125333384      1.1563114377
Coordinates of the product [angs]...
 C            6.0     -0.0001034910      0.0000596312     -0.7636341788
 C            6.0      0.0000694937     -0.0000214039      0.7636338184
 H            1.0      0.8828888802     -0.4953026212     -1.1565516700
 H            1.0     -0.0126218366      1.0125095211     -1.1563610031
 H            1.0     -0.8706904311     -0.5169486060     -1.1563450601
 H            1.0     -0.8829089046      0.4953658906      1.1565523355
 H            1.0      0.0125976236     -1.0124694074      1.1563589483
 H            1.0      0.8706476658      0.5170039957      1.1563468098

* Examine atom order of the reactant and product...
The atom orders are fine...

----------------------------- Coordinate fitting of initial structures -----------------------------
* Coordinate fitting of product image
Images are superimposed by translating and rotating the structure.
Finished coordinate fitting process...

* Interpolation of images...
Linear interpolation has processed.

* IDPP interpolation of images...
IDPP interpolation has processed.


---------------- [BEGIN] ENERGY and GRADIENT calculation (initial run) #IMAGE=    1 ----------------

*** Coordinate [angs] of #IMAGE=    1
 C            6.0     -0.0000138771      0.0000604020     -0.7636366950
 C            6.0      0.0000130158     -0.0000605917      0.7636355490
 H            1.0      0.8830017300     -0.4953137448     -1.1564900295
 H            1.0     -0.0125131713      1.0125330030     -1.1563086124
 H            1.0     -0.8705416718     -0.5169497318     -1.1564783279
 H            1.0      0.8705409146      0.5169470438      1.1564836669
 H            1.0     -0.8829978516      0.4953167696      1.1564939493
 H            1.0      0.0125203058     -1.0125310796      1.1563130003

*** START A SINGLE POINT CALCULATION ***

 * GENERATE INITIAL GUESS ORBITALS *

 ...... END OF ONE-ELECTRON INTEGRALS ......
 CPU     0: STEP CPU TIME=     0.06 TOTAL CPU TIME=          0.1 (      0.0 MIN)
 TOTAL WALL CLOCK TIME=          0.3 SECONDS, CPU UTILIZATION IS    34.48%

          -------------
          GUESS OPTIONS
          -------------
          GUESS =HUCKEL            NORB  =       0          NORDER=       0
          MIX   =       F          PRTMO =       F          PUNMO =       F
          TOLZ  = 1.0E-08          TOLE  = 1.0E-05
          SYMDEN=       F          PURIFY=       F

 INITIAL GUESS ORBITALS GENERATED BY HUCKEL   ROUTINE.
 HUCKEL GUESS REQUIRES     46576 WORDS.

 SYMMETRIES FOR INITIAL GUESS ORBITALS FOLLOW.   BOTH SET(S).
     9 ORBITALS ARE OCCUPIED (    2 CORE ORBITALS).
     3=A        4=A        5=A        6=A        7=A        8=A        9=A   
    10=A       11=A       12=A       13=A       14=A       15=A       16=A   
    17=A       18=A       19=A   
 ...... END OF INITIAL ORBITAL SELECTION ......
 CPU     0: STEP CPU TIME=     0.02 TOTAL CPU TIME=          0.1 (      0.0 MIN)
 TOTAL WALL CLOCK TIME=          0.4 SECONDS, CPU UTILIZATION IS    33.33%

                    ----------------------
                    AO INTEGRAL TECHNOLOGY
                    ----------------------
     S,P,L SHELL ROTATED AXIS INTEGRALS, REPROGRAMMED BY
        KAZUYA ISHIMURA (IMS) AND JOSE SIERRA (SYNSTAR).
     S,P,D,L SHELL ROTATED AXIS INTEGRALS PROGRAMMED BY
        KAZUYA ISHIMURA (INSTITUTE FOR MOLECULAR SCIENCE).
     S,P,D,F,G SHELL TO TOTAL QUARTET ANGULAR MOMENTUM SUM 5,
        ERIC PROGRAM BY GRAHAM FLETCHER (ELORET AND NASA ADVANCED
        SUPERCOMPUTING DIVISION, AMES RESEARCH CENTER).
     S,P,D,F,G,L SHELL GENERAL RYS QUADRATURE PROGRAMMED BY
        MICHEL DUPUIS (PACIFIC NORTHWEST NATIONAL LABORATORY).
  ...... END OF TWO-ELECTRON INTEGRALS .....
 CPU     0: STEP CPU TIME=     0.01 TOTAL CPU TIME=          0.1 (      0.0 MIN)
 TOTAL WALL CLOCK TIME=          0.4 SECONDS, CPU UTILIZATION IS    35.14%

          --------------------------
            R-M06-2X SCF CALCULATION
          --------------------------
         DENSITY MATRIX CONVERGENCE THRESHOLD=  2.00E-05
     COARSE -> FINE DFT GRID SWITCH THRESHOLD=  3.00E-04 (SWITCH IN $DFT)
                   HF -> DFT SWITCH THRESHOLD=  5.00E-03 (SWOFF IN $DFT)

 DIRECT SCF CALCULATION, SCHWRZ=T   FDIFF=T,  DIRTHR=  0.00E+00 NITDIR=10

 DFT CODE IS SWITCHING FROM THE FINE GRID NRAD= 99,  NLEB=  590
                      TO THE COARSE GRID NRAD0= 24, NLEB0=  110

     EXCHANGE FUNCTIONAL   =M06-2X    
     CORRELATION FUNCTIONAL=M06-2X    
     DFT THRESHOLD         =.883E-08
     GRID CHANGE THRESHOLD =.300E-03
 FOR AN EULER-MACLAURIN QUADRATURE USING  99 RADIAL POINTS:
 SMALLEST GAUSSIAN PRIMITIVE EXPONENT=        0.0360000000 OF TYPE -S-
 ON ATOM NUMBER   3 HAS RADIAL NORMALIZATION=  1.000000
  LARGEST GAUSSIAN PRIMITIVE EXPONENT=     3047.5248800000 OF TYPE -S-
 ON ATOM NUMBER   1 HAS RADIAL NORMALIZATION=  1.000000
 DFT IS SWITCHED OFF, PERFORMING PURE SCF UNTIL SWOFF THRESHOLD IS REACHED.

                                                                                   NONZERO     BLOCKS
 ITER EX DEM     TOTAL ENERGY        E CHANGE  DENSITY CHANGE    DIIS ERROR      INTEGRALS    SKIPPED
          * * *   INITIATING DIIS PROCEDURE   * * *
   1  0  0      -79.0343499715   -79.0343499715   0.173540842   0.376582464        3821853          0
   2  1  0      -79.2264677007    -0.1921177292   0.052011056   0.049459529        3821853          0
   3  2  0      -79.2368297582    -0.0103620575   0.017036468   0.023701724        3821853          0
   4  3  0      -79.2387796956    -0.0019499374   0.004618242   0.003724383        3821853          0
 CONVERGED TO SWOFF, SO DFT CALCULATION IS NOW SWITCHED ON.
          * * *   INITIATING DIIS PROCEDURE   * * *
   5  4  0      -79.7656359082    -0.5268562126   0.049437372   0.077340980        3821853          0
   6  5  0      -79.7717694380    -0.0061335298   0.015837495   0.013791430        3821853          0
   7  6  0      -79.7720777807    -0.0003083427   0.007195494   0.008743126        3821853          0
   8  7  0      -79.7724518860    -0.0003741053   0.001745176   0.000542559        3821853          0
   9  8  0      -79.7724524814    -0.0000005955   0.000086835   0.000195466        3821853          0
 DFT CODE IS SWITCHING BACK TO THE FINE GRID
          * * *   INITIATING DIIS PROCEDURE   * * *
  10  9  0      -79.7799200334    -0.0074675520   0.016720924   0.016605561        3821853          0
  11 10  0      -79.7800627861    -0.0001427527   0.004019574   0.003378962        3821853          0
  12 11  0      -79.7801136697    -0.0000508836   0.001168485   0.001538522        3821853          0
  13 12  0      -79.7801230881    -0.0000094185   0.000149440   0.000070302        3821853          0
  14 13  0      -79.7801232034    -0.0000001153   0.000040949   0.000023931        3821853          0
  15 14  0      -79.7801232261    -0.0000000227   0.000003195   0.000001385        3821853          0
  16 15  0      -79.7801232279    -0.0000000018   0.000000436   0.000000154        3821475          6

          -----------------
          DENSITY CONVERGED
          -----------------
     TIME TO FORM FOCK OPERATORS=       1.1 SECONDS (       0.1 SEC/ITER)
     FOCK TIME ON FIRST ITERATION=       0.0, LAST ITERATION=       0.1
     TIME TO SOLVE SCF EQUATIONS=       0.1 SECONDS (       0.0 SEC/ITER)

 FINAL R-M06-2X ENERGY IS      -79.7801232279 AFTER  16 ITERATIONS
 DFT EXCHANGE + CORRELATION ENERGY =        -6.2917124389
 TOTAL ELECTRON NUMBER             =        17.9999924531
 TOTAL KINETIC ENERGY DENSITY      =         1.6792678970
 ...... END OF RHF CALCULATION ......
 CPU     0: STEP CPU TIME=     1.28 TOTAL CPU TIME=          1.4 (      0.0 MIN)
 TOTAL WALL CLOCK TIME=          2.4 SECONDS, CPU UTILIZATION IS    58.51%

*** START A GRADIENT CALCULATION ***

 ..... END OF 1-ELECTRON GRADIENT ......
 CPU     0: STEP CPU TIME=     0.02 TOTAL CPU TIME=          1.4 (      0.0 MIN)
 TOTAL WALL CLOCK TIME=          2.5 SECONDS, CPU UTILIZATION IS    56.75%
 MEMORY FOR GRID POINT CONTRIBUTIONS TO THE DFT GRADIENT=    560327 WORDS.
 CPU     0: STEP CPU TIME=     0.22 TOTAL CPU TIME=          1.6 (      0.0 MIN)
 TOTAL WALL CLOCK TIME=          2.8 SECONDS, CPU UTILIZATION IS    59.78%
 ...... END OF 2-ELECTRON GRADIENT ......
 CPU     0: STEP CPU TIME=     0.02 TOTAL CPU TIME=          1.7 (      0.0 MIN)
 TOTAL WALL CLOCK TIME=          2.8 SECONDS, CPU UTILIZATION IS    59.86%

*** Store the coordinates, gradients, and vectors into the dictionary file.  iREC=  611    1   10

*** Energy [hartree] of #IMAGE=    1
Energy =      -79.7801232279

*** Gradient [hartree/bohr] of #IMAGE=    1
     1  C            6.0     -0.0000027126     -0.0000228640     -0.0047525646
     2  C            6.0      0.0000008983      0.0000228500      0.0047552564
     3  H            1.0     -0.0042365946      0.0023645252      0.0018312419
     4  H            1.0      0.0000594498     -0.0048068888      0.0018171196
     5  H            1.0      0.0041770354      0.0024682626      0.0018290137
     6  H            1.0     -0.0041750164     -0.0024682792     -0.0018295648
     7  H            1.0      0.0042354704     -0.0023640791     -0.0018330074
     8  H            1.0     -0.0000585302      0.0048064732     -0.0018174948
 RMS Gradient =        0.0029265864


----------------- [END] ENERGY and GRADIENT calculation (initial run) #IMAGE=    1 -----------------


---------------- [BEGIN] ENERGY and GRADIENT calculation (initial run) #IMAGE=    2 ----------------

*** Coordinate [angs] of #IMAGE=    2
 C            6.0     -0.0000134688      0.0000596935     -0.7619791816
 C            6.0      0.0000133514     -0.0000600520      0.7619783227
 H            1.0      0.8410506682     -0.5572849648     -1.1650026364
 H            1.0      0.0621358149      1.0071889042     -1.1648198824
 H            1.0     -0.9032399102     -0.4496298237     -1.1649782270
 H            1.0      0.8270737769      0.5778645835      1.1649965276
 H            1.0     -0.9140251789      0.4272099264      1.1649953543
 H            1.0      0.0870143408     -1.0053461971      1.1648222231

*** START A SINGLE POINT CALCULATION ***

 * GENERATE INITIAL GUESS ORBITALS *

 ...... END OF ONE-ELECTRON INTEGRALS ......
 CPU     0: STEP CPU TIME=     0.01 TOTAL CPU TIME=          1.7 (      0.0 MIN)
 TOTAL WALL CLOCK TIME=          2.8 SECONDS, CPU UTILIZATION IS    59.79%

          -------------
          GUESS OPTIONS
          -------------
          GUESS =HUCKEL            NORB  =       0          NORDER=       0
          MIX   =       F          PRTMO =       F          PUNMO =       F
          TOLZ  = 1.0E-08          TOLE  = 1.0E-05
          SYMDEN=       F          PURIFY=       F

 INITIAL GUESS ORBITALS GENERATED BY HUCKEL   ROUTINE.
 HUCKEL GUESS REQUIRES     46576 WORDS.

 SYMMETRIES FOR INITIAL GUESS ORBITALS FOLLOW.   BOTH SET(S).
     9 ORBITALS ARE OCCUPIED (    2 CORE ORBITALS).
     3=A        4=A        5=A        6=A        7=A        8=A        9=A   
    10=A       11=A       12=A       13=A       14=A       15=A       16=A   
    17=A       18=A       19=A   
 ...... END OF INITIAL ORBITAL SELECTION ......
 CPU     0: STEP CPU TIME=     0.01 TOTAL CPU TIME=          1.7 (      0.0 MIN)
 TOTAL WALL CLOCK TIME=          2.9 SECONDS, CPU UTILIZATION IS    59.09%
  ...... END OF TWO-ELECTRON INTEGRALS .....
 CPU     0: STEP CPU TIME=     0.00 TOTAL CPU TIME=          1.7 (      0.0 MIN)
 TOTAL WALL CLOCK TIME=          2.9 SECONDS, CPU UTILIZATION IS    59.09%

          --------------------------
            R-M06-2X SCF CALCULATION
          --------------------------
         DENSITY MATRIX CONVERGENCE THRESHOLD=  2.00E-05
     COARSE -> FINE DFT GRID SWITCH THRESHOLD=  3.00E-04 (SWITCH IN $DFT)
                   HF -> DFT SWITCH THRESHOLD=  5.00E-03 (SWOFF IN $DFT)

 DIRECT SCF CALCULATION, SCHWRZ=T   FDIFF=T,  DIRTHR=  0.00E+00 NITDIR=10

 DFT CODE IS SWITCHING FROM THE FINE GRID NRAD= 99,  NLEB=  590
                      TO THE COARSE GRID NRAD0= 24, NLEB0=  110
 DFT IS SWITCHED OFF, PERFORMING PURE SCF UNTIL SWOFF THRESHOLD IS REACHED.

                                                                                   NONZERO     BLOCKS
 ITER EX DEM     TOTAL ENERGY        E CHANGE  DENSITY CHANGE    DIIS ERROR      INTEGRALS    SKIPPED
          * * *   INITIATING DIIS PROCEDURE   * * *
   1  0  0      -79.0340498910   -79.0340498910   0.171333282   0.373475437        3821826          0
   2  1  0      -79.2261487308    -0.1920988398   0.052329470   0.049290373        3821826          0
   3  2  0      -79.2364938256    -0.0103450947   0.017027367   0.023810913        3821826          0
   4  3  0      -79.2384542758    -0.0019604502   0.004623672   0.003772159        3821826          0
 CONVERGED TO SWOFF, SO DFT CALCULATION IS NOW SWITCHED ON.
          * * *   INITIATING DIIS PROCEDURE   * * *
   5  4  0      -79.7655954459    -0.5271411701   0.048989230   0.075464796        3821826          0
   6  5  0      -79.7717000256    -0.0061045797   0.015855119   0.013960922        3821826          0
   7  6  0      -79.7720277271    -0.0003277015   0.007266847   0.008806913        3821826          0
   8  7  0      -79.7724003210    -0.0003725938   0.000368019   0.000552248        3821826          0
   9  8  0      -79.7724009457    -0.0000006248   0.000041870   0.000058746        3821826          0
 DFT CODE IS SWITCHING BACK TO THE FINE GRID
          * * *   INITIATING DIIS PROCEDURE   * * *
  10  9  0      -79.7796449825    -0.0072440367   0.016691102   0.016715939        3821826          0
  11 10  0      -79.7797905863    -0.0001456038   0.004090302   0.003417872        3821826          0
  12 11  0      -79.7798394342    -0.0000488479   0.001177802   0.001560971        3821826          0
  13 12  0      -79.7798500032    -0.0000105690   0.000076660   0.000066096        3821826          0
  14 13  0      -79.7798500695    -0.0000000663   0.000022591   0.000023860        3821826          0
  15 14  0      -79.7798500815    -0.0000000120   0.000002294   0.000001383        3821826          0
  16 15  0      -79.7798500825    -0.0000000011   0.000000843   0.000000913        3821448          6

          -----------------
          DENSITY CONVERGED
          -----------------
     TIME TO FORM FOCK OPERATORS=       1.0 SECONDS (       0.1 SEC/ITER)
     FOCK TIME ON FIRST ITERATION=       0.0, LAST ITERATION=       0.1
     TIME TO SOLVE SCF EQUATIONS=       0.2 SECONDS (       0.0 SEC/ITER)

 FINAL R-M06-2X ENERGY IS      -79.7798500825 AFTER  16 ITERATIONS
 DFT EXCHANGE + CORRELATION ENERGY =        -6.2916492892
 TOTAL ELECTRON NUMBER             =        17.9999947921
 TOTAL KINETIC ENERGY DENSITY      =         2.5221119898
 ...... END OF RHF CALCULATION ......
 CPU     0: STEP CPU TIME=     1.30 TOTAL CPU TIME=          3.0 (      0.0 MIN)
 TOTAL WALL CLOCK TIME=          4.9 SECONDS, CPU UTILIZATION IS    60.90%

*** START A GRADIENT CALCULATION ***

 ..... END OF 1-ELECTRON GRADIENT ......
 CPU     0: STEP CPU TIME=     0.00 TOTAL CPU TIME=          3.0 (      0.0 MIN)
 TOTAL WALL CLOCK TIME=          5.0 SECONDS, CPU UTILIZATION IS    59.92%
 MEMORY FOR GRID POINT CONTRIBUTIONS TO THE DFT GRADIENT=    560327 WORDS.
 CPU     0: STEP CPU TIME=     0.24 TOTAL CPU TIME=          3.2 (      0.1 MIN)
 TOTAL WALL CLOCK TIME=          5.2 SECONDS, CPU UTILIZATION IS    61.64%
 ...... END OF 2-ELECTRON GRADIENT ......
 CPU     0: STEP CPU TIME=     0.01 TOTAL CPU TIME=          3.2 (      0.1 MIN)
 TOTAL WALL CLOCK TIME=          5.3 SECONDS, CPU UTILIZATION IS    61.48%

*** Store the coordinates, gradients, and vectors into the dictionary file.  iREC=  612    2   10

*** Energy [hartree] of #IMAGE=    2
Energy =      -79.7798500825

*** Gradient [hartree/bohr] of #IMAGE=    2
     1  C            6.0     -0.0000010714     -0.0000116450     -0.0008969870
     2  C            6.0      0.0000003421      0.0000105526      0.0009032828
     3  H            1.0     -0.0045669569      0.0024317152      0.0006612091
     4  H            1.0      0.0001681893     -0.0051535161      0.0006574751
     5  H            1.0      0.0043982175      0.0027303275      0.0006604908
     6  H            1.0     -0.0045014362     -0.0025437871     -0.0006603159
     7  H            1.0      0.0044595535     -0.0026191177     -0.0006636757
     8  H            1.0      0.0000431621      0.0051554706     -0.0006614792
 RMS Gradient =        0.0026177183


----------------- [END] ENERGY and GRADIENT calculation (initial run) #IMAGE=    2 -----------------


---------------- [BEGIN] ENERGY and GRADIENT calculation (initial run) #IMAGE=    3 ----------------

*** Coordinate [angs] of #IMAGE=    3
 C            6.0     -0.0000133593      0.0000593010     -0.7618152727
 C            6.0      0.0000133773     -0.0000597750      0.7618147325
 H            1.0      0.7954254785     -0.6168659113     -1.1714954937
 H            1.0      0.1365517641      0.9974672253     -1.1713119977
 H            1.0     -0.9320306258     -0.3803233968     -1.1714584881
 H            1.0      0.7799925916      0.6363018929      1.1714897047
 H            1.0     -0.9410971878      0.3572135770      1.1714770144
 H            1.0      0.1611673558     -0.9937908430      1.1713123010

*** START A SINGLE POINT CALCULATION ***

 * GENERATE INITIAL GUESS ORBITALS *

 ...... END OF ONE-ELECTRON INTEGRALS ......
 CPU     0: STEP CPU TIME=     0.01 TOTAL CPU TIME=          3.2 (      0.1 MIN)
 TOTAL WALL CLOCK TIME=          5.3 SECONDS, CPU UTILIZATION IS    61.44%

          -------------
          GUESS OPTIONS
          -------------
          GUESS =HUCKEL            NORB  =       0          NORDER=       0
          MIX   =       F          PRTMO =       F          PUNMO =       F
          TOLZ  = 1.0E-08          TOLE  = 1.0E-05
          SYMDEN=       F          PURIFY=       F

 INITIAL GUESS ORBITALS GENERATED BY HUCKEL   ROUTINE.
 HUCKEL GUESS REQUIRES     46576 WORDS.

 SYMMETRIES FOR INITIAL GUESS ORBITALS FOLLOW.   BOTH SET(S).
     9 ORBITALS ARE OCCUPIED (    2 CORE ORBITALS).
     3=A        4=A        5=A        6=A        7=A        8=A        9=A   
    10=A       11=A       12=A       13=A       14=A       15=A       16=A   
    17=A       18=A       19=A   
 ...... END OF INITIAL ORBITAL SELECTION ......
 CPU     0: STEP CPU TIME=     0.01 TOTAL CPU TIME=          3.3 (      0.1 MIN)
 TOTAL WALL CLOCK TIME=          5.3 SECONDS, CPU UTILIZATION IS    61.05%
  ...... END OF TWO-ELECTRON INTEGRALS .....
 CPU     0: STEP CPU TIME=     0.00 TOTAL CPU TIME=          3.3 (      0.1 MIN)
 TOTAL WALL CLOCK TIME=          5.3 SECONDS, CPU UTILIZATION IS    61.05%

          --------------------------
            R-M06-2X SCF CALCULATION
          --------------------------
         DENSITY MATRIX CONVERGENCE THRESHOLD=  2.00E-05
     COARSE -> FINE DFT GRID SWITCH THRESHOLD=  3.00E-04 (SWITCH IN $DFT)
                   HF -> DFT SWITCH THRESHOLD=  5.00E-03 (SWOFF IN $DFT)

 DIRECT SCF CALCULATION, SCHWRZ=T   FDIFF=T,  DIRTHR=  0.00E+00 NITDIR=10

 DFT CODE IS SWITCHING FROM THE FINE GRID NRAD= 99,  NLEB=  590
                      TO THE COARSE GRID NRAD0= 24, NLEB0=  110
 DFT IS SWITCHED OFF, PERFORMING PURE SCF UNTIL SWOFF THRESHOLD IS REACHED.

                                                                                   NONZERO     BLOCKS
 ITER EX DEM     TOTAL ENERGY        E CHANGE  DENSITY CHANGE    DIIS ERROR      INTEGRALS    SKIPPED
          * * *   INITIATING DIIS PROCEDURE   * * *
   1  0  0      -79.0334702963   -79.0334702963   0.170115064   0.371097353        3821234          0
   2  1  0      -79.2253982318    -0.1919279355   0.052385106   0.048408166        3821234          0
   3  2  0      -79.2357014604    -0.0103032286   0.016974591   0.023832455        3821234          0
   4  3  0      -79.2376584525    -0.0019569920   0.004617924   0.003801827        3821234          0
 CONVERGED TO SWOFF, SO DFT CALCULATION IS NOW SWITCHED ON.
          * * *   INITIATING DIIS PROCEDURE   * * *
   5  4  0      -79.7654383501    -0.5277798977   0.048749725   0.073335247        3821234          0
   6  5  0      -79.7715069800    -0.0060686299   0.015914620   0.014032737        3821234          0
   7  6  0      -79.7718380584    -0.0003310784   0.007299369   0.008629771        3821234          0
   8  7  0      -79.7722128864    -0.0003748280   0.000432558   0.000560553        3821234          0
   9  8  0      -79.7722135066    -0.0000006202   0.000042518   0.000059982        3821234          0
 DFT CODE IS SWITCHING BACK TO THE FINE GRID
          * * *   INITIATING DIIS PROCEDURE   * * *
  10  9  0      -79.7789452048    -0.0067316982   0.016531270   0.016758796        3821234          0
  11 10  0      -79.7790905592    -0.0001453544   0.004064881   0.003372661        3821234          0
  12 11  0      -79.7791374585    -0.0000468994   0.001174340   0.001574319        3821234          0
  13 12  0      -79.7791483360    -0.0000108775   0.000083203   0.000066001        3821234          0
  14 13  0      -79.7791483951    -0.0000000591   0.000036568   0.000024108        3821234          0
  15 14  0      -79.7791484060    -0.0000000108   0.000005519   0.000001297        3821234          0
  16 15  0      -79.7791484068    -0.0000000009   0.000000458   0.000000381        3820856          6

          -----------------
          DENSITY CONVERGED
          -----------------
     TIME TO FORM FOCK OPERATORS=       1.1 SECONDS (       0.1 SEC/ITER)
     FOCK TIME ON FIRST ITERATION=       0.0, LAST ITERATION=       0.1
     TIME TO SOLVE SCF EQUATIONS=       0.2 SECONDS (       0.0 SEC/ITER)

 FINAL R-M06-2X ENERGY IS      -79.7791484068 AFTER  16 ITERATIONS
 DFT EXCHANGE + CORRELATION ENERGY =        -6.2913406049
 TOTAL ELECTRON NUMBER             =        18.0000035860
 TOTAL KINETIC ENERGY DENSITY      =         2.8388756195
 ...... END OF RHF CALCULATION ......
 CPU     0: STEP CPU TIME=     1.31 TOTAL CPU TIME=          4.6 (      0.1 MIN)
 TOTAL WALL CLOCK TIME=          7.4 SECONDS, CPU UTILIZATION IS    61.92%

*** START A GRADIENT CALCULATION ***

 ..... END OF 1-ELECTRON GRADIENT ......
 CPU     0: STEP CPU TIME=     0.01 TOTAL CPU TIME=          4.6 (      0.1 MIN)
 TOTAL WALL CLOCK TIME=          7.5 SECONDS, CPU UTILIZATION IS    61.31%
 MEMORY FOR GRID POINT CONTRIBUTIONS TO THE DFT GRADIENT=    560327 WORDS.
 CPU     0: STEP CPU TIME=     0.23 TOTAL CPU TIME=          4.8 (      0.1 MIN)
 TOTAL WALL CLOCK TIME=          7.7 SECONDS, CPU UTILIZATION IS    62.23%
 ...... END OF 2-ELECTRON GRADIENT ......
 CPU     0: STEP CPU TIME=     0.03 TOTAL CPU TIME=          4.8 (      0.1 MIN)
 TOTAL WALL CLOCK TIME=          7.8 SECONDS, CPU UTILIZATION IS    62.37%

*** Store the coordinates, gradients, and vectors into the dictionary file.  iREC=  613    3   10

*** Energy [hartree] of #IMAGE=    3
Energy =      -79.7791484068

*** Gradient [hartree/bohr] of #IMAGE=    3
     1  C            6.0     -0.0000057292     -0.0000065080      0.0012900834
     2  C            6.0     -0.0000007682      0.0000033936     -0.0012856700
     3  H            1.0     -0.0046691807      0.0025198531     -0.0000365031
     4  H            1.0      0.0001493652     -0.0052971734     -0.0000313683
     5  H            1.0      0.0045238558      0.0027773770     -0.0000335614
     6  H            1.0     -0.0046049013     -0.0026358953      0.0000366125
     7  H            1.0      0.0045873504     -0.0026632795      0.0000309930
     8  H            1.0      0.0000200079      0.0053022325      0.0000294138
 RMS Gradient =        0.0026781546


----------------- [END] ENERGY and GRADIENT calculation (initial run) #IMAGE=    3 -----------------


---------------- [BEGIN] ENERGY and GRADIENT calculation (initial run) #IMAGE=    4 ----------------

*** Coordinate [angs] of #IMAGE=    4
 C            6.0     -0.0000134699      0.0000591297     -0.7617827775
 C            6.0      0.0000131342     -0.0000596782      0.7617825652
 H            1.0      0.7458611798     -0.6733989616     -1.1760918260
 H            1.0      0.2102975264      0.9828097024     -1.1759083521
 H            1.0     -0.9562117512     -0.3091298040     -1.1760425029
 H            1.0      0.7290486606      0.6915949930      1.1760864423
 H            1.0     -0.9635144594      0.2854443785      1.1760623263
 H            1.0      0.2345285738     -0.9773176898      1.1759066249

*** START A SINGLE POINT CALCULATION ***

 * GENERATE INITIAL GUESS ORBITALS *

 ...... END OF ONE-ELECTRON INTEGRALS ......
 CPU     0: STEP CPU TIME=     0.00 TOTAL CPU TIME=          4.8 (      0.1 MIN)
 TOTAL WALL CLOCK TIME=          7.8 SECONDS, CPU UTILIZATION IS    62.29%

          -------------
          GUESS OPTIONS
          -------------
          GUESS =HUCKEL            NORB  =       0          NORDER=       0
          MIX   =       F          PRTMO =       F          PUNMO =       F
          TOLZ  = 1.0E-08          TOLE  = 1.0E-05
          SYMDEN=       F          PURIFY=       F

 INITIAL GUESS ORBITALS GENERATED BY HUCKEL   ROUTINE.
 HUCKEL GUESS REQUIRES     46576 WORDS.

 SYMMETRIES FOR INITIAL GUESS ORBITALS FOLLOW.   BOTH SET(S).
     9 ORBITALS ARE OCCUPIED (    2 CORE ORBITALS).
     3=A        4=A        5=A        6=A        7=A        8=A        9=A   
    10=A       11=A       12=A       13=A       14=A       15=A       16=A   
    17=A       18=A       19=A   
 ...... END OF INITIAL ORBITAL SELECTION ......
 CPU     0: STEP CPU TIME=     0.01 TOTAL CPU TIME=          4.8 (      0.1 MIN)
 TOTAL WALL CLOCK TIME=          7.8 SECONDS, CPU UTILIZATION IS    61.86%
  ...... END OF TWO-ELECTRON INTEGRALS .....
 CPU     0: STEP CPU TIME=     0.00 TOTAL CPU TIME=          4.8 (      0.1 MIN)
 TOTAL WALL CLOCK TIME=          7.8 SECONDS, CPU UTILIZATION IS    61.86%

          --------------------------
            R-M06-2X SCF CALCULATION
          --------------------------
         DENSITY MATRIX CONVERGENCE THRESHOLD=  2.00E-05
     COARSE -> FINE DFT GRID SWITCH THRESHOLD=  3.00E-04 (SWITCH IN $DFT)
                   HF -> DFT SWITCH THRESHOLD=  5.00E-03 (SWOFF IN $DFT)

 DIRECT SCF CALCULATION, SCHWRZ=T   FDIFF=T,  DIRTHR=  0.00E+00 NITDIR=10

 DFT CODE IS SWITCHING FROM THE FINE GRID NRAD= 99,  NLEB=  590
                      TO THE COARSE GRID NRAD0= 24, NLEB0=  110
 DFT IS SWITCHED OFF, PERFORMING PURE SCF UNTIL SWOFF THRESHOLD IS REACHED.

                                                                                   NONZERO     BLOCKS
 ITER EX DEM     TOTAL ENERGY        E CHANGE  DENSITY CHANGE    DIIS ERROR      INTEGRALS    SKIPPED
          * * *   INITIATING DIIS PROCEDURE   * * *
   1  0  0      -79.0326551049   -79.0326551049   0.170312346   0.369357351        3821850          0
   2  1  0      -79.2243751681    -0.1917200632   0.052405687   0.047778437        3821850          0
   3  2  0      -79.2346445983    -0.0102694302   0.016918801   0.023832944        3821850          0
   4  3  0      -79.2365979262    -0.0019533279   0.004606641   0.003819184        3821850          0
 CONVERGED TO SWOFF, SO DFT CALCULATION IS NOW SWITCHED ON.
          * * *   INITIATING DIIS PROCEDURE   * * *
   5  4  0      -79.7650516784    -0.5284537522   0.048487238   0.072455427        3821850          0
   6  5  0      -79.7710824299    -0.0060307516   0.015907413   0.014079515        3821850          0
   7  6  0      -79.7714149300    -0.0003325000   0.007305390   0.008389096        3821850          0
   8  7  0      -79.7717909246    -0.0003759947   0.000409120   0.000572536        3821850          0
   9  8  0      -79.7717915986    -0.0000006740   0.000042236   0.000060709        3821850          0
 DFT CODE IS SWITCHING BACK TO THE FINE GRID
          * * *   INITIATING DIIS PROCEDURE   * * *
  10  9  0      -79.7779989583    -0.0062073597   0.016282089   0.016738903        3821850          0
  11 10  0      -79.7781418195    -0.0001428612   0.004062904   0.003289399        3821850          0
  12 11  0      -79.7781876711    -0.0000458516   0.001193145   0.001578503        3821850          0
  13 12  0      -79.7781986593    -0.0000109882   0.000072211   0.000062451        3821850          0
  14 13  0      -79.7781987123    -0.0000000530   0.000020491   0.000023190        3821850          0
  15 14  0      -79.7781987214    -0.0000000091   0.000003136   0.000002200        3821850          0
  16 15  0      -79.7781987219    -0.0000000005   0.000001128   0.000001316        3821472          6

          -----------------
          DENSITY CONVERGED
          -----------------
     TIME TO FORM FOCK OPERATORS=       1.1 SECONDS (       0.1 SEC/ITER)
     FOCK TIME ON FIRST ITERATION=       0.0, LAST ITERATION=       0.1
     TIME TO SOLVE SCF EQUATIONS=       0.2 SECONDS (       0.0 SEC/ITER)

 FINAL R-M06-2X ENERGY IS      -79.7781987219 AFTER  16 ITERATIONS
 DFT EXCHANGE + CORRELATION ENERGY =        -6.2912811823
 TOTAL ELECTRON NUMBER             =        18.0000072757
 TOTAL KINETIC ENERGY DENSITY      =         2.7286996463
 ...... END OF RHF CALCULATION ......
 CPU     0: STEP CPU TIME=     1.29 TOTAL CPU TIME=          6.1 (      0.1 MIN)
 TOTAL WALL CLOCK TIME=          9.9 SECONDS, CPU UTILIZATION IS    62.08%

*** START A GRADIENT CALCULATION ***

 ..... END OF 1-ELECTRON GRADIENT ......
 CPU     0: STEP CPU TIME=     0.02 TOTAL CPU TIME=          6.2 (      0.1 MIN)
 TOTAL WALL CLOCK TIME=         10.0 SECONDS, CPU UTILIZATION IS    61.85%
 MEMORY FOR GRID POINT CONTRIBUTIONS TO THE DFT GRADIENT=    560327 WORDS.
 CPU     0: STEP CPU TIME=     0.22 TOTAL CPU TIME=          6.4 (      0.1 MIN)
 TOTAL WALL CLOCK TIME=         10.2 SECONDS, CPU UTILIZATION IS    62.49%
 ...... END OF 2-ELECTRON GRADIENT ......
 CPU     0: STEP CPU TIME=     0.02 TOTAL CPU TIME=          6.4 (      0.1 MIN)
 TOTAL WALL CLOCK TIME=         10.2 SECONDS, CPU UTILIZATION IS    62.50%

*** Store the coordinates, gradients, and vectors into the dictionary file.  iREC=  614    4   10

*** Energy [hartree] of #IMAGE=    4
Energy =      -79.7781987219

*** Gradient [hartree/bohr] of #IMAGE=    4
     1  C            6.0      0.0000065839      0.0000056445      0.0032087471
     2  C            6.0      0.0000073926     -0.0000027799     -0.0032106693
     3  H            1.0     -0.0045912319      0.0027052908     -0.0003901059
     4  H            1.0     -0.0000540307     -0.0053293216     -0.0003839462
     5  H            1.0      0.0046382748      0.0026138716     -0.0003885689
     6  H            1.0     -0.0045224369     -0.0028194766      0.0003916703
     7  H            1.0      0.0046994398     -0.0024985044      0.0003888131
     8  H            1.0     -0.0001839917      0.0053252757      0.0003840599
 RMS Gradient =        0.0028267865


----------------- [END] ENERGY and GRADIENT calculation (initial run) #IMAGE=    4 -----------------


---------------- [BEGIN] ENERGY and GRADIENT calculation (initial run) #IMAGE=    5 ----------------

*** Coordinate [angs] of #IMAGE=    5
 C            6.0     -0.0000137075      0.0000591055     -0.7613334766
 C            6.0      0.0000127094     -0.0000597061      0.7613335771
 H            1.0      0.6923258569     -0.7262894408     -1.1792939562
 H            1.0      0.2828739007      0.9628913707     -1.1791114429
 H            1.0     -0.9752522853     -0.2363186273     -1.1792328244
 H            1.0      0.6742247377      0.7431486055      1.1792890927
 H            1.0     -0.9807527648      0.2121849498      1.1792538534
 H            1.0      0.3065909473     -0.9556141871      1.1791076773

*** START A SINGLE POINT CALCULATION ***

 * GENERATE INITIAL GUESS ORBITALS *

 ...... END OF ONE-ELECTRON INTEGRALS ......
 CPU     0: STEP CPU TIME=     0.00 TOTAL CPU TIME=          6.4 (      0.1 MIN)
 TOTAL WALL CLOCK TIME=         10.2 SECONDS, CPU UTILIZATION IS    62.44%

          -------------
          GUESS OPTIONS
          -------------
          GUESS =HUCKEL            NORB  =       0          NORDER=       0
          MIX   =       F          PRTMO =       F          PUNMO =       F
          TOLZ  = 1.0E-08          TOLE  = 1.0E-05
          SYMDEN=       F          PURIFY=       F

 INITIAL GUESS ORBITALS GENERATED BY HUCKEL   ROUTINE.
 HUCKEL GUESS REQUIRES     46576 WORDS.

 SYMMETRIES FOR INITIAL GUESS ORBITALS FOLLOW.   BOTH SET(S).
     9 ORBITALS ARE OCCUPIED (    2 CORE ORBITALS).
     3=A        4=A        5=A        6=A        7=A        8=A        9=A   
    10=A       11=A       12=A       13=A       14=A       15=A       16=A   
    17=A       18=A       19=A   
 ...... END OF INITIAL ORBITAL SELECTION ......
 CPU     0: STEP CPU TIME=     0.02 TOTAL CPU TIME=          6.4 (      0.1 MIN)
 TOTAL WALL CLOCK TIME=         10.3 SECONDS, CPU UTILIZATION IS    62.09%
  ...... END OF TWO-ELECTRON INTEGRALS .....
 CPU     0: STEP CPU TIME=     0.00 TOTAL CPU TIME=          6.4 (      0.1 MIN)
 TOTAL WALL CLOCK TIME=         10.3 SECONDS, CPU UTILIZATION IS    62.09%

          --------------------------
            R-M06-2X SCF CALCULATION
          --------------------------
         DENSITY MATRIX CONVERGENCE THRESHOLD=  2.00E-05
     COARSE -> FINE DFT GRID SWITCH THRESHOLD=  3.00E-04 (SWITCH IN $DFT)
                   HF -> DFT SWITCH THRESHOLD=  5.00E-03 (SWOFF IN $DFT)

 DIRECT SCF CALCULATION, SCHWRZ=T   FDIFF=T,  DIRTHR=  0.00E+00 NITDIR=10

 DFT CODE IS SWITCHING FROM THE FINE GRID NRAD= 99,  NLEB=  590
                      TO THE COARSE GRID NRAD0= 24, NLEB0=  110
 DFT IS SWITCHED OFF, PERFORMING PURE SCF UNTIL SWOFF THRESHOLD IS REACHED.

                                                                                   NONZERO     BLOCKS
 ITER EX DEM     TOTAL ENERGY        E CHANGE  DENSITY CHANGE    DIIS ERROR      INTEGRALS    SKIPPED
          * * *   INITIATING DIIS PROCEDURE   * * *
   1  0  0      -79.0317137336   -79.0317137336   0.171676678   0.368526698        3821592          0
   2  1  0      -79.2232442392    -0.1915305056   0.052485415   0.048722375        3821592          0
   3  2  0      -79.2334989393    -0.0102547002   0.016877066   0.023843968        3821592          0
   4  3  0      -79.2354537556    -0.0019548163   0.004661878   0.003829978        3821592          0
 CONVERGED TO SWOFF, SO DFT CALCULATION IS NOW SWITCHED ON.
          * * *   INITIATING DIIS PROCEDURE   * * *
   5  4  0      -79.7640953060    -0.5286415504   0.047765648   0.071668360        3821592          0
   6  5  0      -79.7701083581    -0.0060130521   0.015912386   0.014107401        3821592          0
   7  6  0      -79.7704405154    -0.0003321573   0.007325187   0.008354748        3821592          0
   8  7  0      -79.7708183861    -0.0003778707   0.000420595   0.000571507        3821592          0
   9  8  0      -79.7708190745    -0.0000006884   0.000042279   0.000061027        3821592          0
 DFT CODE IS SWITCHING BACK TO THE FINE GRID
          * * *   INITIATING DIIS PROCEDURE   * * *
  10  9  0      -79.7769645546    -0.0061454801   0.016290474   0.016736546        3821592          0
  11 10  0      -79.7771074709    -0.0001429162   0.004065534   0.003088912        3821592          0
  12 11  0      -79.7771534940    -0.0000460231   0.001184321   0.001583610        3821592          0
  13 12  0      -79.7771645709    -0.0000110769   0.000073142   0.000065195        3821592          0
  14 13  0      -79.7771646172    -0.0000000463   0.000019292   0.000022469        3821592          0
  15 14  0      -79.7771646254    -0.0000000082   0.000001980   0.000001285        3821592          0

          -----------------
          DENSITY CONVERGED
          -----------------
     TIME TO FORM FOCK OPERATORS=       1.0 SECONDS (       0.1 SEC/ITER)
     FOCK TIME ON FIRST ITERATION=       0.0, LAST ITERATION=       0.1
     TIME TO SOLVE SCF EQUATIONS=       0.2 SECONDS (       0.0 SEC/ITER)

 FINAL R-M06-2X ENERGY IS      -79.7771646254 AFTER  15 ITERATIONS
 DFT EXCHANGE + CORRELATION ENERGY =        -6.2915789185
 TOTAL ELECTRON NUMBER             =        18.0000053127
 TOTAL KINETIC ENERGY DENSITY      =         1.7320994323
 ...... END OF RHF CALCULATION ......
 CPU     0: STEP CPU TIME=     1.18 TOTAL CPU TIME=          7.6 (      0.1 MIN)
 TOTAL WALL CLOCK TIME=         12.2 SECONDS, CPU UTILIZATION IS    62.14%

*** START A GRADIENT CALCULATION ***

 ..... END OF 1-ELECTRON GRADIENT ......
 CPU     0: STEP CPU TIME=     0.00 TOTAL CPU TIME=          7.6 (      0.1 MIN)
 TOTAL WALL CLOCK TIME=         12.3 SECONDS, CPU UTILIZATION IS    61.79%
 MEMORY FOR GRID POINT CONTRIBUTIONS TO THE DFT GRADIENT=    560327 WORDS.
 CPU     0: STEP CPU TIME=     0.23 TOTAL CPU TIME=          7.8 (      0.1 MIN)
 TOTAL WALL CLOCK TIME=         12.6 SECONDS, CPU UTILIZATION IS    62.39%
 ...... END OF 2-ELECTRON GRADIENT ......
 CPU     0: STEP CPU TIME=     0.02 TOTAL CPU TIME=          7.8 (      0.1 MIN)
 TOTAL WALL CLOCK TIME=         12.6 SECONDS, CPU UTILIZATION IS    62.40%

*** Store the coordinates, gradients, and vectors into the dictionary file.  iREC=  615    5   10

*** Energy [hartree] of #IMAGE=    5
Energy =      -79.7771646254

*** Gradient [hartree/bohr] of #IMAGE=    5
     1  C            6.0     -0.0000083737     -0.0000144924      0.0053909905
     2  C            6.0     -0.0000091200      0.0000154700     -0.0053889277
     3  H            1.0     -0.0043593590      0.0030309683     -0.0005484753
     4  H            1.0     -0.0004430677     -0.0052864356     -0.0005446869
     5  H            1.0      0.0048096743      0.0022598077     -0.0005514372
     6  H            1.0     -0.0042823748     -0.0031391122      0.0005496467
     7  H            1.0      0.0048636513     -0.0021398213      0.0005487182
     8  H            1.0     -0.0005710303      0.0052736156      0.0005441717
 RMS Gradient =        0.0030892409


----------------- [END] ENERGY and GRADIENT calculation (initial run) #IMAGE=    5 -----------------


---------------- [BEGIN] ENERGY and GRADIENT calculation (initial run) #IMAGE=    6 ----------------

*** Coordinate [angs] of #IMAGE=    6
 C            6.0     -0.0000140223      0.0000592272     -0.7608184576
 C            6.0      0.0000121747     -0.0000598721      0.7608188508
 H            1.0      0.6351947075     -0.7753342440     -1.1813732806
 H            1.0      0.3539173316      0.9379356090     -1.1811926922
 H            1.0     -0.9891639425     -0.1623162547     -1.1813009439
 H            1.0      0.6159009168      0.7907689610      1.1813690549
 H            1.0     -0.9928343161      0.1378612672      1.1813230937
 H            1.0      0.3769965447     -0.9289126234      1.1811868753

*** START A SINGLE POINT CALCULATION ***

 * GENERATE INITIAL GUESS ORBITALS *

 ...... END OF ONE-ELECTRON INTEGRALS ......
 CPU     0: STEP CPU TIME=     0.00 TOTAL CPU TIME=          7.8 (      0.1 MIN)
 TOTAL WALL CLOCK TIME=         12.6 SECONDS, CPU UTILIZATION IS    62.35%

          -------------
          GUESS OPTIONS
          -------------
          GUESS =HUCKEL            NORB  =       0          NORDER=       0
          MIX   =       F          PRTMO =       F          PUNMO =       F
          TOLZ  = 1.0E-08          TOLE  = 1.0E-05
          SYMDEN=       F          PURIFY=       F

 INITIAL GUESS ORBITALS GENERATED BY HUCKEL   ROUTINE.
 HUCKEL GUESS REQUIRES     46576 WORDS.

 SYMMETRIES FOR INITIAL GUESS ORBITALS FOLLOW.   BOTH SET(S).
     9 ORBITALS ARE OCCUPIED (    2 CORE ORBITALS).
     3=A        4=A        5=A        6=A        7=A        8=A        9=A   
    10=A       11=A       12=A       13=A       14=A       15=A       16=A   
    17=A       18=A       19=A   
 ...... END OF INITIAL ORBITAL SELECTION ......
 CPU     0: STEP CPU TIME=     0.02 TOTAL CPU TIME=          7.9 (      0.1 MIN)
 TOTAL WALL CLOCK TIME=         12.7 SECONDS, CPU UTILIZATION IS    62.21%
  ...... END OF TWO-ELECTRON INTEGRALS .....
 CPU     0: STEP CPU TIME=     0.00 TOTAL CPU TIME=          7.9 (      0.1 MIN)
 TOTAL WALL CLOCK TIME=         12.7 SECONDS, CPU UTILIZATION IS    62.21%

          --------------------------
            R-M06-2X SCF CALCULATION
          --------------------------
         DENSITY MATRIX CONVERGENCE THRESHOLD=  2.00E-05
     COARSE -> FINE DFT GRID SWITCH THRESHOLD=  3.00E-04 (SWITCH IN $DFT)
                   HF -> DFT SWITCH THRESHOLD=  5.00E-03 (SWOFF IN $DFT)

 DIRECT SCF CALCULATION, SCHWRZ=T   FDIFF=T,  DIRTHR=  0.00E+00 NITDIR=10

 DFT CODE IS SWITCHING FROM THE FINE GRID NRAD= 99,  NLEB=  590
                      TO THE COARSE GRID NRAD0= 24, NLEB0=  110
 DFT IS SWITCHED OFF, PERFORMING PURE SCF UNTIL SWOFF THRESHOLD IS REACHED.

                                                                                   NONZERO     BLOCKS
 ITER EX DEM     TOTAL ENERGY        E CHANGE  DENSITY CHANGE    DIIS ERROR      INTEGRALS    SKIPPED
          * * *   INITIATING DIIS PROCEDURE   * * *
   1  0  0      -79.0308766737   -79.0308766737   0.173557479   0.368210467        3821725          0
   2  1  0      -79.2222311264    -0.1913544527   0.052569521   0.050232115        3821725          0
   3  2  0      -79.2324812126    -0.0102500862   0.016845530   0.023855537        3821725          0
   4  3  0      -79.2344392023    -0.0019579897   0.004766617   0.003835820        3821725          0
 CONVERGED TO SWOFF, SO DFT CALCULATION IS NOW SWITCHED ON.
          * * *   INITIATING DIIS PROCEDURE   * * *
   5  4  0      -79.7627987703    -0.5283595680   0.046688313   0.071116447        3821725          0
   6  5  0      -79.7688195056    -0.0060207352   0.015940677   0.014105496        3821725          0
   7  6  0      -79.7691502155    -0.0003307100   0.007354080   0.008400833        3821725          0
   8  7  0      -79.7695302996    -0.0003800841   0.000428376   0.000563117        3821725          0
   9  8  0      -79.7695309981    -0.0000006985   0.000042789   0.000060376        3821725          0
 DFT CODE IS SWITCHING BACK TO THE FINE GRID
          * * *   INITIATING DIIS PROCEDURE   * * *
  10  9  0      -79.7760404195    -0.0065094214   0.016543051   0.016801549        3821725          0
  11 10  0      -79.7761861978    -0.0001457784   0.004094812   0.003157317        3821725          0
  12 11  0      -79.7762330172    -0.0000468193   0.001184617   0.001588025        3821725          0
  13 12  0      -79.7762441690    -0.0000111518   0.000223252   0.000066339        3821725          0
  14 13  0      -79.7762442222    -0.0000000532   0.000056367   0.000024277        3821725          0
  15 14  0      -79.7762442318    -0.0000000096   0.000004846   0.000001293        3821725          0
  16 15  0      -79.7762442324    -0.0000000006   0.000000499   0.000000385        3821347          6

          -----------------
          DENSITY CONVERGED
          -----------------
     TIME TO FORM FOCK OPERATORS=       1.0 SECONDS (       0.1 SEC/ITER)
     FOCK TIME ON FIRST ITERATION=       0.0, LAST ITERATION=       0.1
     TIME TO SOLVE SCF EQUATIONS=       0.2 SECONDS (       0.0 SEC/ITER)

 FINAL R-M06-2X ENERGY IS      -79.7762442324 AFTER  16 ITERATIONS
 DFT EXCHANGE + CORRELATION ENERGY =        -6.2919533057
 TOTAL ELECTRON NUMBER             =        17.9999926467
 TOTAL KINETIC ENERGY DENSITY      =         2.9242650260
 ...... END OF RHF CALCULATION ......
 CPU     0: STEP CPU TIME=     1.30 TOTAL CPU TIME=          9.2 (      0.2 MIN)
 TOTAL WALL CLOCK TIME=         14.7 SECONDS, CPU UTILIZATION IS    62.34%

*** START A GRADIENT CALCULATION ***

 ..... END OF 1-ELECTRON GRADIENT ......
 CPU     0: STEP CPU TIME=     0.02 TOTAL CPU TIME=          9.2 (      0.2 MIN)
 TOTAL WALL CLOCK TIME=         14.8 SECONDS, CPU UTILIZATION IS    62.14%
 MEMORY FOR GRID POINT CONTRIBUTIONS TO THE DFT GRADIENT=    560327 WORDS.
 CPU     0: STEP CPU TIME=     0.22 TOTAL CPU TIME=          9.4 (      0.2 MIN)
 TOTAL WALL CLOCK TIME=         15.0 SECONDS, CPU UTILIZATION IS    62.57%
 ...... END OF 2-ELECTRON GRADIENT ......
 CPU     0: STEP CPU TIME=     0.03 TOTAL CPU TIME=          9.4 (      0.2 MIN)
 TOTAL WALL CLOCK TIME=         15.1 SECONDS, CPU UTILIZATION IS    62.68%

*** Store the coordinates, gradients, and vectors into the dictionary file.  iREC=  616    6   10

*** Energy [hartree] of #IMAGE=    6
Energy =      -79.7762442324

*** Gradient [hartree/bohr] of #IMAGE=    6
     1  C            6.0     -0.0000056480     -0.0000083633      0.0073094734
     2  C            6.0      0.0000013597      0.0000037487     -0.0073075604
     3  H            1.0     -0.0039287842      0.0034553949     -0.0005935695
     4  H            1.0     -0.0010264342     -0.0051268826     -0.0005875639
     5  H            1.0      0.0049585886      0.0016725296     -0.0005902831
     6  H            1.0     -0.0038422007     -0.0035514950      0.0005939776
     7  H            1.0      0.0049949350     -0.0015476027      0.0005877559
     8  H            1.0     -0.0011518161      0.0051026704      0.0005877701
 RMS Gradient =        0.0033733097


----------------- [END] ENERGY and GRADIENT calculation (initial run) #IMAGE=    6 -----------------


---------------- [BEGIN] ENERGY and GRADIENT calculation (initial run) #IMAGE=    7 ----------------

*** Coordinate [angs] of #IMAGE=    7
 C            6.0     -0.0000143795      0.0000594757     -0.7604715694
 C            6.0      0.0000115871     -0.0000601686      0.7604722381
 H            1.0      0.5748151284     -0.8203548213     -1.1824688340
 H            1.0      0.4230994457      0.9081539932     -1.1822911397
 H            1.0     -0.9979657927     -0.0875127268     -1.1823859265
 H            1.0      0.5544288853      0.8342861495      1.1824653560
 H            1.0     -0.9997877886      0.0628627885      1.1824091144
 H            1.0      0.4454223085     -0.8974326201      1.1822832614

*** START A SINGLE POINT CALCULATION ***

 * GENERATE INITIAL GUESS ORBITALS *

 ...... END OF ONE-ELECTRON INTEGRALS ......
 CPU     0: STEP CPU TIME=     0.00 TOTAL CPU TIME=          9.4 (      0.2 MIN)
 TOTAL WALL CLOCK TIME=         15.1 SECONDS, CPU UTILIZATION IS    62.60%

          -------------
          GUESS OPTIONS
          -------------
          GUESS =HUCKEL            NORB  =       0          NORDER=       0
          MIX   =       F          PRTMO =       F          PUNMO =       F
          TOLZ  = 1.0E-08          TOLE  = 1.0E-05
          SYMDEN=       F          PURIFY=       F

 INITIAL GUESS ORBITALS GENERATED BY HUCKEL   ROUTINE.
 HUCKEL GUESS REQUIRES     46576 WORDS.

 SYMMETRIES FOR INITIAL GUESS ORBITALS FOLLOW.   BOTH SET(S).
     9 ORBITALS ARE OCCUPIED (    2 CORE ORBITALS).
     3=A        4=A        5=A        6=A        7=A        8=A        9=A   
    10=A       11=A       12=A       13=A       14=A       15=A       16=A   
    17=A       18=A       19=A   
 ...... END OF INITIAL ORBITAL SELECTION ......
 CPU     0: STEP CPU TIME=     0.02 TOTAL CPU TIME=          9.5 (      0.2 MIN)
 TOTAL WALL CLOCK TIME=         15.2 SECONDS, CPU UTILIZATION IS    62.44%
  ...... END OF TWO-ELECTRON INTEGRALS .....
 CPU     0: STEP CPU TIME=     0.00 TOTAL CPU TIME=          9.5 (      0.2 MIN)
 TOTAL WALL CLOCK TIME=         15.2 SECONDS, CPU UTILIZATION IS    62.44%

          --------------------------
            R-M06-2X SCF CALCULATION
          --------------------------
         DENSITY MATRIX CONVERGENCE THRESHOLD=  2.00E-05
     COARSE -> FINE DFT GRID SWITCH THRESHOLD=  3.00E-04 (SWITCH IN $DFT)
                   HF -> DFT SWITCH THRESHOLD=  5.00E-03 (SWOFF IN $DFT)

 DIRECT SCF CALCULATION, SCHWRZ=T   FDIFF=T,  DIRTHR=  0.00E+00 NITDIR=10

 DFT CODE IS SWITCHING FROM THE FINE GRID NRAD= 99,  NLEB=  590
                      TO THE COARSE GRID NRAD0= 24, NLEB0=  110
 DFT IS SWITCHED OFF, PERFORMING PURE SCF UNTIL SWOFF THRESHOLD IS REACHED.

                                                                                   NONZERO     BLOCKS
 ITER EX DEM     TOTAL ENERGY        E CHANGE  DENSITY CHANGE    DIIS ERROR      INTEGRALS    SKIPPED
          * * *   INITIATING DIIS PROCEDURE   * * *
   1  0  0      -79.0303212242   -79.0303212242   0.175202018   0.368142858        3822155          0
   2  1  0      -79.2215372219    -0.1912159977   0.052623028   0.052088145        3822155          0
   3  2  0      -79.2317867485    -0.0102495267   0.016824728   0.023861896        3822155          0
   4  3  0      -79.2337472416    -0.0019604931   0.004842916   0.003838010        3822155          0
 CONVERGED TO SWOFF, SO DFT CALCULATION IS NOW SWITCHED ON.
          * * *   INITIATING DIIS PROCEDURE   * * *
   5  4  0      -79.7618474900    -0.5281002484   0.045900705   0.070849525        3822155          0
   6  5  0      -79.7678856675    -0.0060381775   0.015926659   0.014073789        3822155          0
   7  6  0      -79.7682120620    -0.0003263944   0.007355436   0.008546276        3822155          0
   8  7  0      -79.7685927570    -0.0003806951   0.000912834   0.000550410        3822155          0
   9  8  0      -79.7685934950    -0.0000007380   0.000052470   0.000057907        3822155          0
 DFT CODE IS SWITCHING BACK TO THE FINE GRID
          * * *   INITIATING DIIS PROCEDURE   * * *
  10  9  0      -79.7754136544    -0.0068201594   0.016698675   0.016885354        3822155          0
  11 10  0      -79.7755598178    -0.0001461634   0.004127764   0.003328988        3822155          0
  12 11  0      -79.7756076269    -0.0000478092   0.001188656   0.001584525        3822155          0
  13 12  0      -79.7756186421    -0.0000110151   0.000101042   0.000065543        3822155          0
  14 13  0      -79.7756187046    -0.0000000625   0.000023098   0.000024568        3822155          0
  15 14  0      -79.7756187158    -0.0000000112   0.000002816   0.000001736        3822155          0
  16 15  0      -79.7756187164    -0.0000000006   0.000001022   0.000001235        3822155          0

          -----------------
          DENSITY CONVERGED
          -----------------
     TIME TO FORM FOCK OPERATORS=       1.0 SECONDS (       0.1 SEC/ITER)
     FOCK TIME ON FIRST ITERATION=       0.0, LAST ITERATION=       0.1
     TIME TO SOLVE SCF EQUATIONS=       0.2 SECONDS (       0.0 SEC/ITER)

 FINAL R-M06-2X ENERGY IS      -79.7756187164 AFTER  16 ITERATIONS
 DFT EXCHANGE + CORRELATION ENERGY =        -6.2922160952
 TOTAL ELECTRON NUMBER             =        17.9999931536
 TOTAL KINETIC ENERGY DENSITY      =         2.0764288820
 ...... END OF RHF CALCULATION ......
 CPU     0: STEP CPU TIME=     1.27 TOTAL CPU TIME=         10.7 (      0.2 MIN)
 TOTAL WALL CLOCK TIME=         17.2 SECONDS, CPU UTILIZATION IS    62.46%

*** START A GRADIENT CALCULATION ***

 ..... END OF 1-ELECTRON GRADIENT ......
 CPU     0: STEP CPU TIME=     0.02 TOTAL CPU TIME=         10.8 (      0.2 MIN)
 TOTAL WALL CLOCK TIME=         17.2 SECONDS, CPU UTILIZATION IS    62.32%
 MEMORY FOR GRID POINT CONTRIBUTIONS TO THE DFT GRADIENT=    560327 WORDS.
 CPU     0: STEP CPU TIME=     0.22 TOTAL CPU TIME=         11.0 (      0.2 MIN)
 TOTAL WALL CLOCK TIME=         17.5 SECONDS, CPU UTILIZATION IS    62.69%
 ...... END OF 2-ELECTRON GRADIENT ......
 CPU     0: STEP CPU TIME=     0.02 TOTAL CPU TIME=         11.0 (      0.2 MIN)
 TOTAL WALL CLOCK TIME=         17.5 SECONDS, CPU UTILIZATION IS    62.69%

*** Store the coordinates, gradients, and vectors into the dictionary file.  iREC=  617    7   10

*** Energy [hartree] of #IMAGE=    7
Energy =      -79.7756187164

*** Gradient [hartree/bohr] of #IMAGE=    7
     1  C            6.0      0.0000009920     -0.0000041914      0.0085862376
     2  C            6.0      0.0000036644      0.0000054565     -0.0085882405
     3  H            1.0     -0.0033137708      0.0039121395     -0.0005802216
     4  H            1.0     -0.0017274669     -0.0048267173     -0.0005772159
     5  H            1.0      0.0050405450      0.0009132204     -0.0005793159
     6  H            1.0     -0.0032170925     -0.0039958245      0.0005811615
     7  H            1.0      0.0050590757     -0.0007884886      0.0005810081
     8  H            1.0     -0.0018459468      0.0047844055      0.0005765869
 RMS Gradient =        0.0035773201


----------------- [END] ENERGY and GRADIENT calculation (initial run) #IMAGE=    7 -----------------


---------------- [BEGIN] ENERGY and GRADIENT calculation (initial run) #IMAGE=    8 ----------------

*** Coordinate [angs] of #IMAGE=    8
 C            6.0     -0.0000147446      0.0000597965     -0.7603596136
 C            6.0      0.0000110034     -0.0000605531      0.7603605418
 H            1.0      0.5114431232     -0.8610691673     -1.1828154899
 H            1.0      0.4900479429      0.8736272284     -1.1826416791
 H            1.0     -1.0015415876     -0.0122706196     -1.1827226449
 H            1.0      0.4900715102      0.8734245803      1.1828128586
 H            1.0     -1.0015058960     -0.0124451399      1.1827467869
 H            1.0      0.5114980427     -0.8612640550      1.1826317405

*** START A SINGLE POINT CALCULATION ***

 * GENERATE INITIAL GUESS ORBITALS *

 ...... END OF ONE-ELECTRON INTEGRALS ......
 CPU     0: STEP CPU TIME=     0.01 TOTAL CPU TIME=         11.0 (      0.2 MIN)
 TOTAL WALL CLOCK TIME=         17.6 SECONDS, CPU UTILIZATION IS    62.68%

          -------------
          GUESS OPTIONS
          -------------
          GUESS =HUCKEL            NORB  =       0          NORDER=       0
          MIX   =       F          PRTMO =       F          PUNMO =       F
          TOLZ  = 1.0E-08          TOLE  = 1.0E-05
          SYMDEN=       F          PURIFY=       F

 INITIAL GUESS ORBITALS GENERATED BY HUCKEL   ROUTINE.
 HUCKEL GUESS REQUIRES     46576 WORDS.

 SYMMETRIES FOR INITIAL GUESS ORBITALS FOLLOW.   BOTH SET(S).
     9 ORBITALS ARE OCCUPIED (    2 CORE ORBITALS).
     3=A        4=A        5=A        6=A        7=A        8=A        9=A   
    10=A       11=A       12=A       13=A       14=A       15=A       16=A   
    17=A       18=A       19=A   
 ...... END OF INITIAL ORBITAL SELECTION ......
 CPU     0: STEP CPU TIME=     0.02 TOTAL CPU TIME=         11.0 (      0.2 MIN)
 TOTAL WALL CLOCK TIME=         17.6 SECONDS, CPU UTILIZATION IS    62.58%
  ...... END OF TWO-ELECTRON INTEGRALS .....
 CPU     0: STEP CPU TIME=     0.00 TOTAL CPU TIME=         11.0 (      0.2 MIN)
 TOTAL WALL CLOCK TIME=         17.6 SECONDS, CPU UTILIZATION IS    62.58%

          --------------------------
            R-M06-2X SCF CALCULATION
          --------------------------
         DENSITY MATRIX CONVERGENCE THRESHOLD=  2.00E-05
     COARSE -> FINE DFT GRID SWITCH THRESHOLD=  3.00E-04 (SWITCH IN $DFT)
                   HF -> DFT SWITCH THRESHOLD=  5.00E-03 (SWOFF IN $DFT)

 DIRECT SCF CALCULATION, SCHWRZ=T   FDIFF=T,  DIRTHR=  0.00E+00 NITDIR=10

 DFT CODE IS SWITCHING FROM THE FINE GRID NRAD= 99,  NLEB=  590
                      TO THE COARSE GRID NRAD0= 24, NLEB0=  110
 DFT IS SWITCHED OFF, PERFORMING PURE SCF UNTIL SWOFF THRESHOLD IS REACHED.

                                                                                   NONZERO     BLOCKS
 ITER EX DEM     TOTAL ENERGY        E CHANGE  DENSITY CHANGE    DIIS ERROR      INTEGRALS    SKIPPED
          * * *   INITIATING DIIS PROCEDURE   * * *
   1  0  0      -79.0301301804   -79.0301301804   0.175851388   0.368133756        3822224          0
   2  1  0      -79.2212913719    -0.1911611915   0.052639591   0.053030165        3822224          0
   3  2  0      -79.2315408852    -0.0102495132   0.016817125   0.023863521        3822224          0
   4  3  0      -79.2335022261    -0.0019613409   0.004870847   0.003838510        3822224          0
 CONVERGED TO SWOFF, SO DFT CALCULATION IS NOW SWITCHED ON.
          * * *   INITIATING DIIS PROCEDURE   * * *
   5  4  0      -79.7615418091    -0.5280395830   0.045722472   0.070780090        3822224          0
   6  5  0      -79.7675901138    -0.0060483047   0.016014886   0.014026872        3822224          0
   7  6  0      -79.7679055643    -0.0003154505   0.007341175   0.009071219        3822224          0
   8  7  0      -79.7682911059    -0.0003855416   0.000568034   0.000548695        3822224          0
   9  8  0      -79.7682918121    -0.0000007063   0.000047992   0.000060528        3822224          0
 DFT CODE IS SWITCHING BACK TO THE FINE GRID
          * * *   INITIATING DIIS PROCEDURE   * * *
  10  9  0      -79.7751949825    -0.0069031704   0.016722743   0.016918249        3822224          0
  11 10  0      -79.7753368082    -0.0001418257   0.004109386   0.003339259        3822224          0
  12 11  0      -79.7753876274    -0.0000508192   0.001180548   0.001574906        3822224          0
  13 12  0      -79.7753977040    -0.0000100765   0.000218548   0.000066102        3822224          0
  14 13  0      -79.7753977951    -0.0000000911   0.000053053   0.000025457        3822224          0
  15 14  0      -79.7753978136    -0.0000000185   0.000005424   0.000001331        3822224          0
  16 15  0      -79.7753978153    -0.0000000017   0.000000746   0.000000136        3822224          0

          -----------------
          DENSITY CONVERGED
          -----------------
     TIME TO FORM FOCK OPERATORS=       1.1 SECONDS (       0.1 SEC/ITER)
     FOCK TIME ON FIRST ITERATION=       0.0, LAST ITERATION=       0.1
     TIME TO SOLVE SCF EQUATIONS=       0.2 SECONDS (       0.0 SEC/ITER)

 FINAL R-M06-2X ENERGY IS      -79.7753978153 AFTER  16 ITERATIONS
 DFT EXCHANGE + CORRELATION ENERGY =        -6.2922706885
 TOTAL ELECTRON NUMBER             =        18.0000026213
 TOTAL KINETIC ENERGY DENSITY      =         2.9248228633
 ...... END OF RHF CALCULATION ......
 CPU     0: STEP CPU TIME=     1.29 TOTAL CPU TIME=         12.3 (      0.2 MIN)
 TOTAL WALL CLOCK TIME=         19.6 SECONDS, CPU UTILIZATION IS    62.68%

[...]
#Image          F(RAW)_RMS      F(OPT)_RMS     F(perp)_RMS     F(para)_RMS    Fs(para)_RMS
     1            3.470407        0.000000        0.000000        0.000000        0.000000
     2            1.834521        1.813767        1.813205        0.278845        0.045146
     3            1.404688        1.299285        1.299145        0.534202        0.019080
     4            1.045357        0.802135        0.802124        0.670349        0.004087
     5            1.657745        1.500320        1.500084        0.705596        0.026634
     6            2.318841        2.245896        2.245783        0.577478        0.022492
     7            2.635302        2.617039        2.617032        0.309779        0.006042
     8            2.705478        2.705478        2.705478        0.000007        0.000001
     9            2.635403        2.617133        2.617126        0.309838        0.006036
    10            2.319151        2.246186        2.246074        0.577592        0.022483
    11            1.657979        1.500529        1.500293        0.705702        0.026633
    12            1.045580        0.802390        0.802379        0.670392        0.004090
    13            1.405161        1.299787        1.299647        0.534225        0.019088
    14            1.834552        1.813803        1.813241        0.278812        0.045122
    15            3.471162        0.000000        0.000000        0.000000        0.000000

----------------------------------------------------------------------------------------------------
                      *** EXAMINATION OF CONVERGENCES [commonly used units] ***
----------------------------------------------------------------------------------------------------
                    F(OPT) [kcal/mol/angs]             Displacement [angs]
#Image                 MAX             RMS             MAX             RMS
     1            0.000000        0.000000        0.000000        0.000000
     2            3.350146        1.813767        0.003395        0.001736
     3            3.459287        1.299285        0.007465        0.003828
     4            1.249240        0.802135        0.008701        0.004751
     5            2.833586        1.500320        0.006926        0.003901
     6            4.364890        2.245896        0.006094        0.002787
     7            4.920898        2.617039        0.005666        0.002355
     8            5.035410        2.705478        0.005692        0.002301
     9            4.921681        2.617133        0.005666        0.002355
    10            4.364387        2.246186        0.006093        0.002787
    11            2.832617        1.500529        0.006925        0.003900
    12            1.250406        0.802390        0.008715        0.004750
    13            3.460835        1.299787        0.007475        0.003827
    14            3.351602        1.813803        0.003401        0.001736
    15            0.000000        0.000000        0.000004        0.000003
   Maximum        5.035410        2.705478        0.008715        0.004751
 Tolerance       10.000000        3.000000        0.100000        0.010000
Converged?               T               T               T               T
    Result    All value of examination are smaller than the tolerance.

----------------------------------------------------------------------------------------------------




                              =================================
                                THE PATH IS NOW CONVERGED!!!!
                              =================================






----------------------------------------------------------------------------------------------------
                         *** COORDINATES OF EACH IMAGES [angstrom] ***
       Total cycle =        2
     Current cycle =        2
  Number of images =       15
   Number of atoms =        8
----------------------------------------------------------------------------------------------------
#image =    1, Energy=      -79.7801232279, Grad RMS=      0.002926586361
C              6.0000     -0.0000138771      0.0000604020     -0.7636366950
C              6.0000      0.0000130158     -0.0000605917      0.7636355490
H              1.0000      0.8830017300     -0.4953137448     -1.1564900295
H              1.0000     -0.0125131713      1.0125330030     -1.1563086124
H              1.0000     -0.8705416718     -0.5169497318     -1.1564783279
H              1.0000      0.8705409146      0.5169470438      1.1564836669
H              1.0000     -0.8829978516      0.4953167696      1.1564939493
H              1.0000      0.0125203058     -1.0125310796      1.1563130003
#image =    2, Energy=      -79.7800036531, Grad RMS=      0.001547046998
C              6.0000     -0.0000134357      0.0000637219     -0.7613738003
C              6.0000      0.0000129053     -0.0000637614      0.7613716036
H              1.0000      0.8438602729     -0.5592464212     -1.1654813878
H              1.0000      0.0624298806      1.0105834428     -1.1653031945
H              1.0000     -0.9063456355     -0.4510854460     -1.1654563978
H              1.0000      0.8298321366      0.5798945890      1.1654769415
H              1.0000     -0.9171619549      0.4285867067      1.1654791860
H              1.0000      0.0873916154     -1.0087324004      1.1653110080
#image =    3, Energy=      -79.7794225262, Grad RMS=      0.001184570325
C              6.0000     -0.0000106526      0.0000640200     -0.7636885502
C              6.0000      0.0000125637     -0.0000630704      0.7636858450
H              1.0000      0.8012865632     -0.6216697924     -1.1715475768
H              1.0000      0.1377704005      1.0049317860     -1.1713767379
H              1.0000     -0.9391360781     -0.3830034444     -1.1715113896
H              1.0000      0.7857379960      0.6412485791      1.1715419591
H              1.0000     -0.9482555679      0.3597118527      1.1715426016
H              1.0000      0.1625739312     -1.0012302868      1.1713833536
#image =    4, Energy=      -79.7785431244, Grad RMS=      0.000881547037
C              6.0000     -0.0000166258      0.0000556665     -0.7672959668
C              6.0000      0.0000094521     -0.0000572749      0.7672959606
H              1.0000      0.7523563268     -0.6795377426     -1.1755332967
H              1.0000      0.2123974081      0.9915109297     -1.1753507317
H              1.0000     -0.9647709294     -0.3116490837     -1.1754832474
H              1.0000      0.7353900566      0.6978991450      1.1755213880
H              1.0000     -0.9721289073      0.2877546917      1.1755005391
H              1.0000      0.2368414612     -0.9859587892      1.1753454221
#image =    5, Energy=      -79.7775190929, Grad RMS=      0.001397972250
C              6.0000     -0.0000110038      0.0000693083     -0.7682595550
C              6.0000      0.0000161414     -0.0000699461      0.7682580329
H              1.0000      0.6968084892     -0.7312326372     -1.1786324056
H              1.0000      0.2848873267      0.9692264194     -1.1784749009
H              1.0000     -0.9817816687     -0.2377558662     -1.1785732959
H              1.0000      0.6785824582      0.7482046577      1.1786270759
H              1.0000     -0.9873153651      0.2134606780      1.1785988666
H              1.0000      0.3087575872     -0.9618956574      1.1784727837
#image =    6, Energy=      -79.7765591779, Grad RMS=      0.001955473116
C              6.0000     -0.0000119046      0.0000629991     -0.7669120917
C              6.0000      0.0000117362     -0.0000622781      0.7669109312
H              1.0000      0.6378615297     -0.7787074585     -1.1808938508
H              1.0000      0.3554949688      0.9419256442     -1.1807221015
H              1.0000     -0.9934216448     -0.1629467330     -1.1808222198
H              1.0000      0.6184882740      0.7942051134      1.1808865946
H              1.0000     -0.9970983439      0.1383817563      1.1808508642
H              1.0000      0.3786772220     -0.9328669073      1.1807145314
#image =    7, Energy=      -79.7759147094, Grad RMS=      0.002222344129
C              6.0000     -0.0000138633      0.0000615609     -0.7661377668
C              6.0000      0.0000116582     -0.0000621098      0.7661374626
H              1.0000      0.5767255660     -0.8231297705     -1.1820895628
H              1.0000      0.4245450822      0.9111938178     -1.1819163881
H              1.0000     -1.0013189637     -0.0877806548     -1.1820069726
H              1.0000      0.5562724296      0.8371107231      1.1820821754
H              1.0000     -1.0031428887      0.0630482285      1.1820285163
H              1.0000      0.4469450309     -0.9004358086      1.1819058530
#image =    8, Energy=      -79.7756947508, Grad RMS=      0.002281523206
C              6.0000     -0.0000164705      0.0000615538     -0.7660515186
C              6.0000      0.0000092520     -0.0000620820      0.7660489473
H              1.0000      0.5130862075     -0.8638316291     -1.1824552324
H              1.0000      0.4916208032      0.8764269048     -1.1822854081
H              1.0000     -1.0047247671     -0.0123103044     -1.1823543159
H              1.0000      0.4916480846      0.8762323405      1.1824584443
H              1.0000     -1.0046852511     -0.0124843523      1.1823851397
H              1.0000      0.5131408726     -0.8640266700      1.1822819886
#image =    9, Energy=      -79.7759146899, Grad RMS=      0.002222428903
C              6.0000     -0.0000147105      0.0000617789     -0.7661371995
C              6.0000      0.0000120115     -0.0000622571      0.7661357577
H              1.0000      0.4468942972     -0.9002433221     -1.1820902453
H              1.0000      0.5562491505      0.8373067727     -1.1819251381
H              1.0000     -1.0031827066      0.0632217724     -1.1819877493
H              1.0000      0.4245741186      0.9109933761      1.1820890955
H              1.0000     -1.0012834874     -0.0879550504      1.1820167866
H              1.0000      0.5767807635     -0.8233178552      1.1819144186
#image =   10, Energy=      -79.7765591556, Grad RMS=      0.001955734182
C              6.0000     -0.0000141081      0.0000622020     -0.7669101134
C              6.0000      0.0000133746     -0.0000615663      0.7669092960
H              1.0000      0.3786275825     -0.9326712133     -1.1809005887
H              1.0000      0.6184640564      0.7943960357     -1.1807395448
H              1.0000     -0.9971414594      0.1385553170     -1.1807941551
H              1.0000      0.3555276335      0.9417250552      1.1809002299
H              1.0000     -0.9933865155     -0.1631216118      1.1808180564
H              1.0000      0.6379174364     -0.7788911519      1.1807257352
#image =   11, Energy=      -79.7775191070, Grad RMS=      0.001398169529
C              6.0000     -0.0000096095      0.0000566967     -0.7682567438
C              6.0000      0.0000136337     -0.0000574694      0.7682558934
H              1.0000      0.3087117485     -0.9617018872     -1.1786570309
H              1.0000      0.6785579771      0.7483887406     -1.1784930480
H              1.0000     -0.9873605127      0.2136327211     -1.1785260841
H              1.0000      0.2849243149      0.9690293352      1.1786555174
H              1.0000     -0.9817452588     -0.2379297232      1.1785561174
H              1.0000      0.6968638155     -0.7314099863      1.1784746542
#image =   12, Energy=      -79.7785431699, Grad RMS=      0.000881735366
C              6.0000     -0.0000158743      0.0000709238     -0.7672950680
C              6.0000      0.0000080095     -0.0000722298      0.7672915789
H              1.0000      0.2367978578     -0.9857683951     -1.1755258219
H              1.0000      0.7353638667      0.6980773926     -1.1753984215
H              1.0000     -0.9721772203      0.2879250951     -1.1754111888
H              1.0000      0.2124362869      0.9913154673      1.1755347629
H              1.0000     -0.9647362985     -0.3118233829      1.1754548470
H              1.0000      0.7524091528     -0.6797106269      1.1753873658
#image =   13, Energy=      -79.7794225598, Grad RMS=      0.001184969069
C              6.0000     -0.0000128683      0.0000637223     -0.7636846207
C              6.0000      0.0000139589     -0.0000623187      0.7636834042
H              1.0000      0.1625329869     -1.0010379943     -1.1715654359
H              1.0000      0.7857137039      0.6414250251     -1.1714266175
H              1.0000     -0.9483063342      0.3598825562     -1.1714369053
H              1.0000      0.1378116387      1.0047330361      1.1715670697
H              1.0000     -0.9391056367     -0.3831792600      1.1714669032
H              1.0000      0.8013406550     -0.6218400764      1.1714094705
#image =   14, Energy=      -79.7800036973, Grad RMS=      0.001547073087
C              6.0000     -0.0000134669      0.0000602953     -0.7613718454
C              6.0000      0.0000113682     -0.0000602996      0.7613719208
H              1.0000      0.0873554667     -1.0085346778     -1.1655022685
H              1.0000      0.8298152935      0.5800704382     -1.1653713436
H              1.0000     -0.9172170691      0.4287586952     -1.1653604213
H              1.0000      0.0624749929      1.0103810981      1.1654994146
H              1.0000     -0.9063221803     -0.4512626987      1.1653869795
H              1.0000      0.8439184849     -0.5594128045      1.1653467418
#image =   15, Energy=      -79.7801231815, Grad RMS=      0.002927222969
C              6.0000     -0.0000143048      0.0000626967     -0.7636340502
C              6.0000      0.0000112406     -0.0000633047      0.7636339535
H              1.0000      0.0124892138     -1.0123287282     -1.1565089776
H              1.0000      0.8705284079      0.5171174669     -1.1563879134
H              1.0000     -0.8830553531      0.4954872086     -1.1563604612
H              1.0000     -0.0124636045      1.0123285404      1.1565099067
H              1.0000     -0.8705249463     -0.5171256052      1.1563861226
H              1.0000      0.8830627679     -0.4954716420      1.1563624739
----------------------------------------------------------------------------------------------------
 CPU     0: STEP CPU TIME=     0.01 TOTAL CPU TIME=         42.5 (      0.7 MIN)
 TOTAL WALL CLOCK TIME=         70.8 SECONDS, CPU UTILIZATION IS    60.06%
               1226589  WORDS OF DYNAMIC MEMORY USED
 EXECUTION OF GAMESS TERMINATED NORMALLY Tue Feb 25 22:31:28 2020
 DDI: 263640 bytes (0.3 MB / 0 MWords) used by master data server.

 ----------------------------------------
 CPU timing information for all processes
 ========================================
 0: 36.844 + 5.658 = 42.503
 1: 37.356 + 1.750 = 39.106
 2: 36.610 + 1.743 = 38.353
 3: 37.507 + 1.514 = 39.21
 4: 36.843 + 1.667 = 38.511
 5: 36.892 + 1.428 = 38.321
 6: 27.613 + 2.884 = 30.497
 7: 27.238 + 2.64 = 29.302
 8: 27.139 + 1.733 = 28.872
 9: 26.480 + 2.114 = 28.595
 10: 27.49 + 1.860 = 28.910
 11: 26.958 + 1.580 = 28.538
 12: 27.402 + 2.567 = 29.969
 13: 27.14 + 1.934 = 28.949
 14: 26.957 + 1.575 = 28.533
 15: 26.822 + 1.846 = 28.669
 16: 26.255 + 1.925 = 28.180
 17: 26.479 + 1.616 = 28.95
 18: 27.365 + 2.424 = 29.790
 19: 27.443 + 1.950 = 29.393
 20: 27.505 + 1.633 = 29.139
 21: 27.150 + 1.865 = 29.16
 22: 26.844 + 1.931 = 28.775
 23: 27.221 + 1.510 = 28.732
 24: 24.537 + 2.522 = 27.60
 25: 24.631 + 2.175 = 26.806
 26: 25.01 + 1.799 = 26.800
 27: 25.09 + 1.948 = 26.957
 28: 24.678 + 1.952 = 26.630
 29: 24.799 + 1.666 = 26.466
 30: 26.46 + 2.310 = 28.357
 31: 25.986 + 2.70 = 28.57
 32: 25.939 + 1.759 = 27.698
 33: 25.898 + 1.866 = 27.764
 34: 25.758 + 1.842 = 27.601
 35: 25.800 + 1.515 = 27.315
 36: 0.555 + 6.766 = 7.322
 37: 0.565 + 6.764 = 7.329
 38: 0.558 + 6.713 = 7.272
 39: 0.554 + 6.820 = 7.375
 40: 0.524 + 6.702 = 7.226
 41: 0.532 + 6.804 = 7.337
 42: 0.02 + 0.04 = 0.06
 43: 0.01 + 0.04 = 0.06
 44: 0.03 + 0.02 = 0.05
 45: 0.01 + 0.02 = 0.03
 46: 0.00 + 0.05 = 0.05
 47: 0.00 + 0.04 = 0.05
 48: 0.00 + 0.05 = 0.06
 49: 0.01 + 0.04 = 0.06
 50: 0.00 + 0.05 = 0.06
 51: 0.01 + 0.03 = 0.05
 52: 0.01 + 0.04 = 0.06
 53: 0.01 + 0.05 = 0.06
 54: 0.01 + 0.04 = 0.05
 55: 0.01 + 0.03 = 0.04
 56: 0.01 + 0.04 = 0.05
 57: 0.01 + 0.04 = 0.05
 58: 0.00 + 0.04 = 0.04
 59: 0.01 + 0.04 = 0.06
 60: 0.01 + 0.05 = 0.06
 61: 0.04 + 0.01 = 0.05
 62: 0.00 + 0.04 = 0.05
 63: 0.02 + 0.03 = 0.05
 64: 0.00 + 0.03 = 0.03
 65: 0.02 + 0.03 = 0.05
 66: 0.01 + 0.04 = 0.05
 67: 0.00 + 0.03 = 0.04
 68: 0.00 + 0.05 = 0.05
 69: 0.00 + 0.06 = 0.06
 70: 0.01 + 0.02 = 0.03
 71: 0.00 + 0.04 = 0.04
 ----------------------------------------
 ddikick.x: exited gracefully.
----- accounting info -----
Files used on the master node alpha1 were:
-rw-r--r-- 1 asada3 asada  2532536 Feb 25 22:31 /scr/asada3/exam02.dat
-rw-r--r-- 1 asada3 asada     1427 Feb 25 22:30 /scr/asada3/exam02.F05
-rw-r--r-- 1 asada3 asada 63897600 Feb 25 22:31 /scr/asada3/exam02.F10
-rw-r--r-- 1 asada3 asada  4257136 Feb 25 22:31 /scr/asada3/exam02.F22
-rw-r--r-- 1 asada3 asada  4257136 Feb 25 22:31 /scr/asada3/exam02.F22.001
-rw-r--r-- 1 asada3 asada  4257136 Feb 25 22:31 /scr/asada3/exam02.F22.002
-rw-r--r-- 1 asada3 asada  4257136 Feb 25 22:31 /scr/asada3/exam02.F22.003
-rw-r--r-- 1 asada3 asada  4257136 Feb 25 22:31 /scr/asada3/exam02.F22.004
-rw-r--r-- 1 asada3 asada  4257136 Feb 25 22:31 /scr/asada3/exam02.F22.005
-rw-r--r-- 1 asada3 asada   115857 Feb 25 22:31 /scr/asada3/exam02.trj
Files from alpha2 are:
-rw-r--r-- 1 asada3 asada 4257136 Feb 25 22:31 /scr/asada3/exam02.F22.006
-rw-r--r-- 1 asada3 asada 4257136 Feb 25 22:31 /scr/asada3/exam02.F22.007
-rw-r--r-- 1 asada3 asada 4257136 Feb 25 22:31 /scr/asada3/exam02.F22.008
-rw-r--r-- 1 asada3 asada 4257136 Feb 25 22:31 /scr/asada3/exam02.F22.009
-rw-r--r-- 1 asada3 asada 4257136 Feb 25 22:31 /scr/asada3/exam02.F22.010
-rw-r--r-- 1 asada3 asada 4257136 Feb 25 22:31 /scr/asada3/exam02.F22.011
Files from alpha3 are:
-rw-r--r-- 1 asada3 asada 4257136 Feb 25 22:31 /scr/asada3/exam02.F22.012
-rw-r--r-- 1 asada3 asada 4257136 Feb 25 22:31 /scr/asada3/exam02.F22.013
-rw-r--r-- 1 asada3 asada 4257136 Feb 25 22:31 /scr/asada3/exam02.F22.014
-rw-r--r-- 1 asada3 asada 4257136 Feb 25 22:31 /scr/asada3/exam02.F22.015
-rw-r--r-- 1 asada3 asada 4257136 Feb 25 22:31 /scr/asada3/exam02.F22.016
-rw-r--r-- 1 asada3 asada 4257136 Feb 25 22:31 /scr/asada3/exam02.F22.017
Files from alpha4 are:
-rw-r--r-- 1 asada3 asada 4257136 Feb 25 22:31 /scr/asada3/exam02.F22.018
-rw-r--r-- 1 asada3 asada 4257136 Feb 25 22:31 /scr/asada3/exam02.F22.019
-rw-r--r-- 1 asada3 asada 4257136 Feb 25 22:31 /scr/asada3/exam02.F22.020
-rw-r--r-- 1 asada3 asada 4257136 Feb 25 22:31 /scr/asada3/exam02.F22.021
-rw-r--r-- 1 asada3 asada 4257136 Feb 25 22:31 /scr/asada3/exam02.F22.022
-rw-r--r-- 1 asada3 asada 4257136 Feb 25 22:31 /scr/asada3/exam02.F22.023
Files from alpha5 are:
-rw-r--r-- 1 asada3 asada 4257136 Feb 25 22:31 /scr/asada3/exam02.F22.024
-rw-r--r-- 1 asada3 asada 4257136 Feb 25 22:31 /scr/asada3/exam02.F22.025
-rw-r--r-- 1 asada3 asada 4257136 Feb 25 22:31 /scr/asada3/exam02.F22.026
-rw-r--r-- 1 asada3 asada 4257136 Feb 25 22:31 /scr/asada3/exam02.F22.027
-rw-r--r-- 1 asada3 asada 4257136 Feb 25 22:31 /scr/asada3/exam02.F22.028
-rw-r--r-- 1 asada3 asada 4257136 Feb 25 22:31 /scr/asada3/exam02.F22.029
Files from alpha6 are:
-rw-r--r-- 1 asada3 asada 4257136 Feb 25 22:31 /scr/asada3/exam02.F22.030
-rw-r--r-- 1 asada3 asada 4257136 Feb 25 22:31 /scr/asada3/exam02.F22.031
-rw-r--r-- 1 asada3 asada 4257136 Feb 25 22:31 /scr/asada3/exam02.F22.032
-rw-r--r-- 1 asada3 asada 4257136 Feb 25 22:31 /scr/asada3/exam02.F22.033
-rw-r--r-- 1 asada3 asada 4257136 Feb 25 22:31 /scr/asada3/exam02.F22.034
-rw-r--r-- 1 asada3 asada 4257136 Feb 25 22:31 /scr/asada3/exam02.F22.035
Tue Feb 25 22:31:34 JST 2020
0.422u 0.304s 1:18.97 0.9%	0+0k 0+5408io 0pf+0w
