----- GAMESS execution script 'rungms' -----
This job is running on host alpha1
under operating system Linux at Tue Feb 25 22:37:40 JST 2020
Available scratch disk space (Kbyte units) at beginning of the job is
Filesystem      1K-blocks      Used Available Use% Mounted on
/dev/sda2      1440803456 586714104 780830808  43% /scr
GAMESS temporary binary files will be written to /scr/asada3
GAMESS supplementary output files will be written to /scr/asada3
Copying input file exam07.inp to your run's scratch directory...
Deleting old files...
Using 6 nodes and 36 cores from machine1.lst.

 Distributed Data Interface kickoff program.
 Initiating 36 compute processes on 6 nodes to run the following command:
 /home/users/asada3/haruta/bin/gamess-dev/gamess/gamess.00.x exam07 

          ******************************************************
          *         GAMESS VERSION = 30 SEP 2018 (R3)         *
          *             FROM IOWA STATE UNIVERSITY             *
          * M.W.SCHMIDT, K.K.BALDRIDGE, J.A.BOATZ, S.T.ELBERT, *
          *   M.S.GORDON, J.H.JENSEN, S.KOSEKI, N.MATSUNAGA,   *
          *          K.A.NGUYEN, S.J.SU, T.L.WINDUS,           *
          *       TOGETHER WITH M.DUPUIS, J.A.MONTGOMERY       *
          *         J.COMPUT.CHEM.  14, 1347-1363(1993)        *
          **************** 64 BIT INTEL VERSION ****************

  SINCE 1993, STUDENTS AND POSTDOCS WORKING AT IOWA STATE UNIVERSITY
  AND ALSO IN THEIR VARIOUS JOBS AFTER LEAVING ISU HAVE MADE IMPORTANT
  CONTRIBUTIONS TO THE CODE:
     IVANA ADAMOVIC, CHRISTINE AIKENS, YURI ALEXEEV, POOJA ARORA,
     ANDREY ASADCHEV, ROB BELL, PRADIPTA BANDYOPADHYAY, JONATHAN BENTZ,
     BRETT BODE, KURT BRORSEN, CALEB CARLIN, GALINA CHABAN, WEI CHEN,
     CHEOL HO CHOI, PAUL DAY, ALBERT DEFUSCO, NUWAN DESILVA, TIM DUDLEY,
     DMITRI FEDOROV, ALEX FINDLATER, GRAHAM FLETCHER, MARK FREITAG,
     KURT GLAESEMANN, ANASTASIA GUNINA,
     DAN KEMP, GRANT MERRILL, NORIYUKI MINEZAWA, JONATHAN MULLIN,
     TAKESHI NAGATA, SEAN NEDD, HEATHER NETZLOFF, BOSILJKA NJEGIC, RYAN OLSON,
     MIKE PAK, BUU PHAM,
     SPENCER PRUITT, LUKE ROSKOP, JIM SHOEMAKER, LYUDMILA SLIPCHENKO,
     TONY SMITH, SAROM SOK LEANG, JIE SONG, TETSUYA TAKETSUGU, SIMON WEBB,
     PENG XU, SOOHAENG YOO, FEDERICO ZAHARIEV

  ADDITIONAL CODE HAS BEEN PROVIDED BY COLLABORATORS IN OTHER GROUPS:
     IOWA STATE UNIVERSITY:
          JOE IVANIC, AARON WEST, LAIMUTIS BYTAUTAS, KLAUS RUEDENBERG
     UNIVERSITY OF TOKYO: KIMIHIKO HIRAO, TAKAHITO NAKAJIMA,
          TAKAO TSUNEDA, MUNEAKI KAMIYA, SUSUMU YANAGISAWA,
          KIYOSHI YAGI, MAHITO CHIBA, SEIKEN TOKURA, NAOAKI KAWAKAMI
     UNIVERSITY OF AARHUS: FRANK JENSEN
     UNIVERSITY OF IOWA: VISVALDAS KAIRYS, HUI LI
     NATIONAL INST. OF STANDARDS AND TECHNOLOGY: WALT STEVENS, DAVID GARMER
     UNIVERSITY OF PISA: BENEDETTA MENNUCCI, JACOPO TOMASI
     UNIVERSITY OF MEMPHIS: HENRY KURTZ, PRAKASHAN KORAMBATH
     UNIVERSITY OF ALBERTA: TOBY ZENG, MARIUSZ KLOBUKOWSKI
     UNIVERSITY OF NEW ENGLAND: MARK SPACKMAN
     MIE UNIVERSITY: HIROAKI UMEDA
     NAT. INST. OF ADVANCED INDUSTRIAL SCIENCE AND TECHNOLOGY: KAZUO KITAURA
     MICHIGAN STATE UNIVERSITY:
          KAROL KOWALSKI, MARTA WLOCH, JEFFREY GOUR, JESSE LUTZ,
          WEI LI, JUN SHEN, J. EMILIANO DEUSTUA, PIOTR PIECUCH
     UNIVERSITY OF MINNESOTA:
          YINAN SHU
     UNIVERSITY OF SILESIA: MONIKA MUSIAL, STANISLAW KUCHARSKI
     FACULTES UNIVERSITAIRES NOTRE-DAME DE LA PAIX:
          OLIVIER QUINET, BENOIT CHAMPAGNE
     UNIVERSITY OF CALIFORNIA - SANTA BARBARA: BERNARD KIRTMAN
     INSTITUTE FOR MOLECULAR SCIENCE:
          KAZUYA ISHIMURA, MICHIO KATOUDA, AND SHIGERU NAGASE
     UNIVERSITY OF NOTRE DAME: ANNA POMOGAEVA, DAN CHIPMAN
     KYUSHU UNIVERSITY:
          HARUYUKI NAKANO,
          FENG LONG GU, JACEK KORCHOWIEC, MARCIN MAKOWSKI, AND YURIKO AOKI,
          HIROTOSHI MORI AND EISAKU MIYOSHI
     PENNSYLVANIA STATE UNIVERSITY:
          TZVETELIN IORDANOV, CHET SWALINA, JONATHAN SKONE,
          SHARON HAMMES-SCHIFFER
     WASEDA UNIVERSITY:
          MASATO KOBAYASHI, TOMOKO AKAMA, TSUGUKI TOUMA,
          TAKESHI YOSHIKAWA, YASUHIRO IKABATA, JUNJI SEINO,
          YUYA NAKAJIMA, HIROMI NAKAI
     NANJING UNIVERSITY: SHUHUA LI
     UNIVERSITY OF NEBRASKA:
          PEIFENG SU, DEJUN SI, NANDUN THELLAMUREGE, YALI WANG, HUI LI
     UNIVERSITY OF ZURICH: ROBERTO PEVERATI, KIM BALDRIDGE
     N. COPERNICUS UNIVERSITY AND JACKSON STATE UNIVERSITY:
          MARIA BARYSZ
     UNIVERSITY OF COPENHAGEN: Jimmy Kromann, CASPER STEINMANN
     TOKYO INSTITUTE OF TECHNOLOGY: HIROYA NAKATA
     NAGOYA UNIVERSITY: YOSHIO NISHIMOTO, STEPHAN IRLE
     MOSCOW STATE UNIVERSITY: VLADIMIR MIRONOV


 PARALLEL VERSION RUNNING ON       36 PROCESSORS IN        6 NODES.

 EXECUTION OF GAMESS BEGUN Tue Feb 25 22:37:41 2020

            ECHO OF THE FIRST FEW INPUT CARDS -
 INPUT CARD>! Malon aldehyde proton transfer B restart test1                                
 INPUT CARD> $SCF    DIRSCF=.TRUE. $END                                                     
 INPUT CARD> $CONTRL RUNTYP=NEBPATH $END                                                    
 INPUT CARD> $CONTRL INTTYP=HONDO ICUT=21 ITOL=31 $END                                      
 INPUT CARD> $BASIS  NGAUSS=6 GBASIS=N31 DIFFSP=.TRUE. DIFFS=.TRUE. NDFUNC=1 NPFUNC=1 $END  
 INPUT CARD> $SYSTEM MWORDS=1000 MEMDDI=200 TIMLIM=99999999 KDIAG=0 $END                    
 INPUT CARD> $GUESS  GUESS=MOREAD NORB=119 $END                                             
 INPUT CARD> $NEB    IMAGES=15 MORINT=.TRUE. VIAPNT=.TRUE. SPFORC=300.9                     
 INPUT CARD>         OPTTOL=3.0 MAXCYC=1000 $END                                            
 INPUT CARD>                                                                                
 INPUT CARD>Cs                                                                              
 INPUT CARD> $DATA                                                                          
 INPUT CARD>Malon aldehyde                                                                  
 INPUT CARD>C1                                                                              
 INPUT CARD>CARBON      6.0   0.2145244008  -2.3787612401   0.0000000000                    
 INPUT CARD>CARBON      6.0   0.8817485992  -1.0878280606   0.0000000000                    
 INPUT CARD>CARBON      6.0   0.1806931208   0.0595513217   0.0000000000                    
 INPUT CARD>OXYGEN      8.0  -0.9856040046  -2.5181999997   0.0000000000                    
 INPUT CARD>OXYGEN      8.0  -1.1264369495   0.1676023893   0.0000000000                    
 INPUT CARD>HYDROGEN    1.0   0.8571134079  -3.2607818521   0.0000000000                    
 INPUT CARD>HYDROGEN    1.0   0.6734625083   1.0152979535   0.0000000000                    
 INPUT CARD>HYDROGEN    1.0  -1.5274454547  -0.7003267569   0.0000000000                    
 INPUT CARD>HYDROGEN    1.0   1.9540041599  -1.0479933113   0.0000000000                    
 INPUT CARD> $END                                                                           
 INPUT CARD>                                                                                
 INPUT CARD> $DATAPD                                                                        
 INPUT CARD>c    6.0    0.001221   -1.256012    0.000000                                    
 INPUT CARD>c    6.0    0.668411    0.034973    0.000000                                    
 INPUT CARD>c    6.0   -0.032730    1.182281    0.000000                                    
 INPUT CARD>o    8.0    0.581680   -2.315613    0.000000                                    
 INPUT CARD>o    8.0   -1.339844    1.290222    0.000000                                    
 INPUT CARD>h    1.0   -1.089966   -1.242020    0.000000                                    
 INPUT CARD>h8   1.0    0.459976    2.138062    0.000000                                    
 INPUT CARD>h9   1.0   -1.740784    0.422318    0.000000                                    
 INPUT CARD>h7   1.0    1.740600    0.074860    0.000000                                    
 INPUT CARD> $END                                                                           
 INPUT CARD>                                                                                
 INPUT CARD> $DATAVI                                                                        
 INPUT CARD>C   6.0    0.001251   -1.256027    0.000031                                     
 INPUT CARD>C   6.0    0.668457    0.034912    0.000000                                     
 INPUT CARD>C   6.0   -0.032608    1.182297    0.000000                                     
 INPUT CARD>O   8.0   -0.355179   -1.831451    1.000763                                     
 INPUT CARD>O   8.0   -1.339676    1.290329    0.000000                                     
 INPUT CARD>H   1.0   -0.177673   -1.713455   -0.974457                                     
 INPUT CARD>H8  1.0    0.460144    2.138031    0.000000                                     
 INPUT CARD>H9  1.0   -1.740707    0.422409    0.000000                                     
 INPUT CARD>H7  1.0    1.740707    0.074753    0.000000                                     
 INPUT CARD> $END                                                                           
 INPUT CARD>                                                                                
 INPUT CARD>*********************************************************                       
 1000000000 WORDS OF MEMORY AVAILABLE

     BASIS OPTIONS
     -------------
     GBASIS=N31          IGAUSS=       6      POLAR=POPN31  
     NDFUNC=       1     NFFUNC=       0     DIFFSP=       T
     NPFUNC=       1      DIFFS=       T     BASNAM=        


     RUN TITLE
     ---------
 Malon aldehyde                                                                  

 THE POINT GROUP OF THE MOLECULE IS C1      
 THE ORDER OF THE PRINCIPAL AXIS IS     0

 ATOM      ATOMIC                      COORDINATES (BOHR)
           CHARGE         X                   Y                   Z
 CARBON      6.0     0.4053923352       -4.4952069340        0.0000000000
 CARBON      6.0     1.6662632425       -2.0556969563        0.0000000000
 CARBON      6.0     0.3414604862        0.1125356802        0.0000000000
 OXYGEN      8.0    -1.8625215011       -4.7587079817        0.0000000000
 OXYGEN      8.0    -2.1286571770        0.3167225907        0.0000000000
 HYDROGEN    1.0     1.6197094813       -6.1619842062        0.0000000000
 HYDROGEN    1.0     1.2726596037        1.9186349280        0.0000000000
 HYDROGEN    1.0    -2.8864533706       -1.3234256724        0.0000000000
 HYDROGEN    1.0     3.6925324411       -1.9804201953        0.0000000000

          INTERNUCLEAR DISTANCES (ANGS.)
          ------------------------------

                1 CARB       2 CARB       3 CARB       4 OXYG       5 OXYG  

   1 CARB    0.0000000    1.4531678 *  2.4385473 *  1.2082017 *  2.8778716 *
   2 CARB    1.4531678 *  0.0000000    1.3446034 *  2.3522265 *  2.3683148 *
   3 CARB    2.4385473 *  1.3446034 *  0.0000000    2.8293199 *  1.3115884 *
   4 OXYG    1.2082017 *  2.3522265 *  2.8293199 *  0.0000000    2.6894922 *
   5 OXYG    2.8778716 *  2.3683148 *  1.3115884 *  2.6894922 *  0.0000000  
   6 HYDR    1.0912749 *  2.1730934 *  3.3885331    1.9867147 *  3.9608447  
   7 HYDR    3.4249470    2.1134148 *  1.0753015 *  3.9036021    1.9895290 *
   8 HYDR    2.4190083 *  2.4401584 *  1.8695326 *  1.8969068 *  0.9560904 *
   9 HYDR    2.1901445 *  1.0729952 *  2.0907623 *  3.2867619    3.3116145  

                6 HYDR       7 HYDR       8 HYDR       9 HYDR  

   1 CARB    1.0912749 *  3.4249470    2.4190083 *  2.1901445 *
   2 CARB    2.1730934 *  2.1134148 *  2.4401584 *  1.0729952 *
   3 CARB    3.3885331    1.0753015 *  1.8695326 *  2.0907623 *
   4 OXYG    1.9867147 *  3.9036021    1.8969068 *  3.2867619  
   5 OXYG    3.9608447    1.9895290 *  0.9560904 *  3.3116145  
   6 HYDR    0.0000000    4.2800217    3.4988643    2.4697373 *
   7 HYDR    4.2800217    0.0000000    2.7905849 *  2.4283652 *
   8 HYDR    3.4988643    2.7905849 *  0.0000000    3.4987660  
   9 HYDR    2.4697373 *  2.4283652 *  3.4987660    0.0000000  

  * ... LESS THAN  3.000


     ATOMIC BASIS SET
     ----------------
 THE CONTRACTED PRIMITIVE FUNCTIONS HAVE BEEN UNNORMALIZED
 THE CONTRACTED BASIS FUNCTIONS ARE NOW NORMALIZED TO UNITY

  SHELL TYPE  PRIMITIVE        EXPONENT          CONTRACTION COEFFICIENT(S)

 CARBON    

      1   S       1          3047.5248800    0.001834737132
      1   S       2           457.3695180    0.014037322813
      1   S       3           103.9486850    0.068842622264
      1   S       4            29.2101553    0.232184443216
      1   S       5             9.2866630    0.467941348435
      1   S       6             3.1639270    0.362311985337

      2   L       7             7.8682723   -0.119332419775    0.068999066591
      2   L       8             1.8812885   -0.160854151696    0.316423960957
      2   L       9             0.5442493    1.143456437840    0.744308290898

      3   L      10             0.1687145    1.000000000000    1.000000000000

      4   L      11             0.0438000    1.000000000000    1.000000000000

      5   D      12             0.8000000    1.000000000000

 CARBON    

      6   S      13          3047.5248800    0.001834737132
      6   S      14           457.3695180    0.014037322813
      6   S      15           103.9486850    0.068842622264
      6   S      16            29.2101553    0.232184443216
      6   S      17             9.2866630    0.467941348435
      6   S      18             3.1639270    0.362311985337

      7   L      19             7.8682723   -0.119332419775    0.068999066591
      7   L      20             1.8812885   -0.160854151696    0.316423960957
      7   L      21             0.5442493    1.143456437840    0.744308290898

      8   L      22             0.1687145    1.000000000000    1.000000000000

      9   L      23             0.0438000    1.000000000000    1.000000000000

     10   D      24             0.8000000    1.000000000000

 CARBON    

     11   S      25          3047.5248800    0.001834737132
     11   S      26           457.3695180    0.014037322813
     11   S      27           103.9486850    0.068842622264
     11   S      28            29.2101553    0.232184443216
     11   S      29             9.2866630    0.467941348435
     11   S      30             3.1639270    0.362311985337

     12   L      31             7.8682723   -0.119332419775    0.068999066591
     12   L      32             1.8812885   -0.160854151696    0.316423960957
     12   L      33             0.5442493    1.143456437840    0.744308290898

     13   L      34             0.1687145    1.000000000000    1.000000000000

     14   L      35             0.0438000    1.000000000000    1.000000000000

     15   D      36             0.8000000    1.000000000000

 OXYGEN    

     16   S      37          5484.6716600    0.001831074430
     16   S      38           825.2349460    0.013950172200
     16   S      39           188.0469580    0.068445078098
     16   S      40            52.9645000    0.232714335992
     16   S      41            16.8975704    0.470192897984
     16   S      42             5.7996353    0.358520852987

     17   L      43            15.5396162   -0.110777549525    0.070874268231
     17   L      44             3.5999336   -0.148026262701    0.339752839147
     17   L      45             1.0137618    1.130767015354    0.727158577316

     18   L      46             0.2700058    1.000000000000    1.000000000000

     19   L      47             0.0845000    1.000000000000    1.000000000000

     20   D      48             0.8000000    1.000000000000

 OXYGEN    

     21   S      49          5484.6716600    0.001831074430
     21   S      50           825.2349460    0.013950172200
     21   S      51           188.0469580    0.068445078098
     21   S      52            52.9645000    0.232714335992
     21   S      53            16.8975704    0.470192897984
     21   S      54             5.7996353    0.358520852987

     22   L      55            15.5396162   -0.110777549525    0.070874268231
     22   L      56             3.5999336   -0.148026262701    0.339752839147
     22   L      57             1.0137618    1.130767015354    0.727158577316

     23   L      58             0.2700058    1.000000000000    1.000000000000

     24   L      59             0.0845000    1.000000000000    1.000000000000

     25   D      60             0.8000000    1.000000000000

 HYDROGEN  

     26   S      61            18.7311370    0.033494604338
     26   S      62             2.8253944    0.234726953484
     26   S      63             0.6401217    0.813757326146

     27   S      64             0.1612778    1.000000000000

     28   S      65             0.0360000    1.000000000000

     29   P      66             1.1000000    1.000000000000

 HYDROGEN  

     30   S      67            18.7311370    0.033494604338
     30   S      68             2.8253944    0.234726953484
     30   S      69             0.6401217    0.813757326146

     31   S      70             0.1612778    1.000000000000

     32   S      71             0.0360000    1.000000000000

     33   P      72             1.1000000    1.000000000000

 HYDROGEN  

     34   S      73            18.7311370    0.033494604338
     34   S      74             2.8253944    0.234726953484
     34   S      75             0.6401217    0.813757326146

     35   S      76             0.1612778    1.000000000000

     36   S      77             0.0360000    1.000000000000

     37   P      78             1.1000000    1.000000000000

 HYDROGEN  

     38   S      79            18.7311370    0.033494604338
     38   S      80             2.8253944    0.234726953484
     38   S      81             0.6401217    0.813757326146

     39   S      82             0.1612778    1.000000000000

     40   S      83             0.0360000    1.000000000000

     41   P      84             1.1000000    1.000000000000

 TOTAL NUMBER OF BASIS SET SHELLS             =   41
 NUMBER OF CARTESIAN GAUSSIAN BASIS FUNCTIONS =  119
 NUMBER OF ELECTRONS                          =   38
 CHARGE OF MOLECULE                           =    0
 SPIN MULTIPLICITY                            =    1
 NUMBER OF OCCUPIED ORBITALS (ALPHA)          =   19
 NUMBER OF OCCUPIED ORBITALS (BETA )          =   19
 TOTAL NUMBER OF ATOMS                        =    9
 THE NUCLEAR REPULSION ENERGY IS      165.0142639763

     $CONTRL OPTIONS
     ---------------
 SCFTYP=RHF          RUNTYP=NEBPATH      EXETYP=RUN     
 MPLEVL=       0     CITYP =NONE         CCTYP =NONE         VBTYP =NONE    
 DFTTYP=NONE         TDDFT =NONE    
 MULT  =       1     ICHARG=       0     NZVAR =       0     COORD =UNIQUE  
 PP    =NONE         RELWFN=NONE         LOCAL =NONE         NUMGRD=       F
 ISPHER=      -1     NOSYM =       0     MAXIT =      30     UNITS =ANGS    
 PLTORB=       F     MOLPLT=       F     AIMPAC=       F     FRIEND=        
 NPRINT=       7     IREST =       0     GEOM  =INPUT   
 NORMF =       0     NORMP =       0     ITOL  =      31     ICUT  =      21
 INTTYP=BEST         GRDTYP=BEST         QMTTOL= 1.0E-06

     $SYSTEM OPTIONS
     ---------------
  REPLICATED MEMORY=  1000000000 WORDS (ON EVERY NODE).
 DISTRIBUTED MEMDDI=         200 MILLION WORDS IN AGGREGATE,
 MEMDDI DISTRIBUTED OVER  36 PROCESSORS IS     5555555 WORDS/PROCESSOR.
 TOTAL MEMORY REQUESTED ON EACH PROCESSOR=  1005555555 WORDS.
 TIMLIM=    99999999.00 MINUTES, OR   69444.4 DAYS.
 PARALL= T  BALTYP=  DLB     KDIAG=    0  COREFL= F
 MXSEQ2=     300 MXSEQ3=     150  mem10=         0

          ----------------
          PROPERTIES INPUT
          ----------------

     MOMENTS            FIELD           POTENTIAL          DENSITY
 IEMOM =       1   IEFLD =       0   IEPOT =       0   IEDEN =       0
 WHERE =COMASS     WHERE =NUCLEI     WHERE =NUCLEI     WHERE =NUCLEI  
 OUTPUT=BOTH       OUTPUT=BOTH       OUTPUT=BOTH       OUTPUT=BOTH    
 IEMINT=       0   IEFINT=       0                     IEDINT=       0
                                                       MORB  =       0
          EXTRAPOLATION IN EFFECT
          SOSCF IN EFFECT
 ORBITAL PRINTING OPTION: NPREO=     1   119     2     1

     -------------------------------
     INTEGRAL TRANSFORMATION OPTIONS
     -------------------------------
     NWORD  =            0
     CUTOFF = 1.0E-09     MPTRAN =       0
     DIRTRF =       T     AOINTS =DUP     

          ----------------------
          INTEGRAL INPUT OPTIONS
          ----------------------
 NOPK  =       1 NORDER=       0 SCHWRZ=       T

     ------------------------------------------
     THE POINT GROUP IS C1 , NAXIS= 0, ORDER= 1
     ------------------------------------------

     DIMENSIONS OF THE SYMMETRY SUBSPACES ARE
 A   =  119

 ..... DONE SETTING UP THE RUN .....
 CPU     0: STEP CPU TIME=     0.07 TOTAL CPU TIME=          0.1 (      0.0 MIN)
 TOTAL WALL CLOCK TIME=          0.1 SECONDS, CPU UTILIZATION IS   100.00%

          ---------------------------------------
          Nudged Elastic Band / String Pathfinder
          ---------------------------------------
                                        Version 3
          implemented in March 2019
           by Nozomi Sawada, Mamoru Haruta, Toshio Asada, and Shiro Koseki,
          Osaka Prefecture University, Japan.
          Reference: Chem Phys Lett in progress.

     $NEB OPTIONS
     ------------
 Parallel computation                   (GOPARR) = T
 Output log level (1=minimum,9=maximum) (NPRINT) =        2
 Number of images                       (IMAGES) =       15
 Maximum cycle number                   (MAXCYC) =        5
 Method of path optimizing              (METHOD) = NEB     
 Tangent vector definition              (TANGNT) = ORIGINAL
 Unit for coordinates                   (UNTCRD) = ANGS    
 Unit for constants                     (UNTCNT) = ANGS    
 Generate initial guess MOs at first    (INIGSS) = T
 Generate initial guess MOs every time  (EVRGSS) = F
 Restart option                         (RESTRT) = T
 Number of the cycles                   (ISTART) =        5
 Caution for molecular orientation      (MORINT) = T
 Caution for molecular symmetry         (MOLSYM) = F
 Via-point structure                    (VIAPNT) = T
 Transition-state search                (TSLOCT) = F
 Optimizer                              (OPTMZR) = QUICKMIN
 Interpolation method for making images (INTERP) = IDPP    
 Coordinate fitting between images      (FITTNG) = ANGULAR 
 First end image condition              (FSTEND) = FIXED   
 Last end image condition               (LSTEND) = FIXED   
 Delta r for Climbing-end               (DELTAR) =    0.00000 [angs]
                                                 =    0.00000 [bohr]
 Dist change cycletime for climbing-end (SWCYCL) =        1
 Distance multiplier for optimizer      (DELTAT) =    0.01000 [angs/sqrt(kcal/mol)]
                                                 =    0.47338 [bohr/sqrt(hartree)]
 Spring force constant                  (SPFORC) =  300.90000 [kcal/mol/(angs^2)]
                                                 =    0.13428 [hartree/(bohr^2)]
 Tolerance for geometrical optimization (OPTTOL) =    3.00000 [kcal/mol/angs]
                                                 =    0.00253 [hartree/bohr]
 Tolerance MAX geometrical optimization (OPMTOL) =   10.00000 [kcal/mol/angs]
                                                 =    0.00843 [hartree/bohr]
 Tolerance for coordination displacement(CRDTOL) =    0.01000 [angs]
                                                 =    0.01890 [bohr]
 Tolerance MAX coordination displacement(CRMTOL) =    0.10000 [angs]
                                                 =    0.18897 [bohr]
 Coordinate fitting for initial path    (INIFIT) = RMS     
 IDPP interpolation optimize method     (IPMETH) = STRING  
 IDPP interpolation NEB/STR MAXCYC      (IPMXCY) =     3000
 IDPP interpolation NEB/STR DELTAT      (IPDLTT) =    0.10000
 IDPP interpolation NEB     SPFORC      (IPSPFC) =    0.01000
 IDPP interpolation NEB/STR OPTTOL      (IPOPTL) =    0.01000


--------------------------------- Checking the entered coordinates ---------------------------------
Coordinates of the reactant [angs]...
 CARBON       6.0      0.2145244008     -2.3787612401      0.0000000000
 CARBON       6.0      0.8817485992     -1.0878280606      0.0000000000
 CARBON       6.0      0.1806931208      0.0595513217      0.0000000000
 OXYGEN       8.0     -0.9856040046     -2.5181999997      0.0000000000
 OXYGEN       8.0     -1.1264369495      0.1676023893      0.0000000000
 HYDROGEN     1.0      0.8571134079     -3.2607818521      0.0000000000
 HYDROGEN     1.0      0.6734625083      1.0152979535      0.0000000000
 HYDROGEN     1.0     -1.5274454547     -0.7003267569      0.0000000000
 HYDROGEN     1.0      1.9540041599     -1.0479933113      0.0000000000
Coordinates of the product [angs]...
 CARBON       6.0      0.0012210000     -1.2560120000      0.0000000000
 CARBON       6.0      0.6684110000      0.0349730000      0.0000000000
 CARBON       6.0     -0.0327300000      1.1822810000      0.0000000000
 OXYGEN       8.0      0.5816800000     -2.3156130000      0.0000000000
 OXYGEN       8.0     -1.3398440000      1.2902220000      0.0000000000
 HYDROGEN     1.0     -1.0899660000     -1.2420200000      0.0000000000
 HYDROGEN     1.0      0.4599760000      2.1380620000      0.0000000000
 HYDROGEN     1.0     -1.7407840000      0.4223180000      0.0000000000
 HYDROGEN     1.0      1.7406000000      0.0748600000      0.0000000000
Coordinates of the via-point structure [angs]...
 CARBON       6.0      0.0012510000     -1.2560270000      0.0000310000
 CARBON       6.0      0.6684570000      0.0349120000      0.0000000000
 CARBON       6.0     -0.0326080000      1.1822970000      0.0000000000
 OXYGEN       8.0     -0.3551790000     -1.8314510000      1.0007630000
 OXYGEN       8.0     -1.3396760000      1.2903290000      0.0000000000
 HYDROGEN     1.0     -0.1776730000     -1.7134550000     -0.9744570000
 HYDROGEN     1.0      0.4601440000      2.1380310000      0.0000000000
 HYDROGEN     1.0     -1.7407070000      0.4224090000      0.0000000000
 HYDROGEN     1.0      1.7407070000      0.0747530000      0.0000000000

* Examine atom order of the reactant and product...
The atom orders are fine...

* Examine atom order of the reactant and via-point...
The atom orders are fine...

*** Restart option is enabled. Will read the data from $IMAGESX group ... ***
#image =    1, Energy=     -265.6529752664, Grad RMS=      0.000001691054       
#image =    2, Energy=     -265.6508317099, Grad RMS=      0.001934248586       
#image =    3, Energy=     -265.6457708313, Grad RMS=      0.002731775193       
#image =    4, Energy=     -265.6396208200, Grad RMS=      0.002853938357       
#image =    5, Energy=     -265.6336078547, Grad RMS=      0.002804065045       
#image =    6, Energy=     -265.6288524683, Grad RMS=      0.002626776891       
#image =    7, Energy=     -265.6264268517, Grad RMS=      0.002108406175       
#image =    8, Energy=     -265.6258976362, Grad RMS=      0.002610218373       
#image =    9, Energy=     -265.6275679256, Grad RMS=      0.002612672834       
#image =   10, Energy=     -265.6301666889, Grad RMS=      0.002768026204       
#image =   11, Energy=     -265.6328647299, Grad RMS=      0.002853142196       
#image =   12, Energy=     -265.6352003189, Grad RMS=      0.002745273691       
#image =   13, Energy=     -265.6369158070, Grad RMS=      0.002385073135       
#image =   14, Energy=     -265.6378025920, Grad RMS=      0.001839939273       
#image =   15, Energy=     -265.6361229759, Grad RMS=      0.011908565520       
*** Read the current coordinates, energy, and velocity at each image ***


---------------- [BEGIN] ENERGY and GRADIENT calculation (initial run) #IMAGE=    1 ----------------

*** Coordinate [angs] of #IMAGE=    1
 CARBON       6.0      0.4434275660     -1.2331652197      0.0000000000
 CARBON       6.0      1.1106517644      0.0577679598      0.0000000000
 CARBON       6.0      0.4095962860      1.2051473421      0.0000000000
 OXYGEN       8.0     -0.7567008394     -1.3726039793      0.0000000000
 OXYGEN       8.0     -0.8975337843      1.3131984097      0.0000000000
 HYDROGEN     1.0      1.0860165731     -2.1151858317      0.0000000000
 HYDROGEN     1.0      0.9023656735      2.1608939739      0.0000000000
 HYDROGEN     1.0     -1.2985422895      0.4452692635      0.0000000000
 HYDROGEN     1.0      2.1829073251      0.0976027091      0.0000000000

*** START A SINGLE POINT CALCULATION ***

 * GENERATE INITIAL GUESS ORBITALS *

 ...... END OF ONE-ELECTRON INTEGRALS ......
 CPU     0: STEP CPU TIME=     0.02 TOTAL CPU TIME=          0.1 (      0.0 MIN)
 TOTAL WALL CLOCK TIME=          0.2 SECONDS, CPU UTILIZATION IS    50.00%

          -------------
          GUESS OPTIONS
          -------------
          GUESS =MOREAD            NORB  =     119          NORDER=       0
          MIX   =       F          PRTMO =       F          PUNMO =       F
          TOLZ  = 1.0E-08          TOLE  = 1.0E-05
          SYMDEN=       F          PURIFY=       F

 INITIAL GUESS ORBITALS GENERATED BY MOREAD   ROUTINE.

 SYMMETRIES FOR INITIAL GUESS ORBITALS FOLLOW.   BOTH SET(S).
    19 ORBITALS ARE OCCUPIED (    5 CORE ORBITALS).
     1=A        2=A        3=A        4=A        5=A        6=A        7=A   
     8=A        9=A       10=A       11=A       12=A       13=A       14=A   
    15=A       16=A       17=A       18=A       19=A       20=A       21=A   
    22=A       23=A       24=A       25=A       26=A       27=A       28=A   
    29=A       30=A       31=A       32=A       33=A       34=A       35=A   
    36=A       37=A       38=A       39=A       40=A       41=A       42=A   
    43=A       44=A       45=A       46=A       47=A       48=A       49=A   
    50=A       51=A       52=A       53=A       54=A       55=A       56=A   
    57=A       58=A       59=A       60=A       61=A       62=A       63=A   
    64=A       65=A       66=A       67=A       68=A       69=A       70=A   
    71=A       72=A       73=A       74=A       75=A       76=A       77=A   
    78=A       79=A       80=A       81=A       82=A       83=A       84=A   
    85=A       86=A       87=A       88=A       89=A       90=A       91=A   
    92=A       93=A       94=A       95=A       96=A       97=A       98=A   
    99=A      100=A      101=A      102=A      103=A      104=A      105=A   
   106=A      107=A      108=A      109=A      110=A      111=A      112=A   
   113=A      114=A      115=A      116=A      117=A      118=A      119=A   
 ...... END OF INITIAL ORBITAL SELECTION ......
 CPU     0: STEP CPU TIME=     0.04 TOTAL CPU TIME=          0.1 (      0.0 MIN)
 TOTAL WALL CLOCK TIME=          0.3 SECONDS, CPU UTILIZATION IS    48.15%

                    ----------------------
                    AO INTEGRAL TECHNOLOGY
                    ----------------------
     S,P,L SHELL ROTATED AXIS INTEGRALS, REPROGRAMMED BY
        KAZUYA ISHIMURA (IMS) AND JOSE SIERRA (SYNSTAR).
     S,P,D,L SHELL ROTATED AXIS INTEGRALS PROGRAMMED BY
        KAZUYA ISHIMURA (INSTITUTE FOR MOLECULAR SCIENCE).
     S,P,D,F,G SHELL TO TOTAL QUARTET ANGULAR MOMENTUM SUM 5,
        ERIC PROGRAM BY GRAHAM FLETCHER (ELORET AND NASA ADVANCED
        SUPERCOMPUTING DIVISION, AMES RESEARCH CENTER).
     S,P,D,F,G,L SHELL GENERAL RYS QUADRATURE PROGRAMMED BY
        MICHEL DUPUIS (PACIFIC NORTHWEST NATIONAL LABORATORY).
  ...... END OF TWO-ELECTRON INTEGRALS .....
 CPU     0: STEP CPU TIME=     0.01 TOTAL CPU TIME=          0.1 (      0.0 MIN)
 TOTAL WALL CLOCK TIME=          0.3 SECONDS, CPU UTILIZATION IS    50.00%

          --------------------------
                 RHF SCF CALCULATION
          --------------------------
     DENSITY MATRIX CONV=  2.00E-05

 DIRECT SCF CALCULATION, SCHWRZ=T   FDIFF=T,  DIRTHR=  0.00E+00 NITDIR=10

                                                                                   NONZERO     BLOCKS
 ITER EX DEM     TOTAL ENERGY        E CHANGE  DENSITY CHANGE     ORB. GRAD      INTEGRALS    SKIPPED
   1  0  0     -265.6529752664  -265.6529752664   0.000001191   0.000000000       13583125       6592
          ---------------START SECOND ORDER SCF---------------
   2  1  0     -265.6529752664    -0.0000000000   0.000000833   0.000000250       13490481      13708

          -----------------
          DENSITY CONVERGED
          -----------------
     TIME TO FORM FOCK OPERATORS=       0.1 SECONDS (       0.0 SEC/ITER)
     FOCK TIME ON FIRST ITERATION=       0.0, LAST ITERATION=       0.0
     TIME TO SOLVE SCF EQUATIONS=       0.0 SECONDS (       0.0 SEC/ITER)

 FINAL RHF ENERGY IS     -265.6529752664 AFTER   2 ITERATIONS
 ...... END OF RHF CALCULATION ......
 CPU     0: STEP CPU TIME=     0.10 TOTAL CPU TIME=          0.2 (      0.0 MIN)
 TOTAL WALL CLOCK TIME=          0.4 SECONDS, CPU UTILIZATION IS    55.81%

*** START A GRADIENT CALCULATION ***

 ..... END OF 1-ELECTRON GRADIENT ......
 CPU     0: STEP CPU TIME=     0.02 TOTAL CPU TIME=          0.3 (      0.0 MIN)
 TOTAL WALL CLOCK TIME=          0.5 SECONDS, CPU UTILIZATION IS    50.98%
 ...... END OF 2-ELECTRON GRADIENT ......
 CPU     0: STEP CPU TIME=     0.09 TOTAL CPU TIME=          0.4 (      0.0 MIN)
 TOTAL WALL CLOCK TIME=          0.6 SECONDS, CPU UTILIZATION IS    57.38%

*** Store the coordinates, gradients, and vectors into the dictionary file.  iREC=  611    1   10

*** Energy [hartree] of #IMAGE=    1
Energy =     -265.6529752664

*** Gradient [hartree/bohr] of #IMAGE=    1
     1  CARBON       6.0     -0.0000037148      0.0000004871      0.0000000000
     2  CARBON       6.0     -0.0000015344     -0.0000011927      0.0000000000
     3  CARBON       6.0      0.0000013209     -0.0000010679      0.0000000000
     4  OXYGEN       8.0      0.0000059161     -0.0000005027      0.0000000000
     5  OXYGEN       8.0     -0.0000027320     -0.0000014910      0.0000000000
     6  HYDROGEN     1.0     -0.0000018532      0.0000006032      0.0000000000
     7  HYDROGEN     1.0      0.0000003476      0.0000012311      0.0000000000
     8  HYDROGEN     1.0      0.0000009391      0.0000018798      0.0000000000
     9  HYDROGEN     1.0      0.0000013107      0.0000000531      0.0000000000
 RMS Gradient =        0.0000016911


----------------- [END] ENERGY and GRADIENT calculation (initial run) #IMAGE=    1 -----------------


---------------- [BEGIN] ENERGY and GRADIENT calculation (initial run) #IMAGE=    2 ----------------

*** Coordinate [angs] of #IMAGE=    2
 CARBON       6.0      0.4324507400     -1.2320701306     -0.0800844929
 CARBON       6.0      1.0994682753      0.0626215395      0.0265518423
 CARBON       6.0      0.4142914463      1.2157496440      0.0379910946
 OXYGEN       8.0     -0.7490600733     -1.4176700702      0.0748829947
 OXYGEN       8.0     -0.8907783484      1.3410605409     -0.0480235272
 HYDROGEN     1.0      1.0668420240     -2.0798658960     -0.3284832402
 HYDROGEN     1.0      0.9135086771      2.1647482272      0.1117472099
 HYDROGEN     1.0     -1.2991018306      0.4825363864     -0.1180577328
 HYDROGEN     1.0      2.1709749086      0.0971310728      0.0935652832

*** START A SINGLE POINT CALCULATION ***

 * GENERATE INITIAL GUESS ORBITALS *

 ...... END OF ONE-ELECTRON INTEGRALS ......
 CPU     0: STEP CPU TIME=     0.00 TOTAL CPU TIME=          0.4 (      0.0 MIN)
 TOTAL WALL CLOCK TIME=          0.6 SECONDS, CPU UTILIZATION IS    54.69%

          -------------
          GUESS OPTIONS
          -------------
          GUESS =MOREAD            NORB  =     119          NORDER=       0
          MIX   =       F          PRTMO =       F          PUNMO =       F
          TOLZ  = 1.0E-08          TOLE  = 1.0E-05
          SYMDEN=       F          PURIFY=       F

 INITIAL GUESS ORBITALS GENERATED BY MOREAD   ROUTINE.

 SYMMETRIES FOR INITIAL GUESS ORBITALS FOLLOW.   BOTH SET(S).
    19 ORBITALS ARE OCCUPIED (    5 CORE ORBITALS).
     1=A        2=A        3=A        4=A        5=A        6=A        7=A   
     8=A        9=A       10=A       11=A       12=A       13=A       14=A   
    15=A       16=A       17=A       18=A       19=A       20=A       21=A   
    22=A       23=A       24=A       25=A       26=A       27=A       28=A   
    29=A       30=A       31=A       32=A       33=A       34=A       35=A   
    36=A       37=A       38=A       39=A       40=A       41=A       42=A   
    43=A       44=A       45=A       46=A       47=A       48=A       49=A   
    50=A       51=A       52=A       53=A       54=A       55=A       56=A   
    57=A       58=A       59=A       60=A       61=A       62=A       63=A   
    64=A       65=A       66=A       67=A       68=A       69=A       70=A   
    71=A       72=A       73=A       74=A       75=A       76=A       77=A   
    78=A       79=A       80=A       81=A       82=A       83=A       84=A   
    85=A       86=A       87=A       88=A       89=A       90=A       91=A   
    92=A       93=A       94=A       95=A       96=A       97=A       98=A   
    99=A      100=A      101=A      102=A      103=A      104=A      105=A   
   106=A      107=A      108=A      109=A      110=A      111=A      112=A   
   113=A      114=A      115=A      116=A      117=A      118=A      119=A   
 ...... END OF INITIAL ORBITAL SELECTION ......
 CPU     0: STEP CPU TIME=     0.03 TOTAL CPU TIME=          0.4 (      0.0 MIN)
 TOTAL WALL CLOCK TIME=          0.7 SECONDS, CPU UTILIZATION IS    53.52%
  ...... END OF TWO-ELECTRON INTEGRALS .....
 CPU     0: STEP CPU TIME=     0.00 TOTAL CPU TIME=          0.4 (      0.0 MIN)
 TOTAL WALL CLOCK TIME=          0.7 SECONDS, CPU UTILIZATION IS    53.52%

          --------------------------
                 RHF SCF CALCULATION
          --------------------------
     DENSITY MATRIX CONV=  2.00E-05

 DIRECT SCF CALCULATION, SCHWRZ=T   FDIFF=T,  DIRTHR=  0.00E+00 NITDIR=10

                                                                                   NONZERO     BLOCKS
 ITER EX DEM     TOTAL ENERGY        E CHANGE  DENSITY CHANGE     ORB. GRAD      INTEGRALS    SKIPPED
   1  0  0     -265.6226322361  -265.6226322361   0.168664444   0.000000000       25323538       6619
          ---------------START SECOND ORDER SCF---------------
   2  1  0     -265.6459989775    -0.0233667414   0.023397866   0.008432156       25320012       7025
   3  2  0     -265.6495607387    -0.0035617612   0.024052001   0.004721417       25316082       7261
   4  3  0     -265.6506715285    -0.0011107898   0.006460185   0.002088344       25315472       7288
   5  4  0     -265.6507776698    -0.0001061413   0.002352643   0.001000706       25310379       7505
   6  5  0     -265.6508218262    -0.0000441563   0.002751181   0.000467600       25305437       7718
   7  6  0     -265.6508309276    -0.0000091014   0.000434188   0.000128854       25302722       7896
   8  7  0     -265.6508315137    -0.0000005861   0.000271375   0.000077210       25285338       8679
   9  8  0     -265.6508316984    -0.0000001848   0.000108737   0.000014063       25278591       8998
  10  9  0     -265.6508317083    -0.0000000098   0.000060868   0.000004634       25256444      10071
  11 10  0     -265.6508317098    -0.0000000015   0.000005646   0.000001706       25240480      10740
  12 11  0     -265.6508317100    -0.0000000002   0.000012040   0.000000603       25211921      11865

          -----------------
          DENSITY CONVERGED
          -----------------
     TIME TO FORM FOCK OPERATORS=       0.4 SECONDS (       0.0 SEC/ITER)
     FOCK TIME ON FIRST ITERATION=       0.0, LAST ITERATION=       0.0
     TIME TO SOLVE SCF EQUATIONS=       0.1 SECONDS (       0.0 SEC/ITER)

 FINAL RHF ENERGY IS     -265.6508317100 AFTER  12 ITERATIONS
 ...... END OF RHF CALCULATION ......
 CPU     0: STEP CPU TIME=     0.49 TOTAL CPU TIME=          0.9 (      0.0 MIN)
 TOTAL WALL CLOCK TIME=          1.4 SECONDS, CPU UTILIZATION IS    62.59%

*** START A GRADIENT CALCULATION ***

 ..... END OF 1-ELECTRON GRADIENT ......
 CPU     0: STEP CPU TIME=     0.02 TOTAL CPU TIME=          0.9 (      0.0 MIN)
 TOTAL WALL CLOCK TIME=          1.5 SECONDS, CPU UTILIZATION IS    60.14%
 ...... END OF 2-ELECTRON GRADIENT ......
 CPU     0: STEP CPU TIME=     0.08 TOTAL CPU TIME=          1.0 (      0.0 MIN)
 TOTAL WALL CLOCK TIME=          1.6 SECONDS, CPU UTILIZATION IS    61.39%

*** Store the coordinates, gradients, and vectors into the dictionary file.  iREC=  612    2   10

*** Energy [hartree] of #IMAGE=    2
Energy =     -265.6508317100

*** Gradient [hartree/bohr] of #IMAGE=    2
     1  CARBON       6.0     -0.0011533631      0.0008146369     -0.0012850844
     2  CARBON       6.0      0.0003980565      0.0007565674     -0.0007886214
     3  CARBON       6.0      0.0006971469      0.0007157147     -0.0015009020
     4  OXYGEN       8.0      0.0007069593     -0.0055957846      0.0044486707
     5  OXYGEN       8.0      0.0007416761      0.0000470403      0.0014939595
     6  HYDROGEN     1.0     -0.0032680907      0.0020309200     -0.0017967198
     7  HYDROGEN     1.0     -0.0002401466     -0.0000502658      0.0005516380
     8  HYDROGEN     1.0      0.0015983721      0.0003307092     -0.0033461874
     9  HYDROGEN     1.0      0.0005193895      0.0009504619      0.0022232468
 RMS Gradient =        0.0019342085


----------------- [END] ENERGY and GRADIENT calculation (initial run) #IMAGE=    2 -----------------


---------------- [BEGIN] ENERGY and GRADIENT calculation (initial run) #IMAGE=    3 ----------------

*** Coordinate [angs] of #IMAGE=    3
 CARBON       6.0      0.4101991771     -1.2218136531     -0.1538506278
 CARBON       6.0      1.0856436289      0.0640509631      0.0543837119
 CARBON       6.0      0.4181866278      1.2221345083      0.0717139437
 OXYGEN       8.0     -0.7292108015     -1.4649699728      0.1448255880
 OXYGEN       8.0     -0.8818700364      1.3683173769     -0.0935299267
 HYDROGEN     1.0      0.9977338482     -1.9927760985     -0.6449359968
 HYDROGEN     1.0      0.9203437728      2.1607652443      0.2138557364
 HYDROGEN     1.0     -1.2913959988      0.5218303608     -0.2329761779
 HYDROGEN     1.0      2.1523125482      0.0776626990      0.1804071730

*** START A SINGLE POINT CALCULATION ***

 * GENERATE INITIAL GUESS ORBITALS *

 ...... END OF ONE-ELECTRON INTEGRALS ......
 CPU     0: STEP CPU TIME=     0.00 TOTAL CPU TIME=          1.0 (      0.0 MIN)
 TOTAL WALL CLOCK TIME=          1.6 SECONDS, CPU UTILIZATION IS    60.63%

          -------------
          GUESS OPTIONS
          -------------
          GUESS =MOREAD            NORB  =     119          NORDER=       0
          MIX   =       F          PRTMO =       F          PUNMO =       F
          TOLZ  = 1.0E-08          TOLE  = 1.0E-05
          SYMDEN=       F          PURIFY=       F

 INITIAL GUESS ORBITALS GENERATED BY MOREAD   ROUTINE.

 SYMMETRIES FOR INITIAL GUESS ORBITALS FOLLOW.   BOTH SET(S).
    19 ORBITALS ARE OCCUPIED (    5 CORE ORBITALS).
     1=A        2=A        3=A        4=A        5=A        6=A        7=A   
     8=A        9=A       10=A       11=A       12=A       13=A       14=A   
    15=A       16=A       17=A       18=A       19=A       20=A       21=A   
    22=A       23=A       24=A       25=A       26=A       27=A       28=A   
    29=A       30=A       31=A       32=A       33=A       34=A       35=A   
    36=A       37=A       38=A       39=A       40=A       41=A       42=A   
    43=A       44=A       45=A       46=A       47=A       48=A       49=A   
    50=A       51=A       52=A       53=A       54=A       55=A       56=A   
    57=A       58=A       59=A       60=A       61=A       62=A       63=A   
    64=A       65=A       66=A       67=A       68=A       69=A       70=A   
    71=A       72=A       73=A       74=A       75=A       76=A       77=A   
    78=A       79=A       80=A       81=A       82=A       83=A       84=A   
    85=A       86=A       87=A       88=A       89=A       90=A       91=A   
    92=A       93=A       94=A       95=A       96=A       97=A       98=A   
    99=A      100=A      101=A      102=A      103=A      104=A      105=A   
   106=A      107=A      108=A      109=A      110=A      111=A      112=A   
   113=A      114=A      115=A      116=A      117=A      118=A      119=A   
 ...... END OF INITIAL ORBITAL SELECTION ......
 CPU     0: STEP CPU TIME=     0.04 TOTAL CPU TIME=          1.0 (      0.0 MIN)
 TOTAL WALL CLOCK TIME=          1.7 SECONDS, CPU UTILIZATION IS    60.12%
  ...... END OF TWO-ELECTRON INTEGRALS .....
 CPU     0: STEP CPU TIME=     0.00 TOTAL CPU TIME=          1.0 (      0.0 MIN)
 TOTAL WALL CLOCK TIME=          1.7 SECONDS, CPU UTILIZATION IS    59.76%

          --------------------------
                 RHF SCF CALCULATION
          --------------------------
     DENSITY MATRIX CONV=  2.00E-05

 DIRECT SCF CALCULATION, SCHWRZ=T   FDIFF=T,  DIRTHR=  0.00E+00 NITDIR=10

                                                                                   NONZERO     BLOCKS
 ITER EX DEM     TOTAL ENERGY        E CHANGE  DENSITY CHANGE     ORB. GRAD      INTEGRALS    SKIPPED
   1  0  0     -265.5321573923  -265.5321573923   0.316523809   0.000000000       25325909       6604
          ---------------START SECOND ORDER SCF---------------
   2  1  0     -265.6256871412    -0.0935297489   0.065120342   0.015106654       25323256       6918
   3  2  0     -265.6404107130    -0.0147235718   0.118808648   0.008519926       25319814       7121
   4  3  0     -265.6448365806    -0.0044258676   0.029934102   0.004981978       25319400       7128
   5  4  0     -265.6455483153    -0.0007117347   0.007209980   0.001767322       25315600       7308
   6  5  0     -265.6457220337    -0.0001737184   0.007764786   0.000949124       25311062       7490
   7  6  0     -265.6457672418    -0.0000452081   0.001185840   0.000248473       25308822       7590
   8  7  0     -265.6457699473    -0.0000027056   0.000556707   0.000158456       25296989       8126
   9  8  0     -265.6457707586    -0.0000008113   0.000198010   0.000035229       25289913       8468
  10  9  0     -265.6457708229    -0.0000000643   0.000113346   0.000008530       25274623       9183
  11 10  0     -265.6457708300    -0.0000000071   0.000022343   0.000006219       25256722       9941
  12 11  0     -265.6457708313    -0.0000000013   0.000034670   0.000001333       25239370      10795

          ----------------
          ENERGY CONVERGED
          ----------------
     TIME TO FORM FOCK OPERATORS=       0.4 SECONDS (       0.0 SEC/ITER)
     FOCK TIME ON FIRST ITERATION=       0.0, LAST ITERATION=       0.0
     TIME TO SOLVE SCF EQUATIONS=       0.1 SECONDS (       0.0 SEC/ITER)

 FINAL RHF ENERGY IS     -265.6457708313 AFTER  12 ITERATIONS
 ...... END OF RHF CALCULATION ......
 CPU     0: STEP CPU TIME=     0.49 TOTAL CPU TIME=          1.5 (      0.0 MIN)
 TOTAL WALL CLOCK TIME=          2.3 SECONDS, CPU UTILIZATION IS    64.10%

*** START A GRADIENT CALCULATION ***

 ..... END OF 1-ELECTRON GRADIENT ......
 CPU     0: STEP CPU TIME=     0.01 TOTAL CPU TIME=          1.5 (      0.0 MIN)
 TOTAL WALL CLOCK TIME=          2.4 SECONDS, CPU UTILIZATION IS    62.40%
 ...... END OF 2-ELECTRON GRADIENT ......
 CPU     0: STEP CPU TIME=     0.08 TOTAL CPU TIME=          1.6 (      0.0 MIN)
 TOTAL WALL CLOCK TIME=          2.5 SECONDS, CPU UTILIZATION IS    63.10%

*** Store the coordinates, gradients, and vectors into the dictionary file.  iREC=  613    3   10

*** Energy [hartree] of #IMAGE=    3
Energy =     -265.6457708313

*** Gradient [hartree/bohr] of #IMAGE=    3
     1  CARBON       6.0     -0.0016831691      0.0014991695     -0.0005125050
     2  CARBON       6.0      0.0007838048      0.0005660963     -0.0016535055
     3  CARBON       6.0      0.0008445198      0.0014821545     -0.0031510247
     4  OXYGEN       8.0      0.0012414343     -0.0067871845      0.0054904533
     5  OXYGEN       8.0      0.0009340675     -0.0005103335      0.0025798565
     6  HYDROGEN     1.0     -0.0049208716      0.0039553385     -0.0023427327
     7  HYDROGEN     1.0     -0.0003972992     -0.0004082895      0.0009498294
     8  HYDROGEN     1.0      0.0032501020     -0.0005753369     -0.0048694626
     9  HYDROGEN     1.0     -0.0000525886      0.0007783856      0.0035090913
 RMS Gradient =        0.0027318070


----------------- [END] ENERGY and GRADIENT calculation (initial run) #IMAGE=    3 -----------------


---------------- [BEGIN] ENERGY and GRADIENT calculation (initial run) #IMAGE=    4 ----------------

*** Coordinate [angs] of #IMAGE=    4
 CARBON       6.0      0.3778497318     -1.2042101105     -0.2183929211
 CARBON       6.0      1.0686874168      0.0620721228      0.0828756120
 CARBON       6.0      0.4214836299      1.2261663779      0.1001626365
 OXYGEN       8.0     -0.6979775180     -1.5183511849      0.2073701690
 OXYGEN       8.0     -0.8704947729      1.3983162135     -0.1367893214
 HYDROGEN     1.0      0.8786383141     -1.8572765597     -0.9298155087
 HYDROGEN     1.0      0.9252489453      2.1512769521      0.3039838533
 HYDROGEN     1.0     -1.2803218967      0.5654918892     -0.3335770139
 HYDROGEN     1.0      2.1270176135      0.0450376538      0.2602017304

*** START A SINGLE POINT CALCULATION ***

 * GENERATE INITIAL GUESS ORBITALS *

 ...... END OF ONE-ELECTRON INTEGRALS ......
 CPU     0: STEP CPU TIME=     0.01 TOTAL CPU TIME=          1.6 (      0.0 MIN)
 TOTAL WALL CLOCK TIME=          2.5 SECONDS, CPU UTILIZATION IS    62.99%

          -------------
          GUESS OPTIONS
          -------------
          GUESS =MOREAD            NORB  =     119          NORDER=       0
          MIX   =       F          PRTMO =       F          PUNMO =       F
          TOLZ  = 1.0E-08          TOLE  = 1.0E-05
          SYMDEN=       F          PURIFY=       F

 INITIAL GUESS ORBITALS GENERATED BY MOREAD   ROUTINE.

 SYMMETRIES FOR INITIAL GUESS ORBITALS FOLLOW.   BOTH SET(S).
    19 ORBITALS ARE OCCUPIED (    5 CORE ORBITALS).
     1=A        2=A        3=A        4=A        5=A        6=A        7=A   
     8=A        9=A       10=A       11=A       12=A       13=A       14=A   
    15=A       16=A       17=A       18=A       19=A       20=A       21=A   
    22=A       23=A       24=A       25=A       26=A       27=A       28=A   
    29=A       30=A       31=A       32=A       33=A       34=A       35=A   
    36=A       37=A       38=A       39=A       40=A       41=A       42=A   
    43=A       44=A       45=A       46=A       47=A       48=A       49=A   
    50=A       51=A       52=A       53=A       54=A       55=A       56=A   
    57=A       58=A       59=A       60=A       61=A       62=A       63=A   
    64=A       65=A       66=A       67=A       68=A       69=A       70=A   
    71=A       72=A       73=A       74=A       75=A       76=A       77=A   
    78=A       79=A       80=A       81=A       82=A       83=A       84=A   
    85=A       86=A       87=A       88=A       89=A       90=A       91=A   
    92=A       93=A       94=A       95=A       96=A       97=A       98=A   
    99=A      100=A      101=A      102=A      103=A      104=A      105=A   
   106=A      107=A      108=A      109=A      110=A      111=A      112=A   
   113=A      114=A      115=A      116=A      117=A      118=A      119=A   
 ...... END OF INITIAL ORBITAL SELECTION ......
 CPU     0: STEP CPU TIME=     0.02 TOTAL CPU TIME=          1.6 (      0.0 MIN)
 TOTAL WALL CLOCK TIME=          2.6 SECONDS, CPU UTILIZATION IS    61.83%
  ...... END OF TWO-ELECTRON INTEGRALS .....
 CPU     0: STEP CPU TIME=     0.00 TOTAL CPU TIME=          1.6 (      0.0 MIN)
 TOTAL WALL CLOCK TIME=          2.6 SECONDS, CPU UTILIZATION IS    61.83%

          --------------------------
                 RHF SCF CALCULATION
          --------------------------
     DENSITY MATRIX CONV=  2.00E-05

 DIRECT SCF CALCULATION, SCHWRZ=T   FDIFF=T,  DIRTHR=  0.00E+00 NITDIR=10

                                                                                   NONZERO     BLOCKS
 ITER EX DEM     TOTAL ENERGY        E CHANGE  DENSITY CHANGE     ORB. GRAD      INTEGRALS    SKIPPED
   1  0  0     -265.3825317358  -265.3825317358   0.488278260   0.000000000       25328495       6577
          ---------------START SECOND ORDER SCF---------------
   2  1  0     -265.5929367258    -0.2104049900   0.089820713   0.018307651       25326710       6837
   3  2  0     -265.6273049479    -0.0343682220   0.226888745   0.011560454       25323852       7001
   4  3  0     -265.6368853258    -0.0095803779   0.063072788   0.008401119       25323571       7017
   5  4  0     -265.6391610621    -0.0022757364   0.019809606   0.002459650       25319990       7180
   6  5  0     -265.6395136492    -0.0003525871   0.011553473   0.001399028       25317090       7302
   7  6  0     -265.6396127699    -0.0000991207   0.001495237   0.000394716       25314794       7400
   8  7  0     -265.6396189453    -0.0000061754   0.000852064   0.000221874       25304135       7868
   9  8  0     -265.6396206208    -0.0000016755   0.000509693   0.000050953       25298089       8165
  10  9  0     -265.6396208016    -0.0000001808   0.000125197   0.000020403       25287702       8664
  11 10  0     -265.6396208166    -0.0000000150   0.000046927   0.000011791       25270172       9445
  12 11  0     -265.6396208197    -0.0000000031   0.000045692   0.000002026       25252218      10217
  13 12  0     -265.6396208200    -0.0000000003   0.000006440   0.000000646       25233465      11058
  14 13  0     -265.6396208200    -0.0000000000   0.000002990   0.000000174       25203362      12120

          -----------------
          DENSITY CONVERGED
          -----------------
     TIME TO FORM FOCK OPERATORS=       0.5 SECONDS (       0.0 SEC/ITER)
     FOCK TIME ON FIRST ITERATION=       0.0, LAST ITERATION=       0.0
     TIME TO SOLVE SCF EQUATIONS=       0.1 SECONDS (       0.0 SEC/ITER)

 FINAL RHF ENERGY IS     -265.6396208200 AFTER  14 ITERATIONS
 ...... END OF RHF CALCULATION ......
 CPU     0: STEP CPU TIME=     0.57 TOTAL CPU TIME=          2.2 (      0.0 MIN)
 TOTAL WALL CLOCK TIME=          3.4 SECONDS, CPU UTILIZATION IS    64.79%

*** START A GRADIENT CALCULATION ***

 ..... END OF 1-ELECTRON GRADIENT ......
 CPU     0: STEP CPU TIME=     0.00 TOTAL CPU TIME=          2.2 (      0.0 MIN)
 TOTAL WALL CLOCK TIME=          3.5 SECONDS, CPU UTILIZATION IS    63.29%
 ...... END OF 2-ELECTRON GRADIENT ......
 CPU     0: STEP CPU TIME=     0.09 TOTAL CPU TIME=          2.3 (      0.0 MIN)
 TOTAL WALL CLOCK TIME=          3.6 SECONDS, CPU UTILIZATION IS    64.04%

*** Store the coordinates, gradients, and vectors into the dictionary file.  iREC=  614    4   10

*** Energy [hartree] of #IMAGE=    4
Energy =     -265.6396208200

*** Gradient [hartree/bohr] of #IMAGE=    4
     1  CARBON       6.0     -0.0009752578      0.0010136683      0.0018817209
     2  CARBON       6.0      0.0011332953     -0.0005286166     -0.0020873302
     3  CARBON       6.0      0.0002091492      0.0021861854     -0.0044656782
     4  OXYGEN       8.0      0.0014315084     -0.0050055499      0.0044017122
     5  OXYGEN       8.0      0.0009078420     -0.0005981392      0.0029700405
     6  HYDROGEN     1.0     -0.0051980981      0.0056745442     -0.0024733785
     7  HYDROGEN     1.0     -0.0005325653     -0.0009298793      0.0011544322
     8  HYDROGEN     1.0      0.0043254830     -0.0018983648     -0.0048404939
     9  HYDROGEN     1.0     -0.0013013566      0.0000861518      0.0034589749
 RMS Gradient =        0.0028539597


----------------- [END] ENERGY and GRADIENT calculation (initial run) #IMAGE=    4 -----------------


---------------- [BEGIN] ENERGY and GRADIENT calculation (initial run) #IMAGE=    5 ----------------

*** Coordinate [angs] of #IMAGE=    5
 CARBON       6.0      0.3354041593     -1.1807636660     -0.2732567291
 CARBON       6.0      1.0475630316      0.0575414213      0.1094070299
 CARBON       6.0      0.4241484082      1.2296665721      0.1251544863
 OXYGEN       8.0     -0.6554649985     -1.5802389298      0.2619710960
 OXYGEN       8.0     -0.8556590230      1.4331525948     -0.1794593468
 HYDROGEN     1.0      0.7142006322     -1.6877663752     -1.1610625842
 HYDROGEN     1.0      0.9292926989      2.1385561568      0.3847624240
 HYDROGEN     1.0     -1.2705808398      0.6136426165     -0.4122439753
 HYDROGEN     1.0      2.0926996285      0.0025194675      0.3397604196

*** START A SINGLE POINT CALCULATION ***

 * GENERATE INITIAL GUESS ORBITALS *

 ...... END OF ONE-ELECTRON INTEGRALS ......
 CPU     0: STEP CPU TIME=     0.00 TOTAL CPU TIME=          2.3 (      0.0 MIN)
 TOTAL WALL CLOCK TIME=          3.6 SECONDS, CPU UTILIZATION IS    63.69%

          -------------
          GUESS OPTIONS
          -------------
          GUESS =MOREAD            NORB  =     119          NORDER=       0
          MIX   =       F          PRTMO =       F          PUNMO =       F
          TOLZ  = 1.0E-08          TOLE  = 1.0E-05
          SYMDEN=       F          PURIFY=       F

 INITIAL GUESS ORBITALS GENERATED BY MOREAD   ROUTINE.

 SYMMETRIES FOR INITIAL GUESS ORBITALS FOLLOW.   BOTH SET(S).
    19 ORBITALS ARE OCCUPIED (    5 CORE ORBITALS).
     1=A        2=A        3=A        4=A        5=A        6=A        7=A   
     8=A        9=A       10=A       11=A       12=A       13=A       14=A   
    15=A       16=A       17=A       18=A       19=A       20=A       21=A   
    22=A       23=A       24=A       25=A       26=A       27=A       28=A   
    29=A       30=A       31=A       32=A       33=A       34=A       35=A   
    36=A       37=A       38=A       39=A       40=A       41=A       42=A   
    43=A       44=A       45=A       46=A       47=A       48=A       49=A   
    50=A       51=A       52=A       53=A       54=A       55=A       56=A   
    57=A       58=A       59=A       60=A       61=A       62=A       63=A   
    64=A       65=A       66=A       67=A       68=A       69=A       70=A   
    71=A       72=A       73=A       74=A       75=A       76=A       77=A   
    78=A       79=A       80=A       81=A       82=A       83=A       84=A   
    85=A       86=A       87=A       88=A       89=A       90=A       91=A   
    92=A       93=A       94=A       95=A       96=A       97=A       98=A   
    99=A      100=A      101=A      102=A      103=A      104=A      105=A   
   106=A      107=A      108=A      109=A      110=A      111=A      112=A   
   113=A      114=A      115=A      116=A      117=A      118=A      119=A   
 ...... END OF INITIAL ORBITAL SELECTION ......
 CPU     0: STEP CPU TIME=     0.03 TOTAL CPU TIME=          2.3 (      0.0 MIN)
 TOTAL WALL CLOCK TIME=          3.7 SECONDS, CPU UTILIZATION IS    63.11%
  ...... END OF TWO-ELECTRON INTEGRALS .....
 CPU     0: STEP CPU TIME=     0.00 TOTAL CPU TIME=          2.3 (      0.0 MIN)
 TOTAL WALL CLOCK TIME=          3.7 SECONDS, CPU UTILIZATION IS    62.94%

          --------------------------
                 RHF SCF CALCULATION
          --------------------------
     DENSITY MATRIX CONV=  2.00E-05

 DIRECT SCF CALCULATION, SCHWRZ=T   FDIFF=T,  DIRTHR=  0.00E+00 NITDIR=10

                                                                                   NONZERO     BLOCKS
 ITER EX DEM     TOTAL ENERGY        E CHANGE  DENSITY CHANGE     ORB. GRAD      INTEGRALS    SKIPPED
   1  0  0     -265.1720129025  -265.1720129025   0.499769450   0.000000000       25329709       6548
          ---------------START SECOND ORDER SCF---------------
   2  1  0     -265.5481754433    -0.3761625408   0.082573932   0.033342950       25328370       6758
   3  2  0     -265.6121263898    -0.0639509465   0.245723528   0.021719746       25326044       6904
   4  3  0     -265.6277939390    -0.0156675492   0.076802126   0.013016287       25325580       6935
   5  4  0     -265.6328734468    -0.0050795078   0.036695199   0.003507515       25322972       7065
   6  5  0     -265.6334374923    -0.0005640455   0.015755288   0.002135335       25319436       7211
   7  6  0     -265.6335947926    -0.0001573003   0.001893343   0.000505222       25317213       7316
   8  7  0     -265.6336051888    -0.0000103962   0.001111176   0.000255070       25308589       7724
   9  8  0     -265.6336075703    -0.0000023815   0.000574639   0.000055735       25302853       7999
  10  9  0     -265.6336078278    -0.0000002575   0.000242288   0.000028812       25293290       8501
  11 10  0     -265.6336078503    -0.0000000226   0.000061310   0.000014043       25279393       9118
  12 11  0     -265.6336078544    -0.0000000040   0.000014798   0.000001732       25261624       9867
  13 12  0     -265.6336078547    -0.0000000003   0.000006244   0.000000561       25238341      10845

          -----------------
          DENSITY CONVERGED
          -----------------
     TIME TO FORM FOCK OPERATORS=       0.5 SECONDS (       0.0 SEC/ITER)
     FOCK TIME ON FIRST ITERATION=       0.0, LAST ITERATION=       0.0
     TIME TO SOLVE SCF EQUATIONS=       0.0 SECONDS (       0.0 SEC/ITER)

 FINAL RHF ENERGY IS     -265.6336078547 AFTER  13 ITERATIONS
 ...... END OF RHF CALCULATION ......
 CPU     0: STEP CPU TIME=     0.53 TOTAL CPU TIME=          2.8 (      0.0 MIN)
 TOTAL WALL CLOCK TIME=          4.4 SECONDS, CPU UTILIZATION IS    65.14%

*** START A GRADIENT CALCULATION ***

 ..... END OF 1-ELECTRON GRADIENT ......
 CPU     0: STEP CPU TIME=     0.02 TOTAL CPU TIME=          2.9 (      0.0 MIN)
 TOTAL WALL CLOCK TIME=          4.5 SECONDS, CPU UTILIZATION IS    64.13%
 ...... END OF 2-ELECTRON GRADIENT ......
 CPU     0: STEP CPU TIME=     0.08 TOTAL CPU TIME=          2.9 (      0.0 MIN)
 TOTAL WALL CLOCK TIME=          4.5 SECONDS, CPU UTILIZATION IS    64.62%

*** Store the coordinates, gradients, and vectors into the dictionary file.  iREC=  615    5   10

*** Energy [hartree] of #IMAGE=    5
Energy =     -265.6336078547

*** Gradient [hartree/bohr] of #IMAGE=    5
     1  CARBON       6.0      0.0005463026     -0.0007815791      0.0038170549
     2  CARBON       6.0      0.0010810641     -0.0018875728     -0.0019563888
     3  CARBON       6.0     -0.0008781875      0.0023717946     -0.0043808381
     4  OXYGEN       8.0      0.0018644241     -0.0013853324      0.0029660331
     5  OXYGEN       8.0      0.0006773426     -0.0001261056      0.0025276741
     6  HYDROGEN     1.0     -0.0047135089      0.0069653648     -0.0022736330
     7  HYDROGEN     1.0     -0.0006547011     -0.0015313790      0.0009340594
     8  HYDROGEN     1.0      0.0048472164     -0.0030140343     -0.0039890355
     9  HYDROGEN     1.0     -0.0027699523     -0.0006111563      0.0023550739
 RMS Gradient =        0.0028042099


----------------- [END] ENERGY and GRADIENT calculation (initial run) #IMAGE=    5 -----------------


---------------- [BEGIN] ENERGY and GRADIENT calculation (initial run) #IMAGE=    6 ----------------

*** Coordinate [angs] of #IMAGE=    6
 CARBON       6.0      0.2787750674     -1.1551326271     -0.3166514685
 CARBON       6.0      1.0146402120      0.0532250367      0.1304321607
 CARBON       6.0      0.4265054037      1.2385929999      0.1478793399
 OXYGEN       8.0     -0.5973111601     -1.6644221575      0.3088553708
 OXYGEN       8.0     -0.8340573364      1.4840334063     -0.2227463582
 HYDROGEN     1.0      0.5226991596     -1.5175528865     -1.3184197122
 HYDROGEN     1.0      0.9394667450      2.1253899574      0.4593001680
 HYDROGEN     1.0     -1.2617422237      0.6791626789     -0.4786490518
 HYDROGEN     1.0      2.0376256641     -0.0515899044      0.4276638746

*** START A SINGLE POINT CALCULATION ***

 * GENERATE INITIAL GUESS ORBITALS *

 ...... END OF ONE-ELECTRON INTEGRALS ......
 CPU     0: STEP CPU TIME=     0.01 TOTAL CPU TIME=          2.9 (      0.0 MIN)
 TOTAL WALL CLOCK TIME=          4.6 SECONDS, CPU UTILIZATION IS    64.55%

          -------------
          GUESS OPTIONS
          -------------
          GUESS =MOREAD            NORB  =     119          NORDER=       0
          MIX   =       F          PRTMO =       F          PUNMO =       F
          TOLZ  = 1.0E-08          TOLE  = 1.0E-05
          SYMDEN=       F          PURIFY=       F

 INITIAL GUESS ORBITALS GENERATED BY MOREAD   ROUTINE.

 SYMMETRIES FOR INITIAL GUESS ORBITALS FOLLOW.   BOTH SET(S).
    19 ORBITALS ARE OCCUPIED (    5 CORE ORBITALS).
     1=A        2=A        3=A        4=A        5=A        6=A        7=A   
     8=A        9=A       10=A       11=A       12=A       13=A       14=A   
    15=A       16=A       17=A       18=A       19=A       20=A       21=A   
    22=A       23=A       24=A       25=A       26=A       27=A       28=A   
    29=A       30=A       31=A       32=A       33=A       34=A       35=A   
    36=A       37=A       38=A       39=A       40=A       41=A       42=A   
    43=A       44=A       45=A       46=A       47=A       48=A       49=A   
    50=A       51=A       52=A       53=A       54=A       55=A       56=A   
    57=A       58=A       59=A       60=A       61=A       62=A       63=A   
    64=A       65=A       66=A       67=A       68=A       69=A       70=A   
    71=A       72=A       73=A       74=A       75=A       76=A       77=A   
    78=A       79=A       80=A       81=A       82=A       83=A       84=A   
    85=A       86=A       87=A       88=A       89=A       90=A       91=A   
    92=A       93=A       94=A       95=A       96=A       97=A       98=A   
    99=A      100=A      101=A      102=A      103=A      104=A      105=A   
   106=A      107=A      108=A      109=A      110=A      111=A      112=A   
   113=A      114=A      115=A      116=A      117=A      118=A      119=A   
 ...... END OF INITIAL ORBITAL SELECTION ......
 CPU     0: STEP CPU TIME=     0.02 TOTAL CPU TIME=          3.0 (      0.0 MIN)
 TOTAL WALL CLOCK TIME=          4.7 SECONDS, CPU UTILIZATION IS    63.87%
  ...... END OF TWO-ELECTRON INTEGRALS .....
 CPU     0: STEP CPU TIME=     0.00 TOTAL CPU TIME=          3.0 (      0.0 MIN)
 TOTAL WALL CLOCK TIME=          4.7 SECONDS, CPU UTILIZATION IS    63.87%

          --------------------------
                 RHF SCF CALCULATION
          --------------------------
     DENSITY MATRIX CONV=  2.00E-05

 DIRECT SCF CALCULATION, SCHWRZ=T   FDIFF=T,  DIRTHR=  0.00E+00 NITDIR=10

                                                                                   NONZERO     BLOCKS
 ITER EX DEM     TOTAL ENERGY        E CHANGE  DENSITY CHANGE     ORB. GRAD      INTEGRALS    SKIPPED
   1  0  0     -264.8905822252  -264.8905822252   0.407913144   0.000000000       25327598       6556
          ---------------START SECOND ORDER SCF---------------
   2  1  0     -265.4905224381    -0.5999402129   0.128234539   0.040742922       25326284       6754
   3  2  0     -265.5969890016    -0.1064665635   0.215508889   0.029488668       25324193       6888
   4  3  0     -265.6180264923    -0.0210374908   0.080614146   0.021496542       25323503       6921
   5  4  0     -265.6278643315    -0.0098378392   0.038584255   0.003709572       25321029       7044
   6  5  0     -265.6286341548    -0.0007698233   0.017612254   0.001896128       25317680       7193
   7  6  0     -265.6288374235    -0.0002032687   0.002184672   0.000469346       25314821       7344
   8  7  0     -265.6288496085    -0.0000121850   0.001063154   0.000235651       25306377       7765
   9  8  0     -265.6288522464    -0.0000026378   0.000438904   0.000048991       25299387       8054
  10  9  0     -265.6288524413    -0.0000001949   0.000287314   0.000029672       25288924       8621
  11 10  0     -265.6288524653    -0.0000000240   0.000061463   0.000011745       25275905       9182
  12 11  0     -265.6288524683    -0.0000000030   0.000021571   0.000001522       25257641       9996
  13 12  0     -265.6288524685    -0.0000000002   0.000003338   0.000000512       25233108      10906

          -----------------
          DENSITY CONVERGED
          -----------------
     TIME TO FORM FOCK OPERATORS=       0.4 SECONDS (       0.0 SEC/ITER)
     FOCK TIME ON FIRST ITERATION=       0.0, LAST ITERATION=       0.0
     TIME TO SOLVE SCF EQUATIONS=       0.1 SECONDS (       0.0 SEC/ITER)

 FINAL RHF ENERGY IS     -265.6288524685 AFTER  13 ITERATIONS
 ...... END OF RHF CALCULATION ......
 CPU     0: STEP CPU TIME=     0.52 TOTAL CPU TIME=          3.5 (      0.1 MIN)
 TOTAL WALL CLOCK TIME=          5.4 SECONDS, CPU UTILIZATION IS    65.23%

*** START A GRADIENT CALCULATION ***

 ..... END OF 1-ELECTRON GRADIENT ......
 CPU     0: STEP CPU TIME=     0.01 TOTAL CPU TIME=          3.5 (      0.1 MIN)
 TOTAL WALL CLOCK TIME=          5.4 SECONDS, CPU UTILIZATION IS    64.58%
 ...... END OF 2-ELECTRON GRADIENT ......
 CPU     0: STEP CPU TIME=     0.08 TOTAL CPU TIME=          3.6 (      0.1 MIN)
 TOTAL WALL CLOCK TIME=          5.5 SECONDS, CPU UTILIZATION IS    64.86%

*** Store the coordinates, gradients, and vectors into the dictionary file.  iREC=  616    6   10

*** Energy [hartree] of #IMAGE=    6
Energy =     -265.6288524685

*** Gradient [hartree/bohr] of #IMAGE=    6
     1  CARBON       6.0     -0.0000960590     -0.0017494812      0.0038810990
     2  CARBON       6.0      0.0003489604     -0.0021909214     -0.0016397528
     3  CARBON       6.0     -0.0020590498      0.0016861436     -0.0023424094
     4  OXYGEN       8.0      0.0035272566      0.0023908373      0.0013429968
     5  OXYGEN       8.0      0.0006613200      0.0004161146      0.0017863696
     6  HYDROGEN     1.0     -0.0034100538      0.0063890301     -0.0012789558
     7  HYDROGEN     1.0     -0.0004047045     -0.0020455754      0.0001638795
     8  HYDROGEN     1.0      0.0051673058     -0.0039498594     -0.0028000848
     9  HYDROGEN     1.0     -0.0037349756     -0.0009462882      0.0008868578
 RMS Gradient =        0.0026268552


----------------- [END] ENERGY and GRADIENT calculation (initial run) #IMAGE=    6 -----------------


---------------- [BEGIN] ENERGY and GRADIENT calculation (initial run) #IMAGE=    7 ----------------

*** Coordinate [angs] of #IMAGE=    7
 CARBON       6.0      0.2094576706     -1.1331073562     -0.3383661757
 CARBON       6.0      0.9654627679      0.0497786256      0.1515867040
 CARBON       6.0      0.4297221688      1.2554813245      0.1589835950
 OXYGEN       8.0     -0.5234977606     -1.7766147133      0.3417824967
 OXYGEN       8.0     -0.8063340684      1.5582329835     -0.2616878628
 HYDROGEN     1.0      0.3235275384     -1.3709164420     -1.3989030240
 HYDROGEN     1.0      0.9620704629      2.1141992427      0.5081045144
 HYDROGEN     1.0     -1.2514804231      0.7770894174     -0.5517702093
 HYDROGEN     1.0      1.9650679283     -0.1042880899      0.5023698343

*** START A SINGLE POINT CALCULATION ***

 * GENERATE INITIAL GUESS ORBITALS *

 ...... END OF ONE-ELECTRON INTEGRALS ......
 CPU     0: STEP CPU TIME=     0.01 TOTAL CPU TIME=          3.6 (      0.1 MIN)
 TOTAL WALL CLOCK TIME=          5.5 SECONDS, CPU UTILIZATION IS    64.80%

          -------------
          GUESS OPTIONS
          -------------
          GUESS =MOREAD            NORB  =     119          NORDER=       0
          MIX   =       F          PRTMO =       F          PUNMO =       F
          TOLZ  = 1.0E-08          TOLE  = 1.0E-05
          SYMDEN=       F          PURIFY=       F

 INITIAL GUESS ORBITALS GENERATED BY MOREAD   ROUTINE.

 SYMMETRIES FOR INITIAL GUESS ORBITALS FOLLOW.   BOTH SET(S).
    19 ORBITALS ARE OCCUPIED (    5 CORE ORBITALS).
     1=A        2=A        3=A        4=A        5=A        6=A        7=A   
     8=A        9=A       10=A       11=A       12=A       13=A       14=A   
    15=A       16=A       17=A       18=A       19=A       20=A       21=A   
    22=A       23=A       24=A       25=A       26=A       27=A       28=A   
    29=A       30=A       31=A       32=A       33=A       34=A       35=A   
    36=A       37=A       38=A       39=A       40=A       41=A       42=A   
    43=A       44=A       45=A       46=A       47=A       48=A       49=A   
    50=A       51=A       52=A       53=A       54=A       55=A       56=A   
    57=A       58=A       59=A       60=A       61=A       62=A       63=A   
    64=A       65=A       66=A       67=A       68=A       69=A       70=A   
    71=A       72=A       73=A       74=A       75=A       76=A       77=A   
    78=A       79=A       80=A       81=A       82=A       83=A       84=A   
    85=A       86=A       87=A       88=A       89=A       90=A       91=A   
    92=A       93=A       94=A       95=A       96=A       97=A       98=A   
    99=A      100=A      101=A      102=A      103=A      104=A      105=A   
   106=A      107=A      108=A      109=A      110=A      111=A      112=A   
   113=A      114=A      115=A      116=A      117=A      118=A      119=A   
 ...... END OF INITIAL ORBITAL SELECTION ......
 CPU     0: STEP CPU TIME=     0.03 TOTAL CPU TIME=          3.6 (      0.1 MIN)
 TOTAL WALL CLOCK TIME=          5.6 SECONDS, CPU UTILIZATION IS    64.53%
  ...... END OF TWO-ELECTRON INTEGRALS .....
 CPU     0: STEP CPU TIME=     0.00 TOTAL CPU TIME=          3.6 (      0.1 MIN)
 TOTAL WALL CLOCK TIME=          5.6 SECONDS, CPU UTILIZATION IS    64.41%

          --------------------------
                 RHF SCF CALCULATION
          --------------------------
     DENSITY MATRIX CONV=  2.00E-05

 DIRECT SCF CALCULATION, SCHWRZ=T   FDIFF=T,  DIRTHR=  0.00E+00 NITDIR=10

                                                                                   NONZERO     BLOCKS
 ITER EX DEM     TOTAL ENERGY        E CHANGE  DENSITY CHANGE     ORB. GRAD      INTEGRALS    SKIPPED
   1  0  0     -264.5453265538  -264.5453265538   0.370191458   0.000000000       25342319       5906
          ---------------START SECOND ORDER SCF---------------
   2  1  0     -265.4199847787    -0.8746582249   0.186952486   0.066177952       25341118       6116
   3  2  0     -265.5836570185    -0.1636722398   0.182518321   0.046590055       25338874       6276
   4  3  0     -265.6054356465    -0.0217786280   0.066889262   0.047006286       25338146       6308
   5  4  0     -265.6252035475    -0.0197679010   0.028251063   0.004918254       25335859       6448
   6  5  0     -265.6261854755    -0.0009819280   0.011965070   0.002869815       25330411       6682
   7  6  0     -265.6264092701    -0.0002237946   0.002459799   0.000670634       25325068       6910
   8  7  0     -265.6264243640    -0.0000150939   0.001032138   0.000356347       25315165       7388
   9  8  0     -265.6264266571    -0.0000022931   0.000578956   0.000056057       25302465       7919
  10  9  0     -265.6264268296    -0.0000001725   0.000227802   0.000029364       25285468       8723
  11 10  0     -265.6264268496    -0.0000000200   0.000057849   0.000009966       25263801       9634
  12 11  0     -265.6264268518    -0.0000000022   0.000027973   0.000001585       25235822      10691
  13 12  0     -265.6264268520    -0.0000000002   0.000002595   0.000000463       25203392      11748

          -----------------
          DENSITY CONVERGED
          -----------------
     TIME TO FORM FOCK OPERATORS=       0.4 SECONDS (       0.0 SEC/ITER)
     FOCK TIME ON FIRST ITERATION=       0.0, LAST ITERATION=       0.0
     TIME TO SOLVE SCF EQUATIONS=       0.1 SECONDS (       0.0 SEC/ITER)

 FINAL RHF ENERGY IS     -265.6264268520 AFTER  13 ITERATIONS
 ...... END OF RHF CALCULATION ......
 CPU     0: STEP CPU TIME=     0.53 TOTAL CPU TIME=          4.2 (      0.1 MIN)
 TOTAL WALL CLOCK TIME=          6.3 SECONDS, CPU UTILIZATION IS    65.66%

*** START A GRADIENT CALCULATION ***

 ..... END OF 1-ELECTRON GRADIENT ......
 CPU     0: STEP CPU TIME=     0.01 TOTAL CPU TIME=          4.2 (      0.1 MIN)
 TOTAL WALL CLOCK TIME=          6.9 SECONDS, CPU UTILIZATION IS    60.29%
 ...... END OF 2-ELECTRON GRADIENT ......
 CPU     0: STEP CPU TIME=     0.08 TOTAL CPU TIME=          4.2 (      0.1 MIN)
 TOTAL WALL CLOCK TIME=          7.0 SECONDS, CPU UTILIZATION IS    60.66%

*** Store the coordinates, gradients, and vectors into the dictionary file.  iREC=  617    7   10

*** Energy [hartree] of #IMAGE=    7
Energy =     -265.6264268520

*** Gradient [hartree/bohr] of #IMAGE=    7
     1  CARBON       6.0     -0.0008932189      0.0006092386      0.0015008032
     2  CARBON       6.0     -0.0008208411     -0.0007942421     -0.0006255559
     3  CARBON       6.0     -0.0013927837     -0.0000441881     -0.0005345946
     4  OXYGEN       8.0      0.0029054602      0.0033164265      0.0001095148
     5  OXYGEN       8.0     -0.0004518043     -0.0000029494      0.0012307810
     6  HYDROGEN     1.0     -0.0014930919      0.0039648191      0.0011989292
     7  HYDROGEN     1.0     -0.0006926198     -0.0030947707     -0.0007441069
     8  HYDROGEN     1.0      0.0060797379     -0.0033759548     -0.0012172277
     9  HYDROGEN     1.0     -0.0032408385     -0.0005783792     -0.0009185430
 RMS Gradient =        0.0021085105


----------------- [END] ENERGY and GRADIENT calculation (initial run) #IMAGE=    7 -----------------


---------------- [BEGIN] ENERGY and GRADIENT calculation (initial run) #IMAGE=    8 ----------------

*** Coordinate [angs] of #IMAGE=    8
 CARBON       6.0      0.1425440794     -1.1079746826     -0.3383549281
 CARBON       6.0      0.9297076966      0.0460157441      0.1785602535
 CARBON       6.0      0.4344824774      1.2713097872      0.1613536860
 OXYGEN       8.0     -0.4583391187     -1.8647122684      0.3517503572
 OXYGEN       8.0     -0.7803970491      1.6063142225     -0.2952154558
 HYDROGEN     1.0      0.0774660752     -1.2091686493     -1.4267721175
 HYDROGEN     1.0      0.9838708668      2.1198614788      0.5123803273
 HYDROGEN     1.0     -1.2547424188      0.8331068746     -0.5619280304
 HYDROGEN     1.0      1.9126151377     -0.1355410236      0.5605072581

*** START A SINGLE POINT CALCULATION ***

 * GENERATE INITIAL GUESS ORBITALS *

 ...... END OF ONE-ELECTRON INTEGRALS ......
 CPU     0: STEP CPU TIME=     0.00 TOTAL CPU TIME=          4.2 (      0.1 MIN)
 TOTAL WALL CLOCK TIME=          7.0 SECONDS, CPU UTILIZATION IS    60.40%

          -------------
          GUESS OPTIONS
          -------------
          GUESS =MOREAD            NORB  =     119          NORDER=       0
          MIX   =       F          PRTMO =       F          PUNMO =       F
          TOLZ  = 1.0E-08          TOLE  = 1.0E-05
          SYMDEN=       F          PURIFY=       F

 INITIAL GUESS ORBITALS GENERATED BY MOREAD   ROUTINE.

 SYMMETRIES FOR INITIAL GUESS ORBITALS FOLLOW.   BOTH SET(S).
    19 ORBITALS ARE OCCUPIED (    5 CORE ORBITALS).
     1=A        2=A        3=A        4=A        5=A        6=A        7=A   
     8=A        9=A       10=A       11=A       12=A       13=A       14=A   
    15=A       16=A       17=A       18=A       19=A       20=A       21=A   
    22=A       23=A       24=A       25=A       26=A       27=A       28=A   
    29=A       30=A       31=A       32=A       33=A       34=A       35=A   
    36=A       37=A       38=A       39=A       40=A       41=A       42=A   
    43=A       44=A       45=A       46=A       47=A       48=A       49=A   
    50=A       51=A       52=A       53=A       54=A       55=A       56=A   
    57=A       58=A       59=A       60=A       61=A       62=A       63=A   
[...]
     4         3.234946     1.074777     -265.640040        8.117        0.002658        0.002149
     5         4.301578     1.066632     -265.633957       11.934        0.002580        0.002171
     6         5.435754     1.134176     -265.629104       14.980        0.002150        0.002024
     7         6.672778     1.237024     -265.626621       16.538        0.001761        0.001892
     8         7.707308     1.034530     -265.626082       16.876        0.001673        0.001816
     9         8.843330     1.136022     -265.627737       15.837        0.001888        0.001912
    10         9.910640     1.067310     -265.630380       14.179        0.002165        0.002122
    11        10.869673     0.959033     -265.633157       12.436        0.002446        0.002376
    12        11.694543     0.824871     -265.635499       10.966        0.002392        0.002343
    13        12.419475     0.724932     -265.637156        9.927        0.002130        0.002109
    14        13.071973     0.652498     -265.637978        9.411        0.001719        0.001726
    15        13.751350     0.679376     -265.636123       10.575        0.011909        0.000000

----------------------------------------------------------------------------------------------------
                           *** DATA TABLE OF FORCES [kcal/mol/angs] ***
----------------------------------------------------------------------------------------------------
#Image          F(RAW)_RMS      F(OPT)_RMS     F(perp)_RMS     F(para)_RMS    Fs(para)_RMS
     1            0.002005        0.000000        0.000000        0.000000        0.000000
     2            1.710923        1.319399        1.318468        1.090367        0.049571
     3            2.781348        2.185680        2.181387        1.725529        0.136938
     4            3.151554        2.548700        2.504107        1.913567        0.474676
     5            3.059038        2.574195        2.504249        1.756830        0.596003
     6            2.549653        2.400546        2.241016        1.215969        0.860504
     7            2.088280        2.243374        2.030877        0.486262        0.953029
     8            1.983694        2.153668        1.971242        0.221916        0.867462
     9            2.239084        2.267039        2.071942        0.848855        0.920067
    10            2.567850        2.515751        2.324064        1.092052        0.963187
    11            2.900791        2.817316        2.693442        1.077013        0.826220
    12            2.836201        2.778724        2.699551        0.869748        0.658586
    13            2.526171        2.500402        2.463608        0.558726        0.427372
    14            2.038510        2.046314        2.035167        0.116694        0.213300
    15           14.121462        0.000000        0.000000        0.000000        0.000000

----------------------------------------------------------------------------------------------------
                      *** EXAMINATION OF CONVERGENCES [commonly used units] ***
----------------------------------------------------------------------------------------------------
                    F(OPT) [kcal/mol/angs]             Displacement [angs]
#Image                 MAX             RMS             MAX             RMS
     1            0.000000        0.000000        0.000000        0.000000
     2            3.906776        1.319399        0.005442        0.001880
     3            5.911163        2.185680        0.007261        0.002554
     4            5.424986        2.548700        0.005202        0.002164
     5            4.491933        2.574195        0.004168        0.001680
     6            5.659749        2.400546        0.002939        0.001194
     7            6.160223        2.243374        0.003986        0.001325
     8            6.152233        2.153668        0.001962        0.000806
     9            6.009976        2.267039        0.002436        0.001005
    10            6.062710        2.515751        0.002894        0.001216
    11            5.909572        2.817316        0.003757        0.001503
    12            6.536003        2.778724        0.003957        0.001410
    13            6.239623        2.500402        0.003585        0.001261
    14            6.206107        2.046314        0.003666        0.001230
    15            0.000000        0.000000        0.001111        0.000506
   Maximum        6.536003        2.817316        0.007261        0.002554
 Tolerance       10.000000        3.000000        0.100000        0.010000
Converged?               T               T               T               T
    Result    All value of examination are smaller than the tolerance.

----------------------------------------------------------------------------------------------------




                              =================================
                                THE PATH IS NOW CONVERGED!!!!
                              =================================






----------------------------------------------------------------------------------------------------
                         *** COORDINATES OF EACH IMAGES [angstrom] ***
       Total cycle =        8
     Current cycle =        3
  Number of images =       15
   Number of atoms =        9
----------------------------------------------------------------------------------------------------
#image =    1, Energy=     -265.6529752664, Grad RMS=      0.000001691054
CARBON         6.0000      0.4434275660     -1.2331652197      0.0000000000
CARBON         6.0000      1.1106517644      0.0577679598      0.0000000000
CARBON         6.0000      0.4095962860      1.2051473421      0.0000000000
OXYGEN         8.0000     -0.7567008394     -1.3726039793      0.0000000000
OXYGEN         8.0000     -0.8975337843      1.3131984097      0.0000000000
HYDROGEN       1.0000      1.0860165731     -2.1151858317      0.0000000000
HYDROGEN       1.0000      0.9023656735      2.1608939739      0.0000000000
HYDROGEN       1.0000     -1.2985422895      0.4452692635      0.0000000000
HYDROGEN       1.0000      2.1829073251      0.0976027091      0.0000000000
#image =    2, Energy=     -265.6510510954, Grad RMS=      0.001442817342
CARBON         6.0000      0.4351703293     -1.2345885496     -0.0785171102
CARBON         6.0000      1.0994720098      0.0601974950      0.0265215847
CARBON         6.0000      0.4126367721      1.2137861515      0.0394148953
OXYGEN         8.0000     -0.7482813649     -1.4101640155      0.0739469700
OXYGEN         8.0000     -0.8924088959      1.3393060309     -0.0489466404
HYDROGEN       1.0000      1.0717642492     -2.0832452587     -0.3313007480
HYDROGEN       1.0000      0.9133327154      2.1632849055      0.1080312898
HYDROGEN       1.0000     -1.3025122363      0.4804455737     -0.1081457336
HYDROGEN       1.0000      2.1704341244      0.0950114415      0.0844373321
#image =    3, Energy=     -265.6462094247, Grad RMS=      0.002345504245
CARBON         6.0000      0.4142544175     -1.2252352769     -0.1535399942
CARBON         6.0000      1.0860484331      0.0606957877      0.0548538112
CARBON         6.0000      0.4154601825      1.2202017106      0.0748366631
OXYGEN         8.0000     -0.7284979364     -1.4567605326      0.1447275351
OXYGEN         8.0000     -0.8837582553      1.3672544597     -0.0958089788
HYDROGEN       1.0000      1.0026288467     -1.9985290899     -0.6476410850
HYDROGEN       1.0000      0.9201779641      2.1596422662      0.2075519574
HYDROGEN       1.0000     -1.2987344367      0.5204000268     -0.2192245959
HYDROGEN       1.0000      2.1529338394      0.0762522073      0.1669130899
#image =    4, Energy=     -265.6400397984, Grad RMS=      0.002657698073
CARBON         6.0000      0.3798267378     -1.2062200220     -0.2202088877
CARBON         6.0000      1.0693319866      0.0597517175      0.0837669106
CARBON         6.0000      0.4189903582      1.2251721837      0.1041284331
OXYGEN         8.0000     -0.6968999810     -1.5138143363      0.2087662478
OXYGEN         8.0000     -0.8714708078      1.3982147404     -0.1400740240
HYDROGEN       1.0000      0.8819491608     -1.8649858121     -0.9295439370
HYDROGEN       1.0000      0.9253274477      2.1516629247      0.2973227058
HYDROGEN       1.0000     -1.2889956061      0.5654788367     -0.3226072823
HYDROGEN       1.0000      2.1291633672      0.0453794169      0.2493851963
#image =    5, Energy=     -265.6339570603, Grad RMS=      0.002579679826
CARBON         6.0000      0.3339940632     -1.1806662379     -0.2754322522
CARBON         6.0000      1.0483555136      0.0571701503      0.1105691288
CARBON         6.0000      0.4229128475      1.2297858098      0.1283766623
OXYGEN         8.0000     -0.6538981161     -1.5799897776      0.2638322580
OXYGEN         8.0000     -0.8557013714      1.4332767859     -0.1828541094
HYDROGEN       1.0000      0.7166715791     -1.6970234748     -1.1582898673
HYDROGEN       1.0000      0.9296299809      2.1405696066      0.3790703929
HYDROGEN       1.0000     -1.2789054062      0.6150741224     -0.4051986214
HYDROGEN       1.0000      2.0960859458      0.0042472391      0.3336744981
#image =    6, Energy=     -265.6291036674, Grad RMS=      0.002150116720
CARBON         6.0000      0.2772877267     -1.1547512615     -0.3169273841
CARBON         6.0000      1.0154975375      0.0546726880      0.1314749360
CARBON         6.0000      0.4269970958      1.2391246512      0.1484692489
OXYGEN         8.0000     -0.5968266984     -1.6661051611      0.3099108769
OXYGEN         8.0000     -0.8343993867      1.4838985663     -0.2248534239
HYDROGEN       1.0000      0.5248575247     -1.5248311929     -1.3156521761
HYDROGEN       1.0000      0.9393513074      2.1284376864      0.4558591985
HYDROGEN       1.0000     -1.2681804170      0.6815074537     -0.4750916564
HYDROGEN       1.0000      2.0414077483     -0.0489616865      0.4253141081
#image =    7, Energy=     -265.6266207587, Grad RMS=      0.001761041311
CARBON         6.0000      0.2099590268     -1.1346789280     -0.3374051431
CARBON         6.0000      0.9669871280      0.0512153503      0.1517247238
CARBON         6.0000      0.4299831460      1.2568210154      0.1584947500
OXYGEN         8.0000     -0.5244229810     -1.7773847133      0.3423694476
OXYGEN         8.0000     -0.8070541952      1.5578675420     -0.2627740113
HYDROGEN       1.0000      0.3265607765     -1.3765585197     -1.3982521022
HYDROGEN       1.0000      0.9613819775      2.1185062449      0.5065166446
HYDROGEN       1.0000     -1.2586160255      0.7790514220     -0.5494963571
HYDROGEN       1.0000      1.9687443557     -0.1012406119      0.5016899214
#image =    8, Energy=     -265.6260818514, Grad RMS=      0.001672844717
CARBON         6.0000      0.1409410677     -1.1070108577     -0.3381535681
CARBON         6.0000      0.9307786046      0.0479689848      0.1786608550
CARBON         6.0000      0.4360840617      1.2717083062      0.1602930490
OXYGEN         8.0000     -0.4583957243     -1.8670675627      0.3533629910
OXYGEN         8.0000     -0.7812549099      1.6058621943     -0.2965605944
HYDROGEN       1.0000      0.0837289199     -1.2115908297     -1.4271002611
HYDROGEN       1.0000      0.9822938925      2.1225890693      0.5141219219
HYDROGEN       1.0000     -1.2591807526      0.8363998971     -0.5628250705
HYDROGEN       1.0000      1.9141467210     -0.1340633224      0.5647789235
#image =    9, Energy=     -265.6277368513, Grad RMS=      0.001888214168
CARBON         6.0000      0.0659411033     -1.0912714808     -0.3225813329
CARBON         6.0000      0.8790209984      0.0420427740      0.2001110674
CARBON         6.0000      0.4386597258      1.2876726691      0.1581153056
OXYGEN         8.0000     -0.3786557359     -1.9611184919      0.3547271434
OXYGEN         8.0000     -0.7510225501      1.6708289614     -0.3278855712
HYDROGEN       1.0000     -0.1384040111     -1.0974468556     -1.4007218555
HYDROGEN       1.0000      1.0109739856      2.1170784864      0.5221190850
HYDROGEN       1.0000     -1.2588581159      0.9210852338     -0.5944585350
HYDROGEN       1.0000      1.8405491329     -0.1727240419      0.6226467860
#image =   10, Energy=     -265.6303795386, Grad RMS=      0.002165461459
CARBON         6.0000     -0.0071049293     -1.0803706887     -0.2942107712
CARBON         6.0000      0.8276548414      0.0356190191      0.2200066455
CARBON         6.0000      0.4402500262      1.3004416770      0.1536715699
OXYGEN         8.0000     -0.2999927302     -2.0393632430      0.3443941403
OXYGEN         8.0000     -0.7209540769      1.7285802262     -0.3566905692
HYDROGEN       1.0000     -0.3569671777     -1.0115643608     -1.3336921410
HYDROGEN       1.0000      1.0398696236      2.1083687867      0.5240084030
HYDROGEN       1.0000     -1.2602604330      0.9981412848     -0.6148803902
HYDROGEN       1.0000      1.7683911870     -0.2070521847      0.6735120557
#image =   11, Energy=     -265.6331567620, Grad RMS=      0.002446229924
CARBON         6.0000     -0.0725405912     -1.0723271696     -0.2518740742
CARBON         6.0000      0.7840176885      0.0304655361      0.2419681639
CARBON         6.0000      0.4423460177      1.3105137396      0.1443000507
OXYGEN         8.0000     -0.2311736696     -2.1017482292      0.3212345262
OXYGEN         8.0000     -0.6948609048      1.7741581734     -0.3812570222
HYDROGEN       1.0000     -0.5651190740     -0.9358363054     -1.2257571103
HYDROGEN       1.0000      1.0673240302      2.1025820359      0.5093003609
HYDROGEN       1.0000     -1.2569295788      1.0613912188     -0.6415061916
HYDROGEN       1.0000      1.7131869498     -0.2278410774      0.7103552080
#image =   12, Energy=     -265.6354990656, Grad RMS=      0.002391761397
CARBON         6.0000     -0.1280493527     -1.0634270590     -0.2013721798
CARBON         6.0000      0.7514695846      0.0276288483      0.2646226034
CARBON         6.0000      0.4447949123      1.3157391590      0.1344016121
OXYGEN         8.0000     -0.1753650915     -2.1460130760      0.2884889892
OXYGEN         8.0000     -0.6738493483      1.8039650035     -0.4036258749
HYDROGEN       1.0000     -0.7584173519     -0.8688694507     -1.0816584293
HYDROGEN       1.0000      1.0915321085      2.0987327549      0.4831262611
HYDROGEN       1.0000     -1.2506233108      1.1043698915     -0.6663719800
HYDROGEN       1.0000      1.6760993845     -0.2388924807      0.7388006043
#image =   13, Energy=     -265.6371559411, Grad RMS=      0.002130313593
CARBON         6.0000     -0.1746860216     -1.0534061559     -0.1462035288
CARBON         6.0000      0.7276640819      0.0258519653      0.2876460889
CARBON         6.0000      0.4475414890      1.3180022343      0.1249179545
OXYGEN         8.0000     -0.1307443188     -2.1748857765      0.2490754173
OXYGEN         8.0000     -0.6570764533      1.8204259735     -0.4250463538
HYDROGEN       1.0000     -0.9282037876     -0.8098604934     -0.9094153955
HYDROGEN       1.0000      1.1133370018      2.0947435714      0.4517802008
HYDROGEN       1.0000     -1.2449054134      1.1290563486     -0.6843872883
HYDROGEN       1.0000      1.6500410992     -0.2467217819      0.7632991103
#image =   14, Energy=     -265.6379781792, Grad RMS=      0.001719070722
CARBON         6.0000     -0.2115991939     -1.0407629925     -0.0876178398
CARBON         6.0000      0.7134429494      0.0255793144      0.3123879633
CARBON         6.0000      0.4511286780      1.3179518080      0.1157770450
OXYGEN         8.0000     -0.0985865674     -2.1899459794      0.2035943359
OXYGEN         8.0000     -0.6453137789      1.8227612892     -0.4460006811
HYDROGEN       1.0000     -1.0677169405     -0.7515516671     -0.7136428825
HYDROGEN       1.0000      1.1320944047      2.0921239205      0.4158113286
HYDROGEN       1.0000     -1.2397445281      1.1337459437     -0.6965796306
HYDROGEN       1.0000      1.6347224937     -0.2518405700      0.7867378809
#image =   15, Energy=     -265.6361229759, Grad RMS=      0.011908595302
CARBON         6.0000     -0.2485424308     -1.0132902307     -0.0324647745
CARBON         6.0000      0.7025770480      0.0206040466      0.3393135552
CARBON         6.0000      0.4484080185      1.3196004157      0.1028375810
OXYGEN         8.0000     -0.0707963501     -2.1932764874      0.1565476452
OXYGEN         8.0000     -0.6299732010      1.8064303465     -0.4631030805
HYDROGEN       1.0000     -1.1714394906     -0.6793975860     -0.5096037102
HYDROGEN       1.0000      1.1515090128      2.0854109517      0.3775369387
HYDROGEN       1.0000     -1.2289527616      1.0973801109     -0.6921914611
HYDROGEN       1.0000      1.6253714910     -0.2563779451      0.8114487232
----------------------------------------------------------------------------------------------------
 CPU     0: STEP CPU TIME=     0.01 TOTAL CPU TIME=         22.1 (      0.4 MIN)
 TOTAL WALL CLOCK TIME=         37.1 SECONDS, CPU UTILIZATION IS    59.53%
               1311124  WORDS OF DYNAMIC MEMORY USED
 EXECUTION OF GAMESS TERMINATED NORMALLY Tue Feb 25 22:38:18 2020
 DDI: 263640 bytes (0.3 MB / 0 MWords) used by master data server.

 ----------------------------------------
 CPU timing information for all processes
 ========================================
 0: 19.373 + 2.700 = 22.74
 1: 19.717 + 0.504 = 20.221
 2: 19.533 + 0.480 = 20.14
 3: 19.544 + 0.555 = 20.100
 4: 19.578 + 0.514 = 20.93
 5: 19.743 + 0.284 = 20.27
 6: 17.409 + 0.936 = 18.346
 7: 16.992 + 0.663 = 17.656
 8: 16.167 + 0.937 = 17.104
 9: 17.58 + 0.597 = 17.655
 10: 16.905 + 0.633 = 17.539
 11: 17.61 + 0.406 = 17.468
 12: 17.325 + 0.873 = 18.198
 13: 17.83 + 0.551 = 17.634
 14: 16.711 + 0.572 = 17.284
 15: 17.13 + 0.493 = 17.507
 16: 16.572 + 0.662 = 17.234
 17: 16.623 + 0.555 = 17.178
 18: 17.188 + 0.813 = 18.01
 19: 17.122 + 0.577 = 17.699
 20: 17.27 + 0.453 = 17.480
 21: 17.32 + 0.572 = 17.604
 22: 16.612 + 0.724 = 17.337
 23: 17.38 + 0.393 = 17.431
 24: 16.121 + 0.996 = 17.118
 25: 15.980 + 0.764 = 16.745
 26: 16.218 + 0.495 = 16.713
 27: 16.215 + 0.596 = 16.812
 28: 15.918 + 0.804 = 16.723
 29: 16.151 + 0.469 = 16.621
 30: 16.758 + 0.720 = 17.478
 31: 16.688 + 0.617 = 17.306
 32: 16.634 + 0.438 = 17.73
 33: 16.657 + 0.520 = 17.178
 34: 16.446 + 0.574 = 17.21
 35: 16.564 + 0.411 = 16.976
 36: 0.116 + 1.628 = 1.744
 37: 0.118 + 1.621 = 1.740
 38: 0.122 + 1.578 = 1.700
 39: 0.127 + 1.603 = 1.731
 40: 0.115 + 1.585 = 1.700
 41: 0.109 + 1.589 = 1.699
 42: 0.02 + 0.03 = 0.05
 43: 0.01 + 0.05 = 0.06
 44: 0.00 + 0.03 = 0.04
 45: 0.00 + 0.05 = 0.05
 46: 0.02 + 0.02 = 0.05
 47: 0.01 + 0.03 = 0.04
 48: 0.00 + 0.05 = 0.06
 49: 0.02 + 0.03 = 0.05
 50: 0.01 + 0.05 = 0.06
 51: 0.00 + 0.04 = 0.05
 52: 0.01 + 0.04 = 0.05
 53: 0.01 + 0.04 = 0.05
 54: 0.00 + 0.05 = 0.06
 55: 0.00 + 0.04 = 0.04
 56: 0.02 + 0.03 = 0.06
 57: 0.00 + 0.04 = 0.04
 58: 0.01 + 0.02 = 0.04
 59: 0.00 + 0.03 = 0.03
 60: 0.01 + 0.04 = 0.05
 61: 0.00 + 0.05 = 0.05
 62: 0.02 + 0.02 = 0.04
 63: 0.01 + 0.04 = 0.05
 64: 0.02 + 0.01 = 0.04
 65: 0.00 + 0.04 = 0.04
 66: 0.01 + 0.04 = 0.05
 67: 0.02 + 0.03 = 0.05
 68: 0.00 + 0.05 = 0.06
 69: 0.03 + 0.02 = 0.06
 70: 0.01 + 0.04 = 0.05
 71: 0.01 + 0.03 = 0.05
 ----------------------------------------
 ddikick.x: exited gracefully.
----- accounting info -----
Files used on the master node alpha1 were:
-rw-r--r-- 1 asada3 asada  9466843 Feb 25 22:38 /scr/asada3/exam07.dat
-rw-r--r-- 1 asada3 asada   256333 Feb 25 22:37 /scr/asada3/exam07.F05
-rw-r--r-- 1 asada3 asada 70451200 Feb 25 22:38 /scr/asada3/exam07.F10
-rw-r--r-- 1 asada3 asada   174597 Feb 25 22:38 /scr/asada3/exam07.trj
Files from alpha2 are:
Files from alpha3 are:
Files from alpha4 are:
Files from alpha5 are:
Files from alpha6 are:
Tue Feb 25 22:38:25 JST 2020
0.421u 0.327s 0:45.37 1.6%	0+0k 0+19512io 0pf+0w
