----- GAMESS execution script 'rungms' -----
This job is running on host alpha1
under operating system Linux at Wed Feb 26 13:44:43 JST 2020
Available scratch disk space (Kbyte units) at beginning of the job is
Filesystem      1K-blocks      Used Available Use% Mounted on
/dev/sda2      1440803456 586195316 781349596  43% /scr
GAMESS temporary binary files will be written to /scr/asada3
GAMESS supplementary output files will be written to /scr/asada3
Copying input file exam12.inp to your run's scratch directory...
Deleting old files...
Using 6 nodes and 36 cores from machine1.lst.

 Distributed Data Interface kickoff program.
 Initiating 36 compute processes on 6 nodes to run the following command:
 /home/users/asada3/haruta/bin/gamess-dev/gamess/gamess.00.x exam12 

          ******************************************************
          *         GAMESS VERSION = 30 SEP 2018 (R3)         *
          *             FROM IOWA STATE UNIVERSITY             *
          * M.W.SCHMIDT, K.K.BALDRIDGE, J.A.BOATZ, S.T.ELBERT, *
          *   M.S.GORDON, J.H.JENSEN, S.KOSEKI, N.MATSUNAGA,   *
          *          K.A.NGUYEN, S.J.SU, T.L.WINDUS,           *
          *       TOGETHER WITH M.DUPUIS, J.A.MONTGOMERY       *
          *         J.COMPUT.CHEM.  14, 1347-1363(1993)        *
          **************** 64 BIT INTEL VERSION ****************

  SINCE 1993, STUDENTS AND POSTDOCS WORKING AT IOWA STATE UNIVERSITY
  AND ALSO IN THEIR VARIOUS JOBS AFTER LEAVING ISU HAVE MADE IMPORTANT
  CONTRIBUTIONS TO THE CODE:
     IVANA ADAMOVIC, CHRISTINE AIKENS, YURI ALEXEEV, POOJA ARORA,
     ANDREY ASADCHEV, ROB BELL, PRADIPTA BANDYOPADHYAY, JONATHAN BENTZ,
     BRETT BODE, KURT BRORSEN, CALEB CARLIN, GALINA CHABAN, WEI CHEN,
     CHEOL HO CHOI, PAUL DAY, ALBERT DEFUSCO, NUWAN DESILVA, TIM DUDLEY,
     DMITRI FEDOROV, ALEX FINDLATER, GRAHAM FLETCHER, MARK FREITAG,
     KURT GLAESEMANN, ANASTASIA GUNINA,
     DAN KEMP, GRANT MERRILL, NORIYUKI MINEZAWA, JONATHAN MULLIN,
     TAKESHI NAGATA, SEAN NEDD, HEATHER NETZLOFF, BOSILJKA NJEGIC, RYAN OLSON,
     MIKE PAK, BUU PHAM,
     SPENCER PRUITT, LUKE ROSKOP, JIM SHOEMAKER, LYUDMILA SLIPCHENKO,
     TONY SMITH, SAROM SOK LEANG, JIE SONG, TETSUYA TAKETSUGU, SIMON WEBB,
     PENG XU, SOOHAENG YOO, FEDERICO ZAHARIEV

  ADDITIONAL CODE HAS BEEN PROVIDED BY COLLABORATORS IN OTHER GROUPS:
     IOWA STATE UNIVERSITY:
          JOE IVANIC, AARON WEST, LAIMUTIS BYTAUTAS, KLAUS RUEDENBERG
     UNIVERSITY OF TOKYO: KIMIHIKO HIRAO, TAKAHITO NAKAJIMA,
          TAKAO TSUNEDA, MUNEAKI KAMIYA, SUSUMU YANAGISAWA,
          KIYOSHI YAGI, MAHITO CHIBA, SEIKEN TOKURA, NAOAKI KAWAKAMI
     UNIVERSITY OF AARHUS: FRANK JENSEN
     UNIVERSITY OF IOWA: VISVALDAS KAIRYS, HUI LI
     NATIONAL INST. OF STANDARDS AND TECHNOLOGY: WALT STEVENS, DAVID GARMER
     UNIVERSITY OF PISA: BENEDETTA MENNUCCI, JACOPO TOMASI
     UNIVERSITY OF MEMPHIS: HENRY KURTZ, PRAKASHAN KORAMBATH
     UNIVERSITY OF ALBERTA: TOBY ZENG, MARIUSZ KLOBUKOWSKI
     UNIVERSITY OF NEW ENGLAND: MARK SPACKMAN
     MIE UNIVERSITY: HIROAKI UMEDA
     NAT. INST. OF ADVANCED INDUSTRIAL SCIENCE AND TECHNOLOGY: KAZUO KITAURA
     MICHIGAN STATE UNIVERSITY:
          KAROL KOWALSKI, MARTA WLOCH, JEFFREY GOUR, JESSE LUTZ,
          WEI LI, JUN SHEN, J. EMILIANO DEUSTUA, PIOTR PIECUCH
     UNIVERSITY OF MINNESOTA:
          YINAN SHU
     UNIVERSITY OF SILESIA: MONIKA MUSIAL, STANISLAW KUCHARSKI
     FACULTES UNIVERSITAIRES NOTRE-DAME DE LA PAIX:
          OLIVIER QUINET, BENOIT CHAMPAGNE
     UNIVERSITY OF CALIFORNIA - SANTA BARBARA: BERNARD KIRTMAN
     INSTITUTE FOR MOLECULAR SCIENCE:
          KAZUYA ISHIMURA, MICHIO KATOUDA, AND SHIGERU NAGASE
     UNIVERSITY OF NOTRE DAME: ANNA POMOGAEVA, DAN CHIPMAN
     KYUSHU UNIVERSITY:
          HARUYUKI NAKANO,
          FENG LONG GU, JACEK KORCHOWIEC, MARCIN MAKOWSKI, AND YURIKO AOKI,
          HIROTOSHI MORI AND EISAKU MIYOSHI
     PENNSYLVANIA STATE UNIVERSITY:
          TZVETELIN IORDANOV, CHET SWALINA, JONATHAN SKONE,
          SHARON HAMMES-SCHIFFER
     WASEDA UNIVERSITY:
          MASATO KOBAYASHI, TOMOKO AKAMA, TSUGUKI TOUMA,
          TAKESHI YOSHIKAWA, YASUHIRO IKABATA, JUNJI SEINO,
          YUYA NAKAJIMA, HIROMI NAKAI
     NANJING UNIVERSITY: SHUHUA LI
     UNIVERSITY OF NEBRASKA:
          PEIFENG SU, DEJUN SI, NANDUN THELLAMUREGE, YALI WANG, HUI LI
     UNIVERSITY OF ZURICH: ROBERTO PEVERATI, KIM BALDRIDGE
     N. COPERNICUS UNIVERSITY AND JACKSON STATE UNIVERSITY:
          MARIA BARYSZ
     UNIVERSITY OF COPENHAGEN: Jimmy Kromann, CASPER STEINMANN
     TOKYO INSTITUTE OF TECHNOLOGY: HIROYA NAKATA
     NAGOYA UNIVERSITY: YOSHIO NISHIMOTO, STEPHAN IRLE
     MOSCOW STATE UNIVERSITY: VLADIMIR MIRONOV


 PARALLEL VERSION RUNNING ON       36 PROCESSORS IN        6 NODES.

 EXECUTION OF GAMESS BEGUN Wed Feb 26 13:44:46 2020

            ECHO OF THE FIRST FEW INPUT CARDS -
 INPUT CARD> $CONTRL SCFTYP=RHF MPLEVL=2 MAXIT=50 MULT=1 $END                               
 INPUT CARD> $SCF DIRSCF=.TRUE. $END                                                        
 INPUT CARD> $CONTRL RUNTYP=NEBPATH   $END                                                  
 INPUT CARD> $BASIS GBASIS=N31 NGAUSS=6 NDFUNC=1 NPFUNC=1 DIFFSP=.TRUE. $END                
 INPUT CARD> $GUESS  GUESS=MOREAD  NORB=289  $END                                           
 INPUT CARD> $SYSTEM mwords=2000  memddi=500  TIMLIM=525600 $END                            
 INPUT CARD> $NEB   MORINT=.TRUE.  MAXCYC=100  $END                                         
 INPUT CARD>-----------------                                                               
 INPUT CARD> TOTAL NUMBER OF BASIS SET SHELLS             =  108                            
 INPUT CARD> NUMBER OF CARTESIAN GAUSSIAN BASIS FUNCTIONS =  289                            
 INPUT CARD> NUMBER OF ELECTRONS                          =   92                            
 INPUT CARD> NUMBER OF OCCUPIED ORBITALS (ALPHA)          =   46                            
 INPUT CARD> NUMBER OF OCCUPIED ORBITALS (BETA )          =   46                            
 INPUT CARD> TOTAL NUMBER OF ATOMS                        =   29                            
 INPUT CARD>-----------                                                                     
 INPUT CARD>Nstep=   40  Energy =     -732.9768208392  gRMS =   0.0000299                   
 INPUT CARD>----- RESULTS FROM SUCCESSFUL RHF      GEOMETRY SEARCH -----                    
 INPUT CARD> $DATA                                                                          
 INPUT CARD>Reactant...                                                                     
 INPUT CARD>C1                                                                              
 INPUT CARD>C           6.0  -8.0450217488   1.8930746648  -1.9895909872                    
 INPUT CARD>C           6.0  -7.2654445246   2.8390679718  -1.0820448450                    
 INPUT CARD>H           1.0  -8.9618449126   1.5533221616  -1.5043026047                    
 INPUT CARD>H           1.0  -7.4535040506   1.0126973886  -2.2406726415                    
 INPUT CARD>H           1.0  -8.3234349768   2.3859416130  -2.9224755066                    
 INPUT CARD>H           1.0  -6.9681957481   2.3239658073  -0.1669035875                    
 INPUT CARD>C           6.0  -8.0679264419   4.0767284164  -0.7073900275                    
 INPUT CARD>H           1.0  -6.3427808516   3.1539591337  -1.5753210377                    
 INPUT CARD>H           1.0  -8.9681487156   3.7755765863  -0.1645647945                    
 INPUT CARD>H           1.0  -8.4008466643   4.5756241500  -1.6281379864                    
 INPUT CARD>N           7.0  -7.2796688503   4.9539559859   0.1710137352                    
 INPUT CARD>H           1.0  -6.4738723568   5.3053516007  -0.3450318451                    
 INPUT CARD>H           1.0  -7.8344453194   5.7650455388   0.4305028907                    
 INPUT CARD>O           8.0  -4.3479130602   3.3603179778   0.8022157998                    
 INPUT CARD>C           6.0  -4.9438870108   3.7297372816   1.8219889570                    
 INPUT CARD>C           6.0  -5.7876175956   2.7727726110   2.6165180973                    
 INPUT CARD>C           6.0  -4.8338504848   5.1391904306   2.3400041178                    
 INPUT CARD>H           1.0  -4.1166054931   5.1474586409   3.1648880549                    
 INPUT CARD>H           1.0  -5.7953725255   5.4769222181   2.7219251010                    
 INPUT CARD>H           1.0  -4.4857771516   5.8060658290   1.5557221336                    
 INPUT CARD>H           1.0  -5.6212019194   1.7534436106   2.2780869463                    
 INPUT CARD>H           1.0  -6.8316389297   3.0507503755   2.4615434456                    
 INPUT CARD>H           1.0  -5.5706518859   2.8597745904   3.6820290722                    
 INPUT CARD>SI         14.0  -3.5635048460   5.5093849012  -2.5131362050                    
 INPUT CARD>O           8.0  -4.4470996166   5.3390617559  -1.0967205675                    
 INPUT CARD>H           1.0  -3.6718830340   4.3090379629  -3.3722683640                    
 INPUT CARD>H           1.0  -2.1300170918   5.7531497119  -2.2381367051                    
 INPUT CARD>H           1.0  -4.1410818785   6.6725632878  -3.2102898165                    
 INPUT CARD>H           1.0  -4.2121879048   4.6040637560  -0.4928606895                    
 INPUT CARD> $END                                                                           
 2000000000 WORDS OF MEMORY AVAILABLE

     BASIS OPTIONS
     -------------
     GBASIS=N31          IGAUSS=       6      POLAR=POPN31  
     NDFUNC=       1     NFFUNC=       0     DIFFSP=       T
     NPFUNC=       1      DIFFS=       F     BASNAM=        


     RUN TITLE
     ---------
 Reactant...                                                                     

 THE POINT GROUP OF THE MOLECULE IS C1      
 THE ORDER OF THE PRINCIPAL AXIS IS     0

 ATOM      ATOMIC                      COORDINATES (BOHR)
           CHARGE         X                   Y                   Z
 C           6.0   -15.2028866705        3.5773923908       -3.7597817934
 C           6.0   -13.7296993305        5.3650605272       -2.0447682635
 H           1.0   -16.9354312293        2.9353532561       -2.8427197255
 H           1.0   -14.0850803040        1.9137205729       -4.2342573206
 H           1.0   -15.7290113828        4.5087758713       -5.5226779133
 H           1.0   -13.1679805927        4.3916585806       -0.3154020467
 C           6.0   -15.2461702643        7.7038996334       -1.3367733184
 H           1.0   -11.9861178097        5.9601185392       -2.9769251039
 H           1.0   -16.9473436896        7.1348051938       -0.3109823688
 H           1.0   -15.8752982604        8.6466758663       -3.0767346645
 N           7.0   -13.7565794084        9.3616193686        0.3231690997
 H           1.0   -12.2338448338       10.0256607938       -0.6520156443
 H           1.0   -14.8049549195       10.8943563751        0.8135325003
 O           8.0    -8.2163643022        6.3500802097        1.5159680446
 C           6.0    -9.3425917647        7.0481814684        3.4430598814
 C           6.0   -10.9370113774        5.2397804611        4.9445022458
 C           6.0    -9.1346528819        9.7116617126        4.4219665928
 H           1.0    -7.7792563815        9.7272863644        5.9807712056
 H           1.0   -10.9516660700       10.3498822483        5.1436926000
 H           1.0    -8.4768896585       10.9718734835        2.9398885455
 H           1.0   -10.6225313493        3.3135279590        4.3049601047
 H           1.0   -12.9099256242        5.7650822666        4.6516426191
 H           1.0   -10.5270056373        5.4041903625        6.9580260253
 SI         14.0    -6.7340477149       10.4112278242       -4.7491387973
 O           8.0    -8.4037997155       10.0893637502       -2.0725013577
 H           1.0    -6.9388527932        8.1429010206       -6.3726631650
 H           1.0    -4.0251486527       10.8718765218       -4.2294650957
 H           1.0    -7.8255100431       12.6093162497       -6.0665680944
 H           1.0    -7.9598809489        8.7004189288       -0.9313716533

          INTERNUCLEAR DISTANCES (ANGS.)
          ------------------------------

                1 C          2 C          3 H          4 H          5 H     

   1 C       0.0000000    1.5252160 *  1.0915591 *  1.0899538 *  1.0911944 *
   2 C       1.5252160 *  0.0000000    2.1700733 *  2.1710399 *  2.1706802 *
   3 H       1.0915591 *  2.1700733 *  0.0000000    1.7634081 *  1.7640966 *
   4 H       1.0899538 *  2.1710399 *  1.7634081 *  0.0000000    1.7627917 *
   5 H       1.0911944 *  2.1706802 *  1.7640966 *  1.7627917 *  0.0000000  
   6 H       2.1604191 *  1.0914076 *  2.5213419 *  2.5010932 *  3.0714314  
   7 C       2.5323719 *  1.5218892 *  2.7931593 *  3.4809132    2.7983296 *
   8 H       2.1584887 *  1.0926052 *  3.0702734    2.5022791 *  2.5154854 *
   9 H       2.7796938 *  2.1489578 *  2.5948703 *  3.7733107    3.1548079  
  10 H       2.7300790 *  2.1454564 *  3.0764206    3.7372589    2.5448009 *
  11 N       3.8239995    2.4582737 *  4.1473741    4.6238479    4.1537719  
  12 H       4.1008193    2.6930150 *  4.6488322    4.7937472    4.3112704  
  13 H       4.5709250    3.3425899    4.7700226    5.4648978    4.7853859  
  14 O       4.8595885    3.5119979    5.4656773    4.9411727    5.5342126  
  15 C       5.2458086    3.8231314    5.6519894    5.4941517    5.9780494  
  16 C       5.2044196    3.9834326    5.3426531    5.4281990    6.1041345  
  17 C       6.2923988    4.7868186    6.6841217    6.6987409    6.8884883  
  18 H       7.2520427    5.7689075    7.6285977    7.5796589    7.8980622  
  19 H       6.3327142    4.8569099    6.5789198    6.8779415    6.9140812  
  20 H       6.3678071    4.8463844    6.8909189    6.7967932    6.8175598  
  21 H       4.9099363    3.8952021    5.0503876    4.9320609    5.8947406  
  22 H       4.7565858    3.5763130    4.7442601    5.1624812    5.6262853  
  23 H       6.2629298    5.0565948    6.3328544    6.4834576    7.1709004  
  24 SI      5.7823692    4.7836150    6.7683272    5.9520189    5.7079236  
  25 O       5.0613327    3.7673933    5.9060031    5.3911523    5.2038712  
  26 H       5.1839191    4.5077289    6.2503570    5.1426674    5.0534690  
  27 H       7.0674772    6.0167297    8.0530078    7.1282121    7.0827138  
  28 H       6.2908158    5.3839349    7.2357984    6.6292066    5.9958352  
  29 H       4.9275023    3.5755733    5.7349177    5.1438205    5.2654958  

                6 H          7 C          8 H          9 H         10 H     

   1 C       2.1604191 *  2.5323719 *  2.1584887 *  2.7796938 *  2.7300790 *
   2 C       1.0914076 *  1.5218892 *  1.0926052 *  2.1489578 *  2.1454564 *
   3 H       2.5213419 *  2.7931593 *  3.0702734    2.5948703 *  3.0764206  
   4 H       2.5010932 *  3.4809132    2.5022791 *  3.7733107    3.7372589  
   5 H       3.0714314    2.7983296 *  2.5154854 *  3.1548079    2.5448009 *
   6 H       0.0000000    2.1386234 *  1.7503349 *  2.4712327 *  3.0426403  
   7 C       2.1386234 *  0.0000000    2.1403118 *  1.0935044 *  1.0988674 *
   8 H       1.7503349 *  2.1403118 *  0.0000000    3.0445357    2.5019105 *
   9 H       2.4712327 *  1.0935044 *  3.0445357    0.0000000    1.7618042 *
  10 H       3.0426403    1.0988674 *  2.5019105 *  1.7618042 *  0.0000000  
  11 N       2.6698412 *  1.4705344 *  2.6772062 *  2.0861820 *  2.1533977 *
  12 H       3.0273332    2.0449515 *  2.4817909 *  2.9315857 *  2.4273635 *
  13 H       3.5983764    2.0493239 *  3.6147150    2.3658774 *  2.4440818 *
  14 O       2.9797818 *  4.0780698    3.1104281    4.7385316    4.8795348  
  15 C       3.1669722    4.0345735    3.7188896    4.4881153    4.9567601  
  16 C       3.0565714    4.2365640    4.2455889    4.3423284    5.3005986  
  17 C       4.3319171    4.5688821    4.6419592    5.0224227    5.3653724  
  18 H       5.2157947    5.6350633    5.6035238    6.0419193    6.4540542  
  19 H       4.4341831    4.3457158    4.9154997    4.6144241    5.1501342  
  20 H       4.6102996    4.5764700    4.5039498    5.2128618    5.1941045  
  21 H       2.8491870 *  4.5052398    4.1630365    4.6105989    5.5632474  
  22 H       2.7304940 *  3.5529111    4.0676663    3.4621513    4.6382267  
  23 H       4.1297097    5.1946469    5.3218848    5.2132487    6.2571572  
  24 SI      5.2195424    5.0599444    3.7619015    6.1426423    5.0054977  
  25 O       4.0387237    3.8542769    2.9321220 *  4.8737342    4.0616939  
  26 H       5.0080488    5.1459442    3.4200763    6.2148510    5.0473910  
  27 H       6.2815031    6.3570702    4.9942462    7.4142120    6.4095217  
  28 H       6.0137403    5.3313201    4.4610735    6.4007458    5.0045933  
  29 H       3.5917508    3.8975409    2.7953444 *  4.8387325    4.3398762  

               11 N         12 H         13 H         14 O         15 C     

   1 C       3.8239995    4.1008193    4.5709250    4.8595885    5.2458086  
   2 C       2.4582737 *  2.6930150 *  3.3425899    3.5119979    3.8231314  
   3 H       4.1473741    4.6488322    4.7700226    5.4656773    5.6519894  
   4 H       4.6238479    4.7937472    5.4648978    4.9411727    5.4941517  
   5 H       4.1537719    4.3112704    4.7853859    5.5342126    5.9780494  
   6 H       2.6698412 *  3.0273332    3.5983764    2.9797818 *  3.1669722  
   7 C       1.4705344 *  2.0449515 *  2.0493239 *  4.0780698    4.0345735  
   8 H       2.6772062 *  2.4817909 *  3.6147150    3.1104281    3.7188896  
   9 H       2.0861820 *  2.9315857 *  2.3658774 *  4.7385316    4.4881153  
  10 H       2.1533977 *  2.4273635 *  2.4440818 *  4.8795348    4.9567601  
  11 N       0.0000000    1.0193576 *  1.0163552 *  3.3960698    3.1113192  
  12 H       1.0193576 *  0.0000000    1.6321555 *  3.1014571    3.0853516  
  13 H       1.0163552 *  1.6321555 *  0.0000000    4.2516811    3.7992158  
  14 O       3.3960698    3.1014571    4.2516811    0.0000000    1.2375754 *
  15 C       3.1113192    3.0853516    3.7992158    1.2375754 *  0.0000000  
  16 C       3.6005929    3.9567259    4.2334222    2.3894877 *  1.5029768 *
  17 C       3.2742722    3.1506665    3.6112960    2.4011071 *  1.5056580 *
  18 H       4.3595523    4.2309780    4.6562441    2.9714635 *  2.1207797 *
  19 H       2.9972951 *  3.1457946    3.0808195    3.2031916    2.1418608 *
  20 H       3.2325438    2.7957294 *  3.5328996    2.5629009 *  2.1428726 *
  21 H       4.1753502    4.4970934    4.9401380    2.5261642 *  2.1383446 *
  22 H       3.0115525    3.6177463    3.5352715    3.0030142    2.1056259 *
  23 H       4.4309777    4.7972777    4.9130217    3.1684315    2.1469556 *
  24 SI      4.6176874    3.6349065    5.1933906    4.0280695    4.8852749  
  25 O       3.1271241    2.1619390 *  3.7400514    2.7443076 *  3.3698054  
  26 H       5.0977334    4.2435770    5.8230535    4.3339825    5.3790234  
  27 H       5.7412220    4.7595638    6.2977996    4.4596468    5.3382284  
  28 H       4.9231649    3.9396551    5.2649685    5.2071057    5.8846028  
  29 H       3.1579413    2.3725249 *  3.9142340    1.8007076 *  2.5803797 *

               16 C         17 C         18 H         19 H         20 H     

   1 C       5.2044196    6.2923988    7.2520427    6.3327142    6.3678071  
   2 C       3.9834326    4.7868186    5.7689075    4.8569099    4.8463844  
   3 H       5.3426531    6.6841217    7.6285977    6.5789198    6.8909189  
   4 H       5.4281990    6.6987409    7.5796589    6.8779415    6.7967932  
   5 H       6.1041345    6.8884883    7.8980622    6.9140812    6.8175598  
   6 H       3.0565714    4.3319171    5.2157947    4.4341831    4.6102996  
   7 C       4.2365640    4.5688821    5.6350633    4.3457158    4.5764700  
   8 H       4.2455889    4.6419592    5.6035238    4.9154997    4.5039498  
   9 H       4.3423284    5.0224227    6.0419193    4.6144241    5.2128618  
  10 H       5.3005986    5.3653724    6.4540542    5.1501342    5.1941045  
  11 N       3.6005929    3.2742722    4.3595523    2.9972951 *  3.2325438  
  12 H       3.9567259    3.1506665    4.2309780    3.1457946    2.7957294 *
  13 H       4.2334222    3.6112960    4.6562441    3.0808195    3.5328996  
  14 O       2.3894877 *  2.4011071 *  2.9714635 *  3.2031916    2.5629009 *
  15 C       1.5029768 *  1.5056580 *  2.1207797 *  2.1418608 *  2.1428726 *
  16 C       0.0000000    2.5663330 *  2.9550169 *  2.7062143 *  3.4671234  
  17 C       2.5663330 *  0.0000000    1.0931341 *  1.0883249 *  1.0867272 *
  18 H       2.9550169 *  1.0931341 *  0.0000000    1.7672072 *  1.7774887 *
  19 H       2.7062143 *  1.0883249 *  1.7672072 *  0.0000000    1.7842099 *
  20 H       3.4671234    1.0867272 *  1.7774887 *  1.7842099 *  0.0000000  
  21 H       1.0868585 *  3.4766417    3.8170099    3.7538807    4.2702163  
  22 H       1.0914529 *  2.8926653 *  3.5017547    2.6510293 *  3.7303275  
  23 H       1.0908515 *  2.7458412 *  2.7595623 *  2.7967411 *  3.7919344  
  24 SI      6.2248757    5.0302876    5.7163686    5.6910591    4.1826085  
  25 O       4.7086059    3.4641884    4.2786968    4.0520242    2.6935183 *
  26 H       6.5346773    5.8880709    6.6056901    6.5583805    5.2142695  
  27 H       6.7696649    5.3522924    5.7884429    6.1736007    4.4660688  
  28 H       7.2021620    5.7997348    6.5551076    6.2735484    4.8563878  
  29 H       3.9374919    2.9492284 *  3.6991269    3.6882520    2.3908893 *

               21 H         22 H         23 H         24 SI        25 O     

   1 C       4.9099363    4.7565858    6.2629298    5.7823692    5.0613327  
   2 C       3.8952021    3.5763130    5.0565948    4.7836150    3.7673933  
   3 H       5.0503876    4.7442601    6.3328544    6.7683272    5.9060031  
   4 H       4.9320609    5.1624812    6.4834576    5.9520189    5.3911523  
   5 H       5.8947406    5.6262853    7.1709004    5.7079236    5.2038712  
   6 H       2.8491870 *  2.7304940 *  4.1297097    5.2195424    4.0387237  
   7 C       4.5052398    3.5529111    5.1946469    5.0599444    3.8542769  
   8 H       4.1630365    4.0676663    5.3218848    3.7619015    2.9321220 *
   9 H       4.6105989    3.4621513    5.2132487    6.1426423    4.8737342  
  10 H       5.5632474    4.6382267    6.2571572    5.0054977    4.0616939  
  11 N       4.1753502    3.0115525    4.4309777    4.6176874    3.1271241  
  12 H       4.4970934    3.6177463    4.7972777    3.6349065    2.1619390 *
  13 H       4.9401380    3.5352715    4.9130217    5.1933906    3.7400514  
  14 O       2.5261642 *  3.0030142    3.1684315    4.0280695    2.7443076 *
  15 C       2.1383446 *  2.1056259 *  2.1469556 *  4.8852749    3.3698054  
  16 C       1.0868585 *  1.0914529 *  1.0908515 *  6.2248757    4.7086059  
  17 C       3.4766417    2.8926653 *  2.7458412 *  5.0302876    3.4641884  
  18 H       3.8170099    3.5017547    2.7595623 *  5.7163686    4.2786968  
  19 H       3.7538807    2.6510293 *  2.7967411 *  5.6910591    4.0520242  
  20 H       4.2702163    3.7303275    3.7919344    4.1826085    2.6935183 *
  21 H       0.0000000    1.7837654 *  1.7881770 *  6.4262766    5.0620647  
  22 H       1.7837654 *  0.0000000    1.7652607 *  6.4399551    4.8562990  
  23 H       1.7881770 *  1.7652607 *  0.0000000    7.0305865    5.4996075  
  24 SI      6.4262766    6.4399551    7.0305865    0.0000000    1.6780891 *
  25 O       5.0620647    4.8562990    5.4996075    1.6780891 *  0.0000000  
  26 H       6.5005709    6.7528294    7.4477379    1.4800968 *  2.6153446 *
  27 H       6.9701002    7.1760159    7.4335691    1.4798423 *  2.6159455 *
  28 H       7.5173648    7.2475043    8.0053162    1.4739750 *  2.5177466 *
  29 H       4.2177608    4.2429718    4.7241585    2.3069264 *  0.9798226 *

               26 H         27 H         28 H         29 H     

   1 C       5.1839191    7.0674772    6.2908158    4.9275023  
   2 C       4.5077289    6.0167297    5.3839349    3.5755733  
   3 H       6.2503570    8.0530078    7.2357984    5.7349177  
   4 H       5.1426674    7.1282121    6.6292066    5.1438205  
   5 H       5.0534690    7.0827138    5.9958352    5.2654958  
   6 H       5.0080488    6.2815031    6.0137403    3.5917508  
   7 C       5.1459442    6.3570702    5.3313201    3.8975409  
   8 H       3.4200763    4.9942462    4.4610735    2.7953444 *
   9 H       6.2148510    7.4142120    6.4007458    4.8387325  
  10 H       5.0473910    6.4095217    5.0045933    4.3398762  
  11 N       5.0977334    5.7412220    4.9231649    3.1579413  
  12 H       4.2435770    4.7595638    3.9396551    2.3725249 *
  13 H       5.8230535    6.2977996    5.2649685    3.9142340  
  14 O       4.3339825    4.4596468    5.2071057    1.8007076 *
  15 C       5.3790234    5.3382284    5.8846028    2.5803797 *
  16 C       6.5346773    6.7696649    7.2021620    3.9374919  
  17 C       5.8880709    5.3522924    5.7997348    2.9492284 *
  18 H       6.6056901    5.7884429    6.5551076    3.6991269  
  19 H       6.5583805    6.1736007    6.2735484    3.6882520  
  20 H       5.2142695    4.4660688    4.8563878    2.3908893 *
  21 H       6.5005709    6.9701002    7.5173648    4.2177608  
  22 H       6.7528294    7.1760159    7.2475043    4.2429718  
  23 H       7.4477379    7.4335691    8.0053162    4.7241585  
  24 SI      1.4800968 *  1.4798423 *  1.4739750 *  2.3069264 *
  25 O       2.6153446 *  2.6159455 *  2.5177466 *  0.9798226 *
  26 H       0.0000000    2.3977206 *  2.4150852 *  2.9444793 *
  27 H       2.3977206 *  0.0000000    2.4155299 *  2.9498851 *
  28 H       2.4150852 *  2.4155299 *  0.0000000    3.4158699  
  29 H       2.9444793 *  2.9498851 *  3.4158699    0.0000000  

  * ... LESS THAN  3.000


     ATOMIC BASIS SET
     ----------------
 THE CONTRACTED PRIMITIVE FUNCTIONS HAVE BEEN UNNORMALIZED
 THE CONTRACTED BASIS FUNCTIONS ARE NOW NORMALIZED TO UNITY

  SHELL TYPE  PRIMITIVE        EXPONENT          CONTRACTION COEFFICIENT(S)

 C         

      1   S       1          3047.5248800    0.001834737132
      1   S       2           457.3695180    0.014037322813
      1   S       3           103.9486850    0.068842622264
      1   S       4            29.2101553    0.232184443216
      1   S       5             9.2866630    0.467941348435
      1   S       6             3.1639270    0.362311985337

      2   L       7             7.8682723   -0.119332419775    0.068999066591
      2   L       8             1.8812885   -0.160854151696    0.316423960957
      2   L       9             0.5442493    1.143456437840    0.744308290898

      3   L      10             0.1687145    1.000000000000    1.000000000000

      4   L      11             0.0438000    1.000000000000    1.000000000000

      5   D      12             0.8000000    1.000000000000

 C         

      6   S      13          3047.5248800    0.001834737132
      6   S      14           457.3695180    0.014037322813
      6   S      15           103.9486850    0.068842622264
      6   S      16            29.2101553    0.232184443216
      6   S      17             9.2866630    0.467941348435
      6   S      18             3.1639270    0.362311985337

      7   L      19             7.8682723   -0.119332419775    0.068999066591
      7   L      20             1.8812885   -0.160854151696    0.316423960957
      7   L      21             0.5442493    1.143456437840    0.744308290898

      8   L      22             0.1687145    1.000000000000    1.000000000000

      9   L      23             0.0438000    1.000000000000    1.000000000000

     10   D      24             0.8000000    1.000000000000

 H         

     11   S      25            18.7311370    0.033494604338
     11   S      26             2.8253944    0.234726953484
     11   S      27             0.6401217    0.813757326146

     12   S      28             0.1612778    1.000000000000

     13   P      29             1.1000000    1.000000000000

 H         

     14   S      30            18.7311370    0.033494604338
     14   S      31             2.8253944    0.234726953484
     14   S      32             0.6401217    0.813757326146

     15   S      33             0.1612778    1.000000000000

     16   P      34             1.1000000    1.000000000000

 H         

     17   S      35            18.7311370    0.033494604338
     17   S      36             2.8253944    0.234726953484
     17   S      37             0.6401217    0.813757326146

     18   S      38             0.1612778    1.000000000000

     19   P      39             1.1000000    1.000000000000

 H         

     20   S      40            18.7311370    0.033494604338
     20   S      41             2.8253944    0.234726953484
     20   S      42             0.6401217    0.813757326146

     21   S      43             0.1612778    1.000000000000

     22   P      44             1.1000000    1.000000000000

 C         

     23   S      45          3047.5248800    0.001834737132
     23   S      46           457.3695180    0.014037322813
     23   S      47           103.9486850    0.068842622264
     23   S      48            29.2101553    0.232184443216
     23   S      49             9.2866630    0.467941348435
     23   S      50             3.1639270    0.362311985337

     24   L      51             7.8682723   -0.119332419775    0.068999066591
     24   L      52             1.8812885   -0.160854151696    0.316423960957
     24   L      53             0.5442493    1.143456437840    0.744308290898

     25   L      54             0.1687145    1.000000000000    1.000000000000

     26   L      55             0.0438000    1.000000000000    1.000000000000

     27   D      56             0.8000000    1.000000000000

 H         

     28   S      57            18.7311370    0.033494604338
     28   S      58             2.8253944    0.234726953484
     28   S      59             0.6401217    0.813757326146

     29   S      60             0.1612778    1.000000000000

     30   P      61             1.1000000    1.000000000000

 H         

     31   S      62            18.7311370    0.033494604338
     31   S      63             2.8253944    0.234726953484
     31   S      64             0.6401217    0.813757326146

     32   S      65             0.1612778    1.000000000000

     33   P      66             1.1000000    1.000000000000

 H         

     34   S      67            18.7311370    0.033494604338
     34   S      68             2.8253944    0.234726953484
     34   S      69             0.6401217    0.813757326146

     35   S      70             0.1612778    1.000000000000

     36   P      71             1.1000000    1.000000000000

 N         

     37   S      72          4173.5114600    0.001834772160
     37   S      73           627.4579110    0.013994627002
     37   S      74           142.9020930    0.068586551812
     37   S      75            40.2343293    0.232240873040
     37   S      76            12.8202129    0.469069948082
     37   S      77             4.3904370    0.360455199063

     38   L      78            11.6263619   -0.114961181702    0.067579743878
     38   L      79             2.7162798   -0.169117478561    0.323907295893
     38   L      80             0.7722184    1.145851947027    0.740895139755

     39   L      81             0.2120315    1.000000000000    1.000000000000

     40   L      82             0.0639000    1.000000000000    1.000000000000

     41   D      83             0.8000000    1.000000000000

 H         

     42   S      84            18.7311370    0.033494604338
     42   S      85             2.8253944    0.234726953484
     42   S      86             0.6401217    0.813757326146

     43   S      87             0.1612778    1.000000000000

     44   P      88             1.1000000    1.000000000000

 H         

     45   S      89            18.7311370    0.033494604338
     45   S      90             2.8253944    0.234726953484
     45   S      91             0.6401217    0.813757326146

     46   S      92             0.1612778    1.000000000000

     47   P      93             1.1000000    1.000000000000

 O         

     48   S      94          5484.6716600    0.001831074430
     48   S      95           825.2349460    0.013950172200
     48   S      96           188.0469580    0.068445078098
     48   S      97            52.9645000    0.232714335992
     48   S      98            16.8975704    0.470192897984
     48   S      99             5.7996353    0.358520852987

     49   L     100            15.5396162   -0.110777549525    0.070874268231
     49   L     101             3.5999336   -0.148026262701    0.339752839147
     49   L     102             1.0137618    1.130767015354    0.727158577316

     50   L     103             0.2700058    1.000000000000    1.000000000000

     51   L     104             0.0845000    1.000000000000    1.000000000000

     52   D     105             0.8000000    1.000000000000

 C         

     53   S     106          3047.5248800    0.001834737132
     53   S     107           457.3695180    0.014037322813
     53   S     108           103.9486850    0.068842622264
     53   S     109            29.2101553    0.232184443216
     53   S     110             9.2866630    0.467941348435
     53   S     111             3.1639270    0.362311985337

     54   L     112             7.8682723   -0.119332419775    0.068999066591
     54   L     113             1.8812885   -0.160854151696    0.316423960957
     54   L     114             0.5442493    1.143456437840    0.744308290898

     55   L     115             0.1687145    1.000000000000    1.000000000000

     56   L     116             0.0438000    1.000000000000    1.000000000000

     57   D     117             0.8000000    1.000000000000

 C         

     58   S     118          3047.5248800    0.001834737132
     58   S     119           457.3695180    0.014037322813
     58   S     120           103.9486850    0.068842622264
     58   S     121            29.2101553    0.232184443216
     58   S     122             9.2866630    0.467941348435
     58   S     123             3.1639270    0.362311985337

     59   L     124             7.8682723   -0.119332419775    0.068999066591
     59   L     125             1.8812885   -0.160854151696    0.316423960957
     59   L     126             0.5442493    1.143456437840    0.744308290898

     60   L     127             0.1687145    1.000000000000    1.000000000000

     61   L     128             0.0438000    1.000000000000    1.000000000000

     62   D     129             0.8000000    1.000000000000

 C         

     63   S     130          3047.5248800    0.001834737132
     63   S     131           457.3695180    0.014037322813
     63   S     132           103.9486850    0.068842622264
     63   S     133            29.2101553    0.232184443216
     63   S     134             9.2866630    0.467941348435
     63   S     135             3.1639270    0.362311985337

     64   L     136             7.8682723   -0.119332419775    0.068999066591
     64   L     137             1.8812885   -0.160854151696    0.316423960957
     64   L     138             0.5442493    1.143456437840    0.744308290898

     65   L     139             0.1687145    1.000000000000    1.000000000000

     66   L     140             0.0438000    1.000000000000    1.000000000000

     67   D     141             0.8000000    1.000000000000

 H         

     68   S     142            18.7311370    0.033494604338
     68   S     143             2.8253944    0.234726953484
     68   S     144             0.6401217    0.813757326146

     69   S     145             0.1612778    1.000000000000

     70   P     146             1.1000000    1.000000000000

 H         

     71   S     147            18.7311370    0.033494604338
     71   S     148             2.8253944    0.234726953484
     71   S     149             0.6401217    0.813757326146

     72   S     150             0.1612778    1.000000000000

     73   P     151             1.1000000    1.000000000000

 H         

     74   S     152            18.7311370    0.033494604338
     74   S     153             2.8253944    0.234726953484
     74   S     154             0.6401217    0.813757326146

     75   S     155             0.1612778    1.000000000000

     76   P     156             1.1000000    1.000000000000

 H         

     77   S     157            18.7311370    0.033494604338
     77   S     158             2.8253944    0.234726953484
     77   S     159             0.6401217    0.813757326146

     78   S     160             0.1612778    1.000000000000

     79   P     161             1.1000000    1.000000000000

 H         

     80   S     162            18.7311370    0.033494604338
     80   S     163             2.8253944    0.234726953484
     80   S     164             0.6401217    0.813757326146

     81   S     165             0.1612778    1.000000000000

     82   P     166             1.1000000    1.000000000000

 H         

     83   S     167            18.7311370    0.033494604338
     83   S     168             2.8253944    0.234726953484
     83   S     169             0.6401217    0.813757326146

     84   S     170             0.1612778    1.000000000000

     85   P     171             1.1000000    1.000000000000

 SI        

     86   S     172         16192.1000000    0.001949239405
     86   S     173          2436.0900000    0.014855895466
     86   S     174           556.0010000    0.072568877851
     86   S     175           156.8130000    0.245654925022
     86   S     176            50.1692000    0.486059851646
     86   S     177            17.0300000    0.325719900585

     87   L     178           293.3500000   -0.002829912441    0.004433341604
     87   L     179            70.1173000   -0.036073731114    0.032440211739
     87   L     180            22.4301000   -0.116808100749    0.133719048387
     87   L     181             8.1942500    0.093576880711    0.326780118247
     87   L     182             3.1476800    0.601705518979    0.451139163247
     87   L     183             1.2151500    0.422072364043    0.264105095568

     88   L     184             1.6537000   -0.240599186106   -0.015177406538
     88   L     185             0.5407600    0.073795050368    0.275139118516
     88   L     186             0.2044060    1.040936478740    0.783008337279

     89   L     187             0.0723837    1.000000000000    1.000000000000

     90   L     188             0.0331000    1.000000000000    1.000000000000

     91   D     189             0.3950000    1.000000000000

 O         

     92   S     190          5484.6716600    0.001831074430
     92   S     191           825.2349460    0.013950172200
     92   S     192           188.0469580    0.068445078098
     92   S     193            52.9645000    0.232714335992
     92   S     194            16.8975704    0.470192897984
     92   S     195             5.7996353    0.358520852987

     93   L     196            15.5396162   -0.110777549525    0.070874268231
     93   L     197             3.5999336   -0.148026262701    0.339752839147
     93   L     198             1.0137618    1.130767015354    0.727158577316

     94   L     199             0.2700058    1.000000000000    1.000000000000

     95   L     200             0.0845000    1.000000000000    1.000000000000

     96   D     201             0.8000000    1.000000000000

 H         

     97   S     202            18.7311370    0.033494604338
     97   S     203             2.8253944    0.234726953484
     97   S     204             0.6401217    0.813757326146

     98   S     205             0.1612778    1.000000000000

     99   P     206             1.1000000    1.000000000000

 H         

    100   S     207            18.7311370    0.033494604338
    100   S     208             2.8253944    0.234726953484
    100   S     209             0.6401217    0.813757326146

    101   S     210             0.1612778    1.000000000000

    102   P     211             1.1000000    1.000000000000

 H         

    103   S     212            18.7311370    0.033494604338
    103   S     213             2.8253944    0.234726953484
    103   S     214             0.6401217    0.813757326146

    104   S     215             0.1612778    1.000000000000

    105   P     216             1.1000000    1.000000000000

 H         

    106   S     217            18.7311370    0.033494604338
    106   S     218             2.8253944    0.234726953484
    106   S     219             0.6401217    0.813757326146

    107   S     220             0.1612778    1.000000000000

    108   P     221             1.1000000    1.000000000000

 TOTAL NUMBER OF BASIS SET SHELLS             =  108
 NUMBER OF CARTESIAN GAUSSIAN BASIS FUNCTIONS =  289
 NUMBER OF ELECTRONS                          =   92
 CHARGE OF MOLECULE                           =    0
 SPIN MULTIPLICITY                            =    1
 NUMBER OF OCCUPIED ORBITALS (ALPHA)          =   46
 NUMBER OF OCCUPIED ORBITALS (BETA )          =   46
 TOTAL NUMBER OF ATOMS                        =   29
 THE NUCLEAR REPULSION ENERGY IS      655.6810406007

     $CONTRL OPTIONS
     ---------------
 SCFTYP=RHF          RUNTYP=NEBPATH      EXETYP=RUN     
 MPLEVL=       2     CITYP =NONE         CCTYP =NONE         VBTYP =NONE    
 DFTTYP=NONE         TDDFT =NONE    
 MULT  =       1     ICHARG=       0     NZVAR =       0     COORD =UNIQUE  
 PP    =NONE         RELWFN=NONE         LOCAL =NONE         NUMGRD=       F
 ISPHER=      -1     NOSYM =       0     MAXIT =      50     UNITS =ANGS    
 PLTORB=       F     MOLPLT=       F     AIMPAC=       F     FRIEND=        
 NPRINT=       7     IREST =       0     GEOM  =INPUT   
 NORMF =       0     NORMP =       0     ITOL  =      20     ICUT  =       9
 INTTYP=BEST         GRDTYP=BEST         QMTTOL= 1.0E-06

     $SYSTEM OPTIONS
     ---------------
  REPLICATED MEMORY=  2000000000 WORDS (ON EVERY NODE).
 DISTRIBUTED MEMDDI=         500 MILLION WORDS IN AGGREGATE,
 MEMDDI DISTRIBUTED OVER  36 PROCESSORS IS    13888888 WORDS/PROCESSOR.
 TOTAL MEMORY REQUESTED ON EACH PROCESSOR=  2013888888 WORDS.
 TIMLIM=      525600.00 MINUTES, OR     365.0 DAYS.
 PARALL= T  BALTYP=  DLB     KDIAG=    0  COREFL= F
 MXSEQ2=     300 MXSEQ3=     150  mem10=         0

          ----------------
          PROPERTIES INPUT
          ----------------

     MOMENTS            FIELD           POTENTIAL          DENSITY
 IEMOM =       1   IEFLD =       0   IEPOT =       0   IEDEN =       0
 WHERE =COMASS     WHERE =NUCLEI     WHERE =NUCLEI     WHERE =NUCLEI  
 OUTPUT=BOTH       OUTPUT=BOTH       OUTPUT=BOTH       OUTPUT=BOTH    
 IEMINT=       0   IEFINT=       0                     IEDINT=       0
                                                       MORB  =       0
          EXTRAPOLATION IN EFFECT
          SOSCF IN EFFECT
 ORBITAL PRINTING OPTION: NPREO=     1   289     2     1

     -------------------------------
     INTEGRAL TRANSFORMATION OPTIONS
     -------------------------------
     NWORD  =            0
     CUTOFF = 1.0E-09     MPTRAN =       0
     DIRTRF =       T     AOINTS =DUP     

          ----------------------
          INTEGRAL INPUT OPTIONS
          ----------------------
 NOPK  =       1 NORDER=       0 SCHWRZ=       T

          -----------------------
          MP2 CONTROL INFORMATION
          -----------------------
          NACORE =       14  NBCORE =       14
          LMOMP2 =        F  AOINTS = DUP     
          METHOD =        2  NWORD  =               0
          MP2PRP =        F  OSPT   = NONE    
          CUTOFF = 1.00E-09  CPHFBS = BASISAO 
          CODE   = DDI     

          NUMBER OF CORE -A-  ORBITALS =    14
          NUMBER OF CORE -B-  ORBITALS =    14
          NUMBER OF OCC. -A-  ORBITALS =    46
          NUMBER OF OCC. -B-  ORBITALS =    46
          NUMBER OF MOLECULAR ORBITALS =   289
          NUMBER OF   BASIS  FUNCTIONS =   289


     ------------------------------------------
     THE POINT GROUP IS C1 , NAXIS= 0, ORDER= 1
     ------------------------------------------

     DIMENSIONS OF THE SYMMETRY SUBSPACES ARE
 A   =  289

 ..... DONE SETTING UP THE RUN .....
 CPU     0: STEP CPU TIME=     0.26 TOTAL CPU TIME=          0.3 (      0.0 MIN)
 TOTAL WALL CLOCK TIME=          0.4 SECONDS, CPU UTILIZATION IS    63.41%

          ---------------------------------------
          Nudged Elastic Band / String Pathfinder
          ---------------------------------------
                                        Version 3
          implemented in March 2019
           by Nozomi Sawada, Mamoru Haruta, Toshio Asada, and Shiro Koseki,
          Osaka Prefecture University, Japan.
          Reference: Chem Phys Lett in progress.

     $NEB OPTIONS
     ------------
 Parallel computation                   (GOPARR) = T
 Output log level (1=minimum,9=maximum) (NPRINT) =        1
 Number of images                       (IMAGES) =       15
 Maximum cycle number                   (MAXCYC) =      100
 Method of path optimizing              (METHOD) = NEB     
 Tangent vector definition              (TANGNT) = ORIGINAL
 Unit for coordinates                   (UNTCRD) = ANGS    
 Unit for constants                     (UNTCNT) = ANGS    
 Generate initial guess MOs at first    (INIGSS) = T
 Generate initial guess MOs every time  (EVRGSS) = F
 Restart option                         (RESTRT) = F
 Number of the cycles                   (ISTART) =        0
 Caution for molecular orientation      (MORINT) = T
 Caution for molecular symmetry         (MOLSYM) = F
 Via-point structure                    (VIAPNT) = F
 Transition-state search                (TSLOCT) = F
 Optimizer                              (OPTMZR) = QUICKMIN
 Interpolation method for making images (INTERP) = IDPP    
 Coordinate fitting between images      (FITTNG) = ANGULAR 
 First end image condition              (FSTEND) = FIXED   
 Last end image condition               (LSTEND) = FIXED   
 Delta r for Climbing-end               (DELTAR) =    0.00000 [angs]
                                                 =    0.00000 [bohr]
 Dist change cycletime for climbing-end (SWCYCL) =        1
 Distance multiplier for optimizer      (DELTAT) =    0.01000 [angs/sqrt(kcal/mol)]
                                                 =    0.47338 [bohr/sqrt(hartree)]
 Spring force constant                  (SPFORC) =  500.00000 [kcal/mol/(angs^2)]
                                                 =    0.22313 [hartree/(bohr^2)]
 Tolerance for geometrical optimization (OPTTOL) =    5.00000 [kcal/mol/angs]
                                                 =    0.00422 [hartree/bohr]
 Tolerance MAX geometrical optimization (OPMTOL) =   10.00000 [kcal/mol/angs]
                                                 =    0.00843 [hartree/bohr]
 Tolerance for coordination displacement(CRDTOL) =    0.01000 [angs]
                                                 =    0.01890 [bohr]
 Tolerance MAX coordination displacement(CRMTOL) =    0.10000 [angs]
                                                 =    0.18897 [bohr]
 Coordinate fitting for initial path    (INIFIT) = RMS     
 IDPP interpolation optimize method     (IPMETH) = STRING  
 IDPP interpolation NEB/STR MAXCYC      (IPMXCY) =     3000
 IDPP interpolation NEB/STR DELTAT      (IPDLTT) =    0.10000
 IDPP interpolation NEB     SPFORC      (IPSPFC) =    0.01000
 IDPP interpolation NEB/STR OPTTOL      (IPOPTL) =    0.01000


--------------------------------- Checking the entered coordinates ---------------------------------
Coordinates of the reactant [angs]...
 C            6.0     -8.0450217488      1.8930746648     -1.9895909872
 C            6.0     -7.2654445246      2.8390679718     -1.0820448450
 H            1.0     -8.9618449126      1.5533221616     -1.5043026047
 H            1.0     -7.4535040506      1.0126973886     -2.2406726415
 H            1.0     -8.3234349768      2.3859416130     -2.9224755066
 H            1.0     -6.9681957481      2.3239658073     -0.1669035875
 C            6.0     -8.0679264419      4.0767284164     -0.7073900275
 H            1.0     -6.3427808516      3.1539591337     -1.5753210377
 H            1.0     -8.9681487156      3.7755765863     -0.1645647945
 H            1.0     -8.4008466643      4.5756241500     -1.6281379864
 N            7.0     -7.2796688503      4.9539559859      0.1710137352
 H            1.0     -6.4738723568      5.3053516007     -0.3450318451
 H            1.0     -7.8344453194      5.7650455388      0.4305028907
 O            8.0     -4.3479130602      3.3603179778      0.8022157998
 C            6.0     -4.9438870108      3.7297372816      1.8219889570
 C            6.0     -5.7876175956      2.7727726110      2.6165180973
 C            6.0     -4.8338504848      5.1391904306      2.3400041178
 H            1.0     -4.1166054931      5.1474586409      3.1648880549
 H            1.0     -5.7953725255      5.4769222181      2.7219251010
 H            1.0     -4.4857771516      5.8060658290      1.5557221336
 H            1.0     -5.6212019194      1.7534436106      2.2780869463
 H            1.0     -6.8316389297      3.0507503755      2.4615434456
 H            1.0     -5.5706518859      2.8597745904      3.6820290722
 SI          14.0     -3.5635048460      5.5093849012     -2.5131362050
 O            8.0     -4.4470996166      5.3390617559     -1.0967205675
 H            1.0     -3.6718830340      4.3090379629     -3.3722683640
 H            1.0     -2.1300170918      5.7531497119     -2.2381367051
 H            1.0     -4.1410818785      6.6725632878     -3.2102898165
 H            1.0     -4.2121879048      4.6040637560     -0.4928606895
Coordinates of the product [angs]...
 C            6.0     -7.9971048184      2.0416650993     -1.9514557862
 C            6.0     -6.8747090758      2.7491109127     -1.1976635662
 H            1.0     -8.7095235206      1.5897712487     -1.2590219104
 H            1.0     -7.6016011218      1.2491757786     -2.5860836711
 H            1.0     -8.5445853781      2.7387933818     -2.5883654215
 H            1.0     -6.3219928409      2.0384200129     -0.5843580514
 C            6.0     -7.4245206607      3.8682095219     -0.3222375898
 H            1.0     -6.1574980676      3.1720226655     -1.9047195909
 H            1.0     -8.1557680983      3.4572441280      0.3841504930
 H            1.0     -7.9622527862      4.5802034369     -0.9548034229
 N            7.0     -6.3754315750      4.6482486535      0.3650949205
 H            1.0     -5.0460140902      5.1140006893     -0.6756735727
 H            1.0     -6.8041929671      5.4920992292      0.7416066602
 O            8.0     -4.6544169447      3.1151280018      0.9304238646
 C            6.0     -5.6300578012      3.9970781239      1.4744278296
 C            6.0     -6.4956068007      3.1297481580      2.3759927598
 C            6.0     -4.9525098239      5.1113574012      2.2675469413
 H            1.0     -4.3179222766      4.6645687098      3.0309855072
 H            1.0     -5.6883443382      5.7524704930      2.7574385753
 H            1.0     -4.3334168380      5.7178529065      1.6062422148
 H            1.0     -6.8931047996      2.2767681523      1.8293105218
 H            1.0     -7.3213156251      3.7098122469      2.7906347601
 H            1.0     -5.8847725677      2.7506866225      3.1940652754
 SI          14.0     -3.8534481434      5.6484447252     -2.6085071352
 O            8.0     -4.1096384866      5.1857630567     -1.0199083833
 H            1.0     -4.4615399821      4.6919834151     -3.5629087067
 H            1.0     -2.3940534476      5.6851517254     -2.8103311469
 H            1.0     -4.4283515639      6.9856391797     -2.8839523392
 H            1.0     -4.0971510001      3.6318916637      0.3203707510

* Examine atom order of the reactant and product...
The atom orders are fine...

----------------------------- Coordinate fitting of initial structures -----------------------------
* Coordinate fitting of product image
Images are superimposed by translating and rotating the structure.
Finished coordinate fitting process...

* Interpolation of images...
Linear interpolation has processed.

* IDPP interpolation of images...
IDPP interpolation has processed.


---------------- [BEGIN] ENERGY and GRADIENT calculation (initial run) #IMAGE=    1 ----------------

*** Coordinate [angs] of #IMAGE=    1
 C            6.0     -2.4317946282     -2.2489975933     -1.7459717254
 C            6.0     -1.6522174040     -1.3030042863     -0.8384255832
 H            1.0     -3.3486177920     -2.5887500965     -1.2606833429
 H            1.0     -1.8402769300     -3.1293748695     -1.9970533797
 H            1.0     -2.7102078562     -1.7561306451     -2.6788562448
 H            1.0     -1.3549686275     -1.8181064508      0.0767156743
 C            6.0     -2.4546993213     -0.0653438417     -0.4637707657
 H            1.0     -0.7295537310     -0.9881131244     -1.3317017759
 H            1.0     -3.3549215950     -0.3664956718      0.0790544673
 H            1.0     -2.7876195437      0.4335518919     -1.3845187246
 N            7.0     -1.6664417297      0.8118837278      0.4146329970
 H            1.0     -0.8606452362      1.1632793426     -0.1014125833
 H            1.0     -2.2212181988      1.6229732807      0.6741221525
 O            8.0      1.2653140604     -0.7817542803      1.0458350616
 C            6.0      0.6693401098     -0.4123349765      2.0656082188
 C            6.0     -0.1743904750     -1.3692996471      2.8601373591
 C            6.0      0.7793766358      0.9971181725      2.5836233796
 H            1.0      1.4966216275      1.0053863828      3.4085073167
 H            1.0     -0.1821454049      1.3348499600      2.9655443628
 H            1.0      1.1274499690      1.6639935709      1.7993413954
 H            1.0     -0.0079747988     -2.3886286475      2.5217062081
 H            1.0     -1.2184118091     -1.0913218826      2.7051627074
 H            1.0      0.0425752347     -1.2822976677      3.9256483340
 SI          14.0      2.0497222746      1.3673126431     -2.2695169432
 O            8.0      1.1661275040      1.1969894978     -0.8531013057
 H            1.0      1.9413440866      0.1669657048     -3.1286491022
 H            1.0      3.4832100288      1.6110774538     -1.9945174433
 H            1.0      1.4721452421      2.5304910297     -2.9666705547
 H            1.0      1.4010392158      0.4619914979     -0.2492414277

*** START A SINGLE POINT CALCULATION ***

 * GENERATE INITIAL GUESS ORBITALS *

 ...... END OF ONE-ELECTRON INTEGRALS ......
 CPU     0: STEP CPU TIME=     0.16 TOTAL CPU TIME=          0.4 (      0.0 MIN)
 TOTAL WALL CLOCK TIME=          0.9 SECONDS, CPU UTILIZATION IS    45.16%

          -------------
          GUESS OPTIONS
          -------------
          GUESS =MOREAD            NORB  =     289          NORDER=       0
          MIX   =       F          PRTMO =       F          PUNMO =       F
          TOLZ  = 1.0E-08          TOLE  = 1.0E-05
          SYMDEN=       F          PURIFY=       F

 INITIAL GUESS ORBITALS GENERATED BY MOREAD   ROUTINE.

 SYMMETRIES FOR INITIAL GUESS ORBITALS FOLLOW.   BOTH SET(S).
    46 ORBITALS ARE OCCUPIED (   14 CORE ORBITALS).
     1=A        2=A        3=A        4=A        5=A        6=A        7=A   
     8=A        9=A       10=A       11=A       12=A       13=A       14=A   
    15=A       16=A       17=A       18=A       19=A       20=A       21=A   
    22=A       23=A       24=A       25=A       26=A       27=A       28=A   
    29=A       30=A       31=A       32=A       33=A       34=A       35=A   
    36=A       37=A       38=A       39=A       40=A       41=A       42=A   
    43=A       44=A       45=A       46=A       47=A       48=A       49=A   
    50=A       51=A       52=A       53=A       54=A       55=A       56=A   
    57=A       58=A       59=A       60=A       61=A       62=A       63=A   
    64=A       65=A       66=A       67=A       68=A       69=A       70=A   
    71=A       72=A       73=A       74=A       75=A       76=A       77=A   
    78=A       79=A       80=A       81=A       82=A       83=A       84=A   
    85=A       86=A       87=A       88=A       89=A       90=A       91=A   
    92=A       93=A       94=A       95=A       96=A       97=A       98=A   
    99=A      100=A      101=A      102=A      103=A      104=A      105=A   
   106=A      107=A      108=A      109=A      110=A      111=A      112=A   
   113=A      114=A      115=A      116=A      117=A      118=A      119=A   
   120=A      121=A      122=A      123=A      124=A      125=A      126=A   
   127=A      128=A      129=A      130=A      131=A      132=A      133=A   
   134=A      135=A      136=A      137=A      138=A      139=A      140=A   
   141=A      142=A      143=A      144=A      145=A      146=A      147=A   
   148=A      149=A      150=A      151=A      152=A      153=A      154=A   
   155=A      156=A      157=A      158=A      159=A      160=A      161=A   
   162=A      163=A      164=A      165=A      166=A      167=A      168=A   
   169=A      170=A      171=A      172=A      173=A      174=A      175=A   
   176=A      177=A      178=A      179=A      180=A      181=A      182=A   
   183=A      184=A      185=A      186=A      187=A      188=A      189=A   
   190=A      191=A      192=A      193=A      194=A      195=A      196=A   
   197=A      198=A      199=A      200=A      201=A      202=A      203=A   
   204=A      205=A      206=A      207=A      208=A      209=A      210=A   
   211=A      212=A      213=A      214=A      215=A      216=A      217=A   
   218=A      219=A      220=A      221=A      222=A      223=A      224=A   
   225=A      226=A      227=A      228=A      229=A      230=A      231=A   
   232=A      233=A      234=A      235=A      236=A      237=A      238=A   
   239=A      240=A      241=A      242=A      243=A      244=A      245=A   
   246=A      247=A      248=A      249=A      250=A      251=A      252=A   
   253=A      254=A      255=A      256=A      257=A      258=A      259=A   
   260=A      261=A      262=A      263=A      264=A      265=A      266=A   
   267=A      268=A      269=A      270=A      271=A      272=A      273=A   
   274=A      275=A      276=A      277=A      278=A      279=A      280=A   
   281=A      282=A      283=A      284=A      285=A      286=A      287=A   
   288=A      289=A   
 ...... END OF INITIAL ORBITAL SELECTION ......
 CPU     0: STEP CPU TIME=     0.13 TOTAL CPU TIME=          0.6 (      0.0 MIN)
 TOTAL WALL CLOCK TIME=          1.4 SECONDS, CPU UTILIZATION IS    39.01%

                    ----------------------
                    AO INTEGRAL TECHNOLOGY
                    ----------------------
     S,P,L SHELL ROTATED AXIS INTEGRALS, REPROGRAMMED BY
        KAZUYA ISHIMURA (IMS) AND JOSE SIERRA (SYNSTAR).
     S,P,D,L SHELL ROTATED AXIS INTEGRALS PROGRAMMED BY
        KAZUYA ISHIMURA (INSTITUTE FOR MOLECULAR SCIENCE).
     S,P,D,F,G SHELL TO TOTAL QUARTET ANGULAR MOMENTUM SUM 5,
        ERIC PROGRAM BY GRAHAM FLETCHER (ELORET AND NASA ADVANCED
        SUPERCOMPUTING DIVISION, AMES RESEARCH CENTER).
     S,P,D,F,G,L SHELL GENERAL RYS QUADRATURE PROGRAMMED BY
        MICHEL DUPUIS (PACIFIC NORTHWEST NATIONAL LABORATORY).
  ...... END OF TWO-ELECTRON INTEGRALS .....
 CPU     0: STEP CPU TIME=     0.01 TOTAL CPU TIME=          0.6 (      0.0 MIN)
 TOTAL WALL CLOCK TIME=          1.5 SECONDS, CPU UTILIZATION IS    38.36%

          --------------------------
                 RHF SCF CALCULATION
          --------------------------
     DENSITY MATRIX CONV=  2.00E-06

 DIRECT SCF CALCULATION, SCHWRZ=T   FDIFF=T,  DIRTHR=  0.00E+00 NITDIR=10

                                                                                   NONZERO     BLOCKS
 ITER EX DEM     TOTAL ENERGY        E CHANGE  DENSITY CHANGE     ORB. GRAD      INTEGRALS    SKIPPED
   1  0  0     -731.4368722585  -731.4368722585   0.000001578   0.000000000      451630903    9283775
          ---------------START SECOND ORDER SCF---------------
   2  1  0     -731.4368722570     0.0000000016   0.000000916   0.000000068      188977782   14846990
   3  2  0     -731.4368722561     0.0000000008   0.000000884   0.000000043      167492831   15193561

          -----------------
          DENSITY CONVERGED
          -----------------
     TIME TO FORM FOCK OPERATORS=       0.9 SECONDS (       0.3 SEC/ITER)
     FOCK TIME ON FIRST ITERATION=       0.5, LAST ITERATION=       0.2
     TIME TO SOLVE SCF EQUATIONS=       0.1 SECONDS (       0.0 SEC/ITER)

 FINAL RHF ENERGY IS     -731.4368722561 AFTER   3 ITERATIONS
 ...... END OF RHF CALCULATION ......
 CPU     0: STEP CPU TIME=     1.09 TOTAL CPU TIME=          1.7 (      0.0 MIN)
 TOTAL WALL CLOCK TIME=          3.0 SECONDS, CPU UTILIZATION IS    54.28%



 -----------------------------     ------------------------------
 DISTRIBUTED DATA MP2 GRADIENT     PROGRAM WRITTEN BY G. FLETCHER
 -----------------------------     ------------------------------

    THIS CALCULATION IS RUNNING WITH MWORDS= 2000, MEMDDI=     500, AND P=   36
 MEMORY USAGE PER CPU IS 8*(MWORDS + MEMDDI/P)/1024 =   15.7 GBYTES.

 MINIMAL REQUIREMENT FOR THIS RUN IS MWORDS=    2, MEMDDI=     149.
 FOR P=   36, THE MEMORY USAGE PER CPU(CORE) WOULD BE    0.0 GBYTES.

 DDI: Creating Array [0] - 83521 x 1081 = 90286201 words.
 DDI: Creating Array [1] - 243 x 49726 = 12083418 words.
 DDI: Creating Array [2] - 41905 x 1081 = 45299305 words.
 DDI: Creating Array [3] - 1081 x 1081 = 1168561 words.

      DIRECT 4-INDEX TRANSFORMATION 
      SCHWARZ INEQUALITY TEST SKIPPED   18473512 INTEGRAL BLOCKS

 RESULTS OF MOLLER-PLESSET 2ND ORDER CORRECTION ARE
                     E(SCF)=      -731.4368722561
                       E(2)=        -1.5399485994
                     E(MP2)=      -732.9768208555
 SPIN-COMPONENT-SCALED MP2 RESULTS ARE
                      E(2S)=        -1.1800149543
                      E(2T)=        -0.3599336451
                     E(2ST)=        -1.5359958269 = 6/5 * E(2S) + 1/3 * E(2T)
                    SCS-MP2=      -732.9728680830

      COMPUTING CONTRIBUTIONS TO THE 1-PARTICLE DENSITY MATRICES

      COMPUTING THREE-VIRTUAL CONTRIBUTIONS TO THE LAGRANGIAN
      FORMING BACK-TRANSFORMED AMPLITUDES
      COMPUTING (VV|VO) INTEGRAL CLASS 
      SCHWARZ INEQUALITY TEST SKIPPED   36953550 INTEGRAL BLOCKS
      RESTORING (VO|VO) INTEGRAL CLASS

      SOLVING FOR Z-VECTOR
 DDI: Creating Array [3] - 11178 x 50 = 558900 words.

      ITERATION         TESTER  EXPANSION VECTOR NORM
      ===============================================

                                 0.000232794205094
         2        0.0002288530
                                 0.000077749955001
         3        0.0000756240
                                 0.000028525838685
         4        0.0000293274
                                 0.000010803288569
         5        0.0000127127
                                 0.000003900794065
         6        0.0000046193
                                 0.000001329243523
         7        0.0000016867
                                 0.000000323289500
         8        0.0000004256
                                 0.000000104060702
         9        0.0000001563
                                 0.000000035918986
        10        0.0000000768
                                 0.000000012235716
        11        0.0000000334
                                 0.000000004273203
        12        0.0000000126
                                 0.000000001323092
        13        0.0000000040
                                 0.000000000315883
        14        0.0000000010
                                 0.000000000074478
        15        0.0000000003
                                 0.000000000021621
        16        0.0000000001

      CONVERGED - WAVEFUNCTIONS STATIONARY


      COMPUTING LAST CONTRIBUTIONS TO THE 1-PARTICLE DENSITY
 ..... DONE WITH MP2 ENERGY .....
 CPU     0: STEP CPU TIME=    11.80 TOTAL CPU TIME=         13.4 (      0.2 MIN)
 TOTAL WALL CLOCK TIME=        164.5 SECONDS, CPU UTILIZATION IS     8.18%

*** START A GRADIENT CALCULATION ***

 ..... END OF 1-ELECTRON GRADIENT ......
 CPU     0: STEP CPU TIME=     0.03 TOTAL CPU TIME=         13.5 (      0.2 MIN)
 TOTAL WALL CLOCK TIME=        164.5 SECONDS, CPU UTILIZATION IS     8.19%

      COMPUTING 2-PARTICLE GRADIENT
      FORMING BACK-TRANSFORMED AMPLITUDES
 THE COARSE/FINE SCHWARZ SCREENINGS SKIPPED   36953550/  15132230 BLOCKS.
 THE NUMBER OF GRADIENT INTEGRAL BLOCKS COMPUTED WAS  16563367
 ..... DONE WITH MP2 GRADIENT .....
 CPU     0: STEP CPU TIME=     4.15 TOTAL CPU TIME=         17.6 (      0.3 MIN)
 TOTAL WALL CLOCK TIME=        169.6 SECONDS, CPU UTILIZATION IS    10.40%

*** Store the coordinates, gradients, and vectors into the dictionary file.  iREC=  611    1   10

*** Energy [hartree] of #IMAGE=    1
Energy =     -732.9768208555

*** Gradient [hartree/bohr] of #IMAGE=    1
     1  C            6.0      0.0000352374     -0.0000172491      0.0000318789
     2  C            6.0      0.0000542599      0.0000205481     -0.0000652552
     3  H            1.0     -0.0000395522     -0.0000163394      0.0000003377
     4  H            1.0      0.0000119585     -0.0000129342     -0.0000086748
     5  H            1.0      0.0000237807      0.0000058700      0.0000035945
     6  H            1.0     -0.0000246459      0.0000022743     -0.0000313686
     7  C            6.0     -0.0000042332     -0.0000373539      0.0000007668
     8  H            1.0     -0.0000772536     -0.0000262109      0.0000574883
     9  H            1.0      0.0000114853      0.0000431033      0.0000168134
    10  H            1.0      0.0000059919      0.0000098205     -0.0000235009
    11  N            7.0     -0.0000294505     -0.0000132900      0.0000661666
    12  H            1.0      0.0000536559      0.0000293894     -0.0000548401
    13  H            1.0     -0.0000135124      0.0000127641      0.0000214276
    14  O            8.0      0.0000274973      0.0000164642     -0.0000557240
    15  C            6.0     -0.0000501571     -0.0000700544      0.0000151204
    16  C            6.0     -0.0000033829      0.0000059125     -0.0000286128
    17  C            6.0      0.0000060731      0.0000195488     -0.0000115735
    18  H            1.0      0.0000304868      0.0000140977     -0.0000017353
    19  H            1.0     -0.0000126873      0.0000149295      0.0000158678
    20  H            1.0      0.0000176524      0.0000108055     -0.0000105123
    21  H            1.0      0.0000233810     -0.0000201414     -0.0000084838
    22  H            1.0     -0.0000222939      0.0000014010      0.0000249148
    23  H            1.0     -0.0000176288     -0.0000037720      0.0000411298
    24  SI          14.0     -0.0000175418      0.0000442643      0.0000052789
    25  O            8.0     -0.0000227515      0.0000206528     -0.0000001262
    26  H            1.0      0.0000084270     -0.0000752689     -0.0000532769
    27  H            1.0      0.0000434280      0.0000254353      0.0000279501
    28  H            1.0     -0.0000103661      0.0000141446      0.0000008235
    29  H            1.0     -0.0000078578     -0.0000188117      0.0000241250
 RMS Gradient =        0.0000299457


----------------- [END] ENERGY and GRADIENT calculation (initial run) #IMAGE=    1 -----------------


---------------- [BEGIN] ENERGY and GRADIENT calculation (initial run) #IMAGE=    2 ----------------

*** Coordinate [angs] of #IMAGE=    2
 C            6.0     -2.4247059247     -2.2516902452     -1.7467875724
 C            6.0     -1.6209018056     -1.3149007603     -0.8511787001
 H            1.0     -3.3271202819     -2.5991881011     -1.2405129214
 H            1.0     -1.8391812317     -3.1275331458     -2.0259265494
 H            1.0     -2.7286850055     -1.7454057742     -2.6642741241
 H            1.0     -1.3012321413     -1.8460107997      0.0462036532
 C            6.0     -2.4145577591     -0.0849204636     -0.4375195614
 H            1.0     -0.7107262217     -0.9942557244     -1.3628074321
 H            1.0     -3.3015356836     -0.3950080347      0.1221303354
 H            1.0     -2.7703032988      0.4257431931     -1.3428396624
 N            7.0     -1.6061916649      0.7945458192      0.4210456626
 H            1.0     -0.7717434145      1.1686557841     -0.1381672298
 H            1.0     -2.1592699345      1.6027642541      0.6945817728
 O            8.0      1.2495168099     -0.7968117670      1.0566075141
 C            6.0      0.6108073875     -0.3947555633      2.0515432664
 C            6.0     -0.2306961876     -1.3463674316      2.8515789012
 C            6.0      0.7612684763      1.0056844633      2.5810701702
 H            1.0      1.4802278070      0.9827878012      3.4036169355
 H            1.0     -0.1893324166      1.3664044620      2.9694388306
 H            1.0      1.1281653253      1.6711884969      1.8041756459
 H            1.0     -0.0989883881     -2.3664610610      2.5005142684
 H            1.0     -1.2725985060     -1.0428409988      2.7386369423
 H            1.0      0.0246655547     -1.2794420372      3.9096399985
 SI          14.0      2.0223310431      1.3839181554     -2.2862128463
 O            8.0      1.1829043027      1.1931608229     -0.8453298626
 H            1.0      1.8812817512      0.1947522050     -3.1564947854
 H            1.0      3.4628873965      1.6170533426     -2.0426997207
 H            1.0      1.4352550666      2.5606858601     -2.9526113106
 H            1.0      1.4266198523      0.3961577241     -0.1958728847

*** START A SINGLE POINT CALCULATION ***

 * GENERATE INITIAL GUESS ORBITALS *

 ...... END OF ONE-ELECTRON INTEGRALS ......
 CPU     0: STEP CPU TIME=     0.02 TOTAL CPU TIME=         17.6 (      0.3 MIN)
 TOTAL WALL CLOCK TIME=        169.7 SECONDS, CPU UTILIZATION IS    10.40%

          -------------
          GUESS OPTIONS
          -------------
          GUESS =MOREAD            NORB  =     289          NORDER=       0
          MIX   =       F          PRTMO =       F          PUNMO =       F
          TOLZ  = 1.0E-08          TOLE  = 1.0E-05
          SYMDEN=       F          PURIFY=       F

 INITIAL GUESS ORBITALS GENERATED BY MOREAD   ROUTINE.

 SYMMETRIES FOR INITIAL GUESS ORBITALS FOLLOW.   BOTH SET(S).
    46 ORBITALS ARE OCCUPIED (   14 CORE ORBITALS).
     1=A        2=A        3=A        4=A        5=A        6=A        7=A   
     8=A        9=A       10=A       11=A       12=A       13=A       14=A   
    15=A       16=A       17=A       18=A       19=A       20=A       21=A   
    22=A       23=A       24=A       25=A       26=A       27=A       28=A   
    29=A       30=A       31=A       32=A       33=A       34=A       35=A   
    36=A       37=A       38=A       39=A       40=A       41=A       42=A   
    43=A       44=A       45=A       46=A       47=A       48=A       49=A   
    50=A       51=A       52=A       53=A       54=A       55=A       56=A   
    57=A       58=A       59=A       60=A       61=A       62=A       63=A   
    64=A       65=A       66=A       67=A       68=A       69=A       70=A   
    71=A       72=A       73=A       74=A       75=A       76=A       77=A   
    78=A       79=A       80=A       81=A       82=A       83=A       84=A   
    85=A       86=A       87=A       88=A       89=A       90=A       91=A   
    92=A       93=A       94=A       95=A       96=A       97=A       98=A   
    99=A      100=A      101=A      102=A      103=A      104=A      105=A   
   106=A      107=A      108=A      109=A      110=A      111=A      112=A   
   113=A      114=A      115=A      116=A      117=A      118=A      119=A   
   120=A      121=A      122=A      123=A      124=A      125=A      126=A   
   127=A      128=A      129=A      130=A      131=A      132=A      133=A   
   134=A      135=A      136=A      137=A      138=A      139=A      140=A   
   141=A      142=A      143=A      144=A      145=A      146=A      147=A   
   148=A      149=A      150=A      151=A      152=A      153=A      154=A   
   155=A      156=A      157=A      158=A      159=A      160=A      161=A   
   162=A      163=A      164=A      165=A      166=A      167=A      168=A   
   169=A      170=A      171=A      172=A      173=A      174=A      175=A   
   176=A      177=A      178=A      179=A      180=A      181=A      182=A   
   183=A      184=A      185=A      186=A      187=A      188=A      189=A   
   190=A      191=A      192=A      193=A      194=A      195=A      196=A   
   197=A      198=A      199=A      200=A      201=A      202=A      203=A   
   204=A      205=A      206=A      207=A      208=A      209=A      210=A   
   211=A      212=A      213=A      214=A      215=A      216=A      217=A   
   218=A      219=A      220=A      221=A      222=A      223=A      224=A   
   225=A      226=A      227=A      228=A      229=A      230=A      231=A   
   232=A      233=A      234=A      235=A      236=A      237=A      238=A   
   239=A      240=A      241=A      242=A      243=A      244=A      245=A   
   246=A      247=A      248=A      249=A      250=A      251=A      252=A   
   253=A      254=A      255=A      256=A      257=A      258=A      259=A   
   260=A      261=A      262=A      263=A      264=A      265=A      266=A   
   267=A      268=A      269=A      270=A      271=A      272=A      273=A   
   274=A      275=A      276=A      277=A      278=A      279=A      280=A   
   281=A      282=A      283=A      284=A      285=A      286=A      287=A   
   288=A      289=A   
 ...... END OF INITIAL ORBITAL SELECTION ......
 CPU     0: STEP CPU TIME=     0.12 TOTAL CPU TIME=         17.8 (      0.3 MIN)
 TOTAL WALL CLOCK TIME=        170.2 SECONDS, CPU UTILIZATION IS    10.44%
  ...... END OF TWO-ELECTRON INTEGRALS .....
 CPU     0: STEP CPU TIME=     0.00 TOTAL CPU TIME=         17.8 (      0.3 MIN)
 TOTAL WALL CLOCK TIME=        170.2 SECONDS, CPU UTILIZATION IS    10.44%

          --------------------------
                 RHF SCF CALCULATION
          --------------------------
     DENSITY MATRIX CONV=  2.00E-06

 DIRECT SCF CALCULATION, SCHWRZ=T   FDIFF=T,  DIRTHR=  0.00E+00 NITDIR=10

                                                                                   NONZERO     BLOCKS
 ITER EX DEM     TOTAL ENERGY        E CHANGE  DENSITY CHANGE     ORB. GRAD      INTEGRALS    SKIPPED
   1  0  0     -731.4173327773  -731.4173327773   0.044862009   0.000000000      455358316    9229340
          ---------------START SECOND ORDER SCF---------------
   2  1  0     -731.4231266738    -0.0057938965   0.017813983   0.002821993      430387262   10248436
   3  2  0     -731.4236392667    -0.0005125929   0.016403755   0.001042509      410600609   10739038
   4  3  0     -731.4237481767    -0.0001089100   0.003755939   0.000297434      402257292   10912071
   5  4  0     -731.4237554471    -0.0000072704   0.001787858   0.000144947      374809481   11483038
   6  5  0     -731.4237569538    -0.0000015066   0.000370788   0.000042929      361198553   11754848
   7  6  0     -731.4237572010    -0.0000002472   0.000362654   0.000018258      335814411   12272192
   8  7  0     -731.4237572392    -0.0000000382   0.000088008   0.000008190      324355069   12462514
   9  8  0     -731.4237572453    -0.0000000061   0.000028138   0.000004088      308094903   12763690
  10  9  0     -731.4237572462    -0.0000000010   0.000035915   0.000001972      280663230   13296013
  11 10  0     -731.4237572463    -0.0000000000   0.000007855   0.000000482      272473594   13427598
  12 11  0     -731.4237572474    -0.0000000012   0.000003217   0.000000225      247377571   13875166
  13 12  0     -731.4237572471     0.0000000004   0.000001653   0.000000043      223147255   14293387

          -----------------
          DENSITY CONVERGED
          -----------------
     TIME TO FORM FOCK OPERATORS=       4.6 SECONDS (       0.4 SEC/ITER)
     FOCK TIME ON FIRST ITERATION=       0.5, LAST ITERATION=       0.2
     TIME TO SOLVE SCF EQUATIONS=       0.3 SECONDS (       0.0 SEC/ITER)

 FINAL RHF ENERGY IS     -731.4237572471 AFTER  13 ITERATIONS
 ...... END OF RHF CALCULATION ......
 CPU     0: STEP CPU TIME=     4.97 TOTAL CPU TIME=         22.7 (      0.4 MIN)
 TOTAL WALL CLOCK TIME=        176.4 SECONDS, CPU UTILIZATION IS    12.89%



 -----------------------------     ------------------------------
 DISTRIBUTED DATA MP2 GRADIENT     PROGRAM WRITTEN BY G. FLETCHER
 -----------------------------     ------------------------------

    THIS CALCULATION IS RUNNING WITH MWORDS= 2000, MEMDDI=     500, AND P=   36
 MEMORY USAGE PER CPU IS 8*(MWORDS + MEMDDI/P)/1024 =   15.7 GBYTES.

 MINIMAL REQUIREMENT FOR THIS RUN IS MWORDS=    2, MEMDDI=     149.
 FOR P=   36, THE MEMORY USAGE PER CPU(CORE) WOULD BE    0.0 GBYTES.

 DDI: Creating Array [0] - 83521 x 1081 = 90286201 words.
 DDI: Creating Array [1] - 243 x 49726 = 12083418 words.
 DDI: Creating Array [2] - 41905 x 1081 = 45299305 words.
 DDI: Creating Array [3] - 1081 x 1081 = 1168561 words.

      DIRECT 4-INDEX TRANSFORMATION 
      SCHWARZ INEQUALITY TEST SKIPPED   18361238 INTEGRAL BLOCKS

 RESULTS OF MOLLER-PLESSET 2ND ORDER CORRECTION ARE
                     E(SCF)=      -731.4237572471
                       E(2)=        -1.5465102808
                     E(MP2)=      -732.9702675279
 SPIN-COMPONENT-SCALED MP2 RESULTS ARE
                      E(2S)=        -1.1843685171
                      E(2T)=        -0.3621417637
                     E(2ST)=        -1.5419561418 = 6/5 * E(2S) + 1/3 * E(2T)
                    SCS-MP2=      -732.9657133889

      COMPUTING CONTRIBUTIONS TO THE 1-PARTICLE DENSITY MATRICES

      COMPUTING THREE-VIRTUAL CONTRIBUTIONS TO THE LAGRANGIAN
      FORMING BACK-TRANSFORMED AMPLITUDES
      COMPUTING (VV|VO) INTEGRAL CLASS 
      SCHWARZ INEQUALITY TEST SKIPPED   36730261 INTEGRAL BLOCKS
      RESTORING (VO|VO) INTEGRAL CLASS

      SOLVING FOR Z-VECTOR
 DDI: Creating Array [3] - 11178 x 50 = 558900 words.

      ITERATION         TESTER  EXPANSION VECTOR NORM
      ===============================================

                                 0.000238558861111
         2        0.0002371153
                                 0.000082507943472
         3        0.0000832170
                                 0.000029925819766
         4        0.0000323810
                                 0.000011815943669
         5        0.0000143072
                                 0.000004330344932
         6        0.0000051649
                                 0.000001491916439
         7        0.0000019146
                                 0.000000375544550
         8        0.0000005143
                                 0.000000128882373
         9        0.0000002112
                                 0.000000046197958
        10        0.0000001068
                                 0.000000015517124
        11        0.0000000420
                                 0.000000005420670
        12        0.0000000157
                                 0.000000001568154
        13        0.0000000048
                                 0.000000000366332
        14        0.0000000012
                                 0.000000000087614
        15        0.0000000003
                                 0.000000000025232
        16        0.0000000001

      CONVERGED - WAVEFUNCTIONS STATIONARY


      COMPUTING LAST CONTRIBUTIONS TO THE 1-PARTICLE DENSITY
 ..... DONE WITH MP2 ENERGY .....
[...]
O              8.0000      1.3351793092      0.9718892236     -0.7120918308
H              1.0000      1.4217523674      0.4361450421     -3.2872453584
H              1.0000      3.2598961021      1.6548109021     -2.3772438169
H              1.0000      1.1728452758      2.7015106846     -2.7107094970
H              1.0000      1.4205916207      0.1649728857      0.0083050175
#image =    9, Energy=     -732.9420555518, Grad RMS=      0.002284577085
C              6.0000     -2.4196811806     -2.1849124364     -1.7040853671
C              6.0000     -1.4064399618     -1.3726920303     -0.9027467093
H              1.0000     -3.2064914150     -2.5870593707     -1.0631645620
H              1.0000     -1.9265244811     -3.0256489522     -2.1911042631
H              1.0000     -2.8916950658     -1.5809049205     -2.4804223750
H              1.0000     -0.9305716870     -2.0045028067     -0.1554769494
C              6.0000     -2.0436707967     -0.1854318145     -0.2022090402
H              1.0000     -0.6134428860     -1.0035277517     -1.5549266098
H              1.0000     -2.8118991378     -0.5124764324      0.5018440844
H              1.0000     -2.5488370504      0.4465854920     -0.9475969357
N              7.0000     -1.0274991293      0.6180135905      0.5443163765
H              1.0000     -0.2898917810      0.9725728526     -0.1268178811
H              1.0000     -1.4997011998      1.4395416039      0.9324859583
O              8.0000      1.0944001186     -0.7760381518      0.9631196658
C              6.0000      0.2308583595     -0.2076688239      1.7848928663
C              6.0000     -0.5363811744     -1.1629370932      2.6879124492
C              6.0000      0.7147250935      1.0312180979      2.5073410021
H              1.0000      1.4322029423      0.7200425103      3.2754655249
H              1.0000     -0.1077870820      1.5351793118      3.0112196935
H              1.0000      1.2225855826      1.6941471656      1.8120001412
H              1.0000     -0.6806254286     -2.1473248666      2.2477015703
H              1.0000     -1.4984029631     -0.7296721415      2.9551120060
H              1.0000      0.0133084236     -1.3018482977      3.6270156504
SI            14.0000      1.8129129181      1.4280014695     -2.2518945272
O              8.0000      1.2960208882      1.0137359757     -0.7345832838
H              1.0000      1.4452504914      0.4154104999     -3.2868170528
H              1.0000      3.2858224481      1.6129800127     -2.3685286659
H              1.0000      1.2214454326      2.7071342177     -2.7605437743
H              1.0000      1.4163480389     -0.0421403590      0.2298996721
#image =   10, Energy=     -732.9560029743, Grad RMS=      0.002870094335
C              6.0000     -2.4186065731     -2.1687081313     -1.6981157822
C              6.0000     -1.3783136919     -1.3840088784     -0.9029417402
H              1.0000     -3.2012489172     -2.5699265846     -1.0520100126
H              1.0000     -1.9396893911     -3.0095700257     -2.1992536855
H              1.0000     -2.8924474388     -1.5531116169     -2.4640390388
H              1.0000     -0.8988971351     -2.0307348412     -0.1731285085
C              6.0000     -1.9735870366     -0.2015482107     -0.1629605864
H              1.0000     -0.5952778064     -1.0112707188     -1.5635088504
H              1.0000     -2.7488940810     -0.5125041795      0.5388080260
H              1.0000     -2.4592084918      0.4756087302     -0.8825951016
N              7.0000     -0.9094287194      0.5628627956      0.5889793721
H              1.0000     -0.1626099145      0.9269272467     -0.1202085213
H              1.0000     -1.3701636356      1.3964506717      0.9777370189
O              8.0000      1.0824744295     -0.8193567303      0.9862307023
C              6.0000      0.1328377698     -0.1586777385      1.7225885618
C              6.0000     -0.5862601048     -1.1280947085      2.6613619174
C              6.0000      0.7086040516      1.0259732243      2.4947114285
H              1.0000      1.4153462144      0.6615400974      3.2478974502
H              1.0000     -0.0822608894      1.5609087311      3.0224409438
H              1.0000      1.2458270043      1.6861346264      1.8193806183
H              1.0000     -0.7405996743     -2.1128541362      2.2213543067
H              1.0000     -1.5374089191     -0.7082849463      2.9819366902
H              1.0000      0.0094892636     -1.2823288438      3.5692821380
SI            14.0000      1.8018905381      1.4338526923     -2.2582179516
O              8.0000      1.2382549819      1.0533355350     -0.7532984393
H              1.0000      1.4359606587      0.4122164475     -3.2860928794
H              1.0000      3.2837566369      1.5745644800     -2.3529702882
H              1.0000      1.2484674922      2.7213023032     -2.7750282610
H              1.0000      1.4442062721     -0.1557400628      0.3048269314
#image =   11, Energy=     -732.9647646893, Grad RMS=      0.003460000133
C              6.0000     -2.4073532341     -2.1591125517     -1.7037135700
C              6.0000     -1.3663334723     -1.3825796488     -0.9019377745
H              1.0000     -3.1949528309     -2.5552968755     -1.0604582123
H              1.0000     -1.9337450216     -3.0034089133     -2.2050243666
H              1.0000     -2.8760705252     -1.5396426671     -2.4705480383
H              1.0000     -0.8876533531     -2.0363815255     -0.1775404441
C              6.0000     -1.9402250045     -0.2003956029     -0.1453556488
H              1.0000     -0.5818021186     -1.0121166887     -1.5634988285
H              1.0000     -2.7438810315     -0.5163659671      0.5283189986
H              1.0000     -2.4157155109      0.4870046209     -0.8667356216
N              7.0000     -0.8636455376      0.5465026255      0.6051959891
H              1.0000      0.1297778113      0.9725653822     -0.2842797819
H              1.0000     -1.3289370997      1.3729162510      0.9926159599
O              8.0000      1.0810584612     -0.8502936553      1.0093355256
C              6.0000      0.0881792308     -0.1391823835      1.6979737656
C              6.0000     -0.5987341392     -1.1191064224      2.6612969830
C              6.0000      0.7121385062      1.0155648220      2.4943801247
H              1.0000      1.4153008948      0.6371072536      3.2444318532
H              1.0000     -0.0612446167      1.5708239106      3.0237712542
H              1.0000      1.2668406534      1.6734959240      1.8268139578
H              1.0000     -0.7569448906     -2.1046685996      2.2243572942
H              1.0000     -1.5476944788     -0.7007215182      2.9891219955
H              1.0000      0.0060085050     -1.2772621880      3.5630396629
SI            14.0000      1.7976708448      1.4299047208     -2.2689119940
O              8.0000      1.1703951832      1.0876857016     -0.7590987090
H              1.0000      1.4582560792      0.3903432776     -3.2747161131
H              1.0000      3.2854692307      1.5321102911     -2.3006128622
H              1.0000      1.2910125533      2.7209394378     -2.7893298648
H              1.0000      1.4750990851     -0.2195894159      0.3548915841
#image =   12, Energy=     -732.9779184003, Grad RMS=      0.002100166658
C              6.0000     -2.4031931420     -2.1528383690     -1.6960742451
C              6.0000     -1.3462967636     -1.3906961214     -0.8998018176
H              1.0000     -3.1761459541     -2.5607023410     -1.0426162512
H              1.0000     -1.9431010268     -2.9880266961     -2.2249976182
H              1.0000     -2.8901907067     -1.5189040273     -2.4396628356
H              1.0000     -0.8433813348     -2.0613166212     -0.2076901421
C              6.0000     -1.9155492070     -0.2296530054     -0.1013620637
H              1.0000     -0.5807072576     -1.0031329000     -1.5748222828
H              1.0000     -2.7217931010     -0.5767362940      0.5566267906
H              1.0000     -2.3889101285      0.4755186322     -0.8020289070
N              7.0000     -0.8562930964      0.5186104343      0.6420055902
H              1.0000      0.3120678204      1.0296948120     -0.4108850547
H              1.0000     -1.3076372739      1.3445197748      1.0364851001
O              8.0000      1.0479329683     -0.8899712558      1.0419911535
C              6.0000      0.0429503010     -0.1342909185      1.6987045077
C              6.0000     -0.6517297431     -1.1004791748      2.6636775309
C              6.0000      0.6952093466      1.0068646080      2.4941556889
H              1.0000      1.3885669954      0.6037917498      3.2373921454
H              1.0000     -0.0586087079      1.5875546123      3.0274363126
H              1.0000      1.2647621078      1.6565878328      1.8309118276
H              1.0000     -0.8548232495     -2.0682519514      2.2057172036
H              1.0000     -1.5796158078     -0.6582226781      3.0206726385
H              1.0000     -0.0224412959     -1.2937400974      3.5384180260
SI            14.0000      1.7876031001      1.4591095426     -2.3216358672
O              8.0000      1.2640769236      1.1133004366     -0.7735214538
H              1.0000      1.3922980936      0.4152432636     -3.2944070854
H              1.0000      3.2655225063      1.5338545571     -2.3382576079
H              1.0000      1.2584759776      2.7586478295     -2.7839842706
H              1.0000      1.4902323101     -0.2906558696      0.4085055176
#image =   13, Energy=     -732.9835871897, Grad RMS=      0.001394795362
C              6.0000     -2.3989456905     -2.1450729855     -1.6841615326
C              6.0000     -1.3177733827     -1.3990682625     -0.9047631516
H              1.0000     -3.1482309255     -2.5702285140     -1.0142740059
H              1.0000     -1.9589470258     -2.9656980169     -2.2513302993
H              1.0000     -2.9127467344     -1.4918066350     -2.3920420681
H              1.0000     -0.7866567500     -2.0860927394     -0.2494646027
C              6.0000     -1.8816392387     -0.2582266452     -0.0689395389
H              1.0000     -0.5766421477     -0.9930426749     -1.5965297486
H              1.0000     -2.6616977867     -0.6360165131      0.6046597203
H              1.0000     -2.3749919588      0.4555395387     -0.7403345862
N              7.0000     -0.8312795863      0.5084737079      0.6475409491
H              1.0000      0.4047444331      1.0361862165     -0.4457280619
H              1.0000     -1.2736867132      1.3335374587      1.0506415117
O              8.0000      1.0202673465     -0.9297561124      1.0789790503
C              6.0000      0.0203838978     -0.1341818196      1.7064586107
C              6.0000     -0.7166286643     -1.0724444411      2.6574780887
C              6.0000      0.6829135105      1.0010296518      2.4944858441
H              1.0000      1.3627145582      0.5769039780      3.2344410706
H              1.0000     -0.0596003078      1.6022394698      3.0231635832
H              1.0000      1.2620007172      1.6406023396      1.8292454525
H              1.0000     -0.9857364296     -2.0085696706      2.1692222753
H              1.0000     -1.6118412092     -0.5906721917      3.0477774412
H              1.0000     -0.0691932871     -1.3203917836      3.5015497736
SI            14.0000      1.7629264275      1.4892407974     -2.3577263246
O              8.0000      1.3482606166      1.1110724016     -0.7824497016
H              1.0000      1.2935561990      0.4641813349     -3.3178965375
H              1.0000      3.2353652892      1.5510647008     -2.4214192185
H              1.0000      1.2033736385      2.7988954808     -2.7566676789
H              1.0000      1.4971569257     -0.3579069717      0.4561625386
#image =   14, Energy=     -732.9858110938, Grad RMS=      0.000467786055
C              6.0000     -2.3919885596     -2.1378454257     -1.6742271438
C              6.0000     -1.2887983602     -1.4025034165     -0.9169233074
H              1.0000     -3.1135041338     -2.5817033461     -0.9861105957
H              1.0000     -1.9730777188     -2.9417724804     -2.2793960444
H              1.0000     -2.9346957933     -1.4665386392     -2.3424954239
H              1.0000     -0.7340767744     -2.0976673013     -0.2889838905
C              6.0000     -1.8480313230     -0.2781015098     -0.0548259353
H              1.0000     -0.5700897907     -0.9812395412     -1.6233253848
H              1.0000     -2.5948917011     -0.6800414298      0.6415499518
H              1.0000     -2.3747065079      0.4310346849     -0.7025078697
N              7.0000     -0.8002552183      0.5060038931      0.6374700663
H              1.0000      0.4735587781      1.0186300137     -0.4468690968
H              1.0000     -1.2396824901      1.3366719591      1.0303992110
O              8.0000      1.0012378268     -0.9676627924      1.1232538132
C              6.0000      0.0120455094     -0.1340203838      1.7147835009
C              6.0000     -0.7764200594     -1.0429028395      2.6500849821
C              6.0000      0.6800973244      0.9961070835      2.4993755123
H              1.0000      1.3469024033      0.5654254477      3.2456819548
H              1.0000     -0.0591113895      1.6130267074      3.0143591863
H              1.0000      1.2696651226      1.6229090328      1.8303230272
H              1.0000     -1.1143428470     -1.9410720779      2.1360855255
H              1.0000     -1.6358944889     -0.5135094415      3.0625495674
H              1.0000     -0.1340403455     -1.3535115638      3.4748033836
SI            14.0000      1.7296424809      1.5148891290     -2.3792083923
O              8.0000      1.4109043621      1.0933571454     -0.7914346363
H              1.0000      1.1890788180      0.5193617333     -3.3336908806
H              1.0000      3.1957324767      1.5733890611     -2.5231548624
H              1.0000      1.1478358817      2.8348948118     -2.7113757705
H              1.0000      1.5117209536     -0.4180420687      0.4986623739
#image =   15, Energy=     -732.9865054778, Grad RMS=      0.000024278205
C              6.0000     -2.3848954244     -2.1311301915     -1.6634847532
C              6.0000     -1.2616180937     -1.4053575711     -0.9286673373
H              1.0000     -3.0793660368     -2.5924719604     -0.9591499802
H              1.0000     -1.9874670820     -2.9187196908     -2.3029912370
H              1.0000     -2.9528684789     -1.4435649889     -2.2927997702
H              1.0000     -0.6885770111     -2.1064485309     -0.3230141116
C              6.0000     -1.8144768546     -0.2930851992     -0.0464868131
H              1.0000     -0.5621470629     -0.9729492040     -1.6476509840
H              1.0000     -2.5281727884     -0.7137624807      0.6720312677
H              1.0000     -2.3728609171      0.4094996852     -0.6716367359
N              7.0000     -0.7666383621      0.5040377894      0.6229191707
H              1.0000      0.5389798701      0.9879331160     -0.4394749222
H              1.0000     -1.2021662708      1.3419972212      1.0047838680
O              8.0000      0.9861462309     -1.0017782527      1.1634849146
C              6.0000      0.0059329029     -0.1336958404      1.7213972462
C              6.0000     -0.8320286153     -1.0123549360      2.6379311252
C              6.0000      0.6789149200      0.9921972893      2.5019018009
H              1.0000      1.3321701400      0.5564981293      3.2559467554
H              1.0000     -0.0587477910      1.6230025663      3.0023123017
H              1.0000      1.2782267647      1.6067669994      1.8299150088
H              1.0000     -1.2251071338     -1.8722770647      2.0989837905
H              1.0000     -1.6598042527     -0.4440934225      3.0646204087
H              1.0000     -0.2026873252     -1.3805927435      3.4468682096
SI            14.0000      1.6926694424      1.5367751226     -2.3917716128
O              8.0000      1.4686136859      1.0732299474     -0.7985739787
H              1.0000      1.0841884778      0.5694328782     -3.3348920609
H              1.0000      3.1479748312      1.5952094752     -2.6166824070
H              1.0000      1.0932663035      2.8645908344     -2.6602754768
H              1.0000      1.5258158612     -0.4777709295      0.5438658121
----------------------------------------------------------------------------------------------------
 CPU     0: STEP CPU TIME=     0.04 TOTAL CPU TIME=       5243.0 (     87.4 MIN)
 TOTAL WALL CLOCK TIME=      43075.4 SECONDS, CPU UTILIZATION IS    12.17%
               3514892  WORDS OF DYNAMIC MEMORY USED
 EXECUTION OF GAMESS TERMINATED NORMALLY Thu Feb 27 01:42:42 2020
 DDI: 34323984 bytes (32.7 MB / 4 MWords) used by master data server.

 ----------------------------------------
 CPU timing information for all processes
 ========================================
 0: 4873.971 + 369.03 = 5242.974
 1: 4854.17 + 334.292 = 5188.310
 2: 4856.88 + 326.876 = 5182.964
 3: 4863.313 + 332.52 = 5195.366
 4: 4864.565 + 330.691 = 5195.256
 5: 4864.419 + 324.661 = 5189.80
 6: 4735.382 + 352.995 = 5088.377
 7: 4717.79 + 325.756 = 5042.835
 8: 4740.406 + 314.666 = 5055.72
 9: 4745.746 + 323.847 = 5069.594
 10: 4734.332 + 322.776 = 5057.108
 11: 4740.660 + 316.938 = 5057.598
 12: 4782.853 + 348.350 = 5131.203
 13: 4769.89 + 327.973 = 5097.62
 14: 4765.371 + 319.166 = 5084.538
 15: 4782.86 + 326.30 = 5108.116
 16: 4757.848 + 324.932 = 5082.781
 17: 4776.278 + 320.287 = 5096.565
 18: 4770.907 + 343.788 = 5114.695
 19: 4768.550 + 323.230 = 5091.781
 20: 4767.382 + 312.841 = 5080.224
 21: 4761.592 + 319.870 = 5081.462
 22: 4766.519 + 322.154 = 5088.673
 23: 4742.350 + 312.194 = 5054.545
 24: 4660.139 + 524.813 = 5184.952
 25: 4666.376 + 506.14 = 5172.391
 26: 4669.837 + 500.769 = 5170.607
 27: 4678.16 + 511.498 = 5189.515
 28: 4704.581 + 529.432 = 5234.14
 29: 4706.25 + 505.835 = 5211.861
 30: 4669.540 + 325.610 = 4995.150
 31: 4657.869 + 311.855 = 4969.724
 32: 4677.487 + 302.658 = 4980.146
 33: 4658.692 + 309.645 = 4968.338
 34: 4655.425 + 308.163 = 4963.588
 35: 4674.110 + 300.794 = 4974.904
 36: 267.651 + 1001.148 = 1268.800
 37: 268.644 + 1001.116 = 1269.761
 38: 267.463 + 1005.346 = 1272.810
 39: 268.237 + 1017.805 = 1286.43
 40: 269.913 + 1021.762 = 1291.676
 41: 269.843 + 1017.700 = 1287.544
 42: 265.194 + 937.618 = 1202.812
 43: 262.616 + 925.550 = 1188.166
 44: 264.224 + 930.358 = 1194.583
 45: 264.67 + 942.845 = 1206.913
 46: 264.797 + 948.683 = 1213.481
 47: 263.23 + 938.516 = 1201.539
 48: 263.924 + 919.491 = 1183.416
 49: 264.88 + 908.923 = 1173.12
 50: 262.880 + 921.939 = 1184.820
 51: 262.746 + 914.263 = 1177.10
 52: 265.177 + 925.862 = 1191.40
 53: 263.615 + 923.158 = 1186.773
 54: 229.287 + 756.341 = 985.628
 55: 229.31 + 742.102 = 971.134
 56: 230.276 + 747.490 = 977.766
 57: 229.724 + 749.255 = 978.979
 58: 230.693 + 759.807 = 990.500
 59: 230.798 + 757.27 = 987.825
 60: 199.916 + 670.657 = 870.573
 61: 200.638 + 674.303 = 874.941
 62: 200.680 + 672.578 = 873.258
 63: 199.713 + 662.776 = 862.490
 64: 199.13 + 669.507 = 868.521
 65: 199.595 + 681.86 = 880.681
 66: 257.721 + 932.685 = 1190.406
 67: 256.388 + 936.948 = 1193.337
 68: 255.154 + 940.499 = 1195.654
 69: 256.179 + 935.268 = 1191.447
 70: 260.258 + 955.511 = 1215.769
 71: 259.528 + 949.472 = 1209.00
 ----------------------------------------
 ddikick.x: exited gracefully.
----- accounting info -----
Files used on the master node alpha1 were:
-rw-r--r-- 1 asada3 asada 337209301 Feb 27 01:42 /scr/asada3/exam12.dat
-rw-r--r-- 1 asada3 asada   1362340 Feb 26 13:44 /scr/asada3/exam12.F05
-rw-r--r-- 1 asada3 asada  75366400 Feb 27 01:42 /scr/asada3/exam12.F10
-rw-r--r-- 1 asada3 asada   2688367 Feb 27 01:42 /scr/asada3/exam12.trj
Files from alpha2 are:
Files from alpha3 are:
Files from alpha4 are:
Files from alpha5 are:
Files from alpha6 are:
Thu Feb 27 01:42:52 JST 2020
0.439u 0.635s 11:58:09.35 0.0%	0+0k 0+666704io 0pf+0w
