----- GAMESS execution script 'rungms' -----
This job is running on host alpha1
under operating system Linux at Wed Feb 26 01:11:26 JST 2020
Available scratch disk space (Kbyte units) at beginning of the job is
Filesystem      1K-blocks      Used Available Use% Mounted on
/dev/sda2      1440803456 586714104 780830808  43% /scr
GAMESS temporary binary files will be written to /scr/asada3
GAMESS supplementary output files will be written to /scr/asada3
Copying input file exam11.inp to your run's scratch directory...
Deleting old files...
Using 6 nodes and 36 cores from machine1.lst.

 Distributed Data Interface kickoff program.
 Initiating 36 compute processes on 6 nodes to run the following command:
 /home/users/asada3/haruta/bin/gamess-dev/gamess/gamess.00.x exam11 

          ******************************************************
          *         GAMESS VERSION = 30 SEP 2018 (R3)         *
          *             FROM IOWA STATE UNIVERSITY             *
          * M.W.SCHMIDT, K.K.BALDRIDGE, J.A.BOATZ, S.T.ELBERT, *
          *   M.S.GORDON, J.H.JENSEN, S.KOSEKI, N.MATSUNAGA,   *
          *          K.A.NGUYEN, S.J.SU, T.L.WINDUS,           *
          *       TOGETHER WITH M.DUPUIS, J.A.MONTGOMERY       *
          *         J.COMPUT.CHEM.  14, 1347-1363(1993)        *
          **************** 64 BIT INTEL VERSION ****************

  SINCE 1993, STUDENTS AND POSTDOCS WORKING AT IOWA STATE UNIVERSITY
  AND ALSO IN THEIR VARIOUS JOBS AFTER LEAVING ISU HAVE MADE IMPORTANT
  CONTRIBUTIONS TO THE CODE:
     IVANA ADAMOVIC, CHRISTINE AIKENS, YURI ALEXEEV, POOJA ARORA,
     ANDREY ASADCHEV, ROB BELL, PRADIPTA BANDYOPADHYAY, JONATHAN BENTZ,
     BRETT BODE, KURT BRORSEN, CALEB CARLIN, GALINA CHABAN, WEI CHEN,
     CHEOL HO CHOI, PAUL DAY, ALBERT DEFUSCO, NUWAN DESILVA, TIM DUDLEY,
     DMITRI FEDOROV, ALEX FINDLATER, GRAHAM FLETCHER, MARK FREITAG,
     KURT GLAESEMANN, ANASTASIA GUNINA,
     DAN KEMP, GRANT MERRILL, NORIYUKI MINEZAWA, JONATHAN MULLIN,
     TAKESHI NAGATA, SEAN NEDD, HEATHER NETZLOFF, BOSILJKA NJEGIC, RYAN OLSON,
     MIKE PAK, BUU PHAM,
     SPENCER PRUITT, LUKE ROSKOP, JIM SHOEMAKER, LYUDMILA SLIPCHENKO,
     TONY SMITH, SAROM SOK LEANG, JIE SONG, TETSUYA TAKETSUGU, SIMON WEBB,
     PENG XU, SOOHAENG YOO, FEDERICO ZAHARIEV

  ADDITIONAL CODE HAS BEEN PROVIDED BY COLLABORATORS IN OTHER GROUPS:
     IOWA STATE UNIVERSITY:
          JOE IVANIC, AARON WEST, LAIMUTIS BYTAUTAS, KLAUS RUEDENBERG
     UNIVERSITY OF TOKYO: KIMIHIKO HIRAO, TAKAHITO NAKAJIMA,
          TAKAO TSUNEDA, MUNEAKI KAMIYA, SUSUMU YANAGISAWA,
          KIYOSHI YAGI, MAHITO CHIBA, SEIKEN TOKURA, NAOAKI KAWAKAMI
     UNIVERSITY OF AARHUS: FRANK JENSEN
     UNIVERSITY OF IOWA: VISVALDAS KAIRYS, HUI LI
     NATIONAL INST. OF STANDARDS AND TECHNOLOGY: WALT STEVENS, DAVID GARMER
     UNIVERSITY OF PISA: BENEDETTA MENNUCCI, JACOPO TOMASI
     UNIVERSITY OF MEMPHIS: HENRY KURTZ, PRAKASHAN KORAMBATH
     UNIVERSITY OF ALBERTA: TOBY ZENG, MARIUSZ KLOBUKOWSKI
     UNIVERSITY OF NEW ENGLAND: MARK SPACKMAN
     MIE UNIVERSITY: HIROAKI UMEDA
     NAT. INST. OF ADVANCED INDUSTRIAL SCIENCE AND TECHNOLOGY: KAZUO KITAURA
     MICHIGAN STATE UNIVERSITY:
          KAROL KOWALSKI, MARTA WLOCH, JEFFREY GOUR, JESSE LUTZ,
          WEI LI, JUN SHEN, J. EMILIANO DEUSTUA, PIOTR PIECUCH
     UNIVERSITY OF MINNESOTA:
          YINAN SHU
     UNIVERSITY OF SILESIA: MONIKA MUSIAL, STANISLAW KUCHARSKI
     FACULTES UNIVERSITAIRES NOTRE-DAME DE LA PAIX:
          OLIVIER QUINET, BENOIT CHAMPAGNE
     UNIVERSITY OF CALIFORNIA - SANTA BARBARA: BERNARD KIRTMAN
     INSTITUTE FOR MOLECULAR SCIENCE:
          KAZUYA ISHIMURA, MICHIO KATOUDA, AND SHIGERU NAGASE
     UNIVERSITY OF NOTRE DAME: ANNA POMOGAEVA, DAN CHIPMAN
     KYUSHU UNIVERSITY:
          HARUYUKI NAKANO,
          FENG LONG GU, JACEK KORCHOWIEC, MARCIN MAKOWSKI, AND YURIKO AOKI,
          HIROTOSHI MORI AND EISAKU MIYOSHI
     PENNSYLVANIA STATE UNIVERSITY:
          TZVETELIN IORDANOV, CHET SWALINA, JONATHAN SKONE,
          SHARON HAMMES-SCHIFFER
     WASEDA UNIVERSITY:
          MASATO KOBAYASHI, TOMOKO AKAMA, TSUGUKI TOUMA,
          TAKESHI YOSHIKAWA, YASUHIRO IKABATA, JUNJI SEINO,
          YUYA NAKAJIMA, HIROMI NAKAI
     NANJING UNIVERSITY: SHUHUA LI
     UNIVERSITY OF NEBRASKA:
          PEIFENG SU, DEJUN SI, NANDUN THELLAMUREGE, YALI WANG, HUI LI
     UNIVERSITY OF ZURICH: ROBERTO PEVERATI, KIM BALDRIDGE
     N. COPERNICUS UNIVERSITY AND JACKSON STATE UNIVERSITY:
          MARIA BARYSZ
     UNIVERSITY OF COPENHAGEN: Jimmy Kromann, CASPER STEINMANN
     TOKYO INSTITUTE OF TECHNOLOGY: HIROYA NAKATA
     NAGOYA UNIVERSITY: YOSHIO NISHIMOTO, STEPHAN IRLE
     MOSCOW STATE UNIVERSITY: VLADIMIR MIRONOV


 PARALLEL VERSION RUNNING ON       36 PROCESSORS IN        6 NODES.

 EXECUTION OF GAMESS BEGUN Wed Feb 26 01:11:27 2020

            ECHO OF THE FIRST FEW INPUT CARDS -
 INPUT CARD> $CONTRL SCFTYP=RHF MULT=1   MAXIT=100  $END                                    
 INPUT CARD> $DFT    DFTTYP=M06-2X  $end                                                    
 INPUT CARD> $SCF DIRSCF=.TRUE. $END                                                        
 INPUT CARD> $CONTRL RUNTYP=NEBPATH  $END                                                   
 INPUT CARD> $CONTRL MAXIT=200       $END                                                   
 INPUT CARD> $BASIS GBASIS=N31 NGAUSS=6 NDFUNC=1 NPFUNC=1 DIFFSP=.TRUE. $END                
 INPUT CARD> $GUESS  GUESS=MOREAD  NORB=289  $END                                           
 INPUT CARD> $SYSTEM TIMLIM=500000 MWORDS=80 MEMDDI=500 $END                                
 INPUT CARD> $NEB   MORINT=.TRUE.  MAXCYC=50  $END                                          
 INPUT CARD>-----------------------------------                                             
 INPUT CARD> TOTAL NUMBER OF BASIS SET SHELLS             =  108                            
 INPUT CARD> NUMBER OF CARTESIAN GAUSSIAN BASIS FUNCTIONS =  289                            
 INPUT CARD> NUMBER OF ELECTRONS                          =   92                            
 INPUT CARD> NUMBER OF OCCUPIED ORBITALS (ALPHA)          =   46                            
 INPUT CARD> NUMBER OF OCCUPIED ORBITALS (BETA )          =   46                            
 INPUT CARD> TOTAL NUMBER OF ATOMS                        =   29                            
 INPUT CARD>------                                                                          
 INPUT CARD>Nstep=   62  Energy =     -734.5776686443  gRMS =   0.0000323                   
 INPUT CARD>----- RESULTS FROM SUCCESSFUL RHF      GEOMETRY SEARCH -----                    
 INPUT CARD> $DATA                                                                          
 INPUT CARD>Reactant...                                                                     
 INPUT CARD>C1                                                                              
 INPUT CARD>C           6.0  -7.8608255018   1.9725828060  -2.0311133129                    
 INPUT CARD>C           6.0  -7.0978804664   2.9210748181  -1.1097653866                    
 INPUT CARD>H           1.0  -8.7168284057   1.5261741176  -1.5134378450                    
 INPUT CARD>H           1.0  -7.2207825630   1.1587087043  -2.3815365905                    
 INPUT CARD>H           1.0  -8.2430543497   2.5002369149  -2.9112977216                    
 INPUT CARD>H           1.0  -6.6921151931   2.3761509317  -0.2502036207                    
 INPUT CARD>C           6.0  -7.9742210774   4.0626160967  -0.6080625483                    
 INPUT CARD>H           1.0  -6.2327400661   3.3441882746  -1.6367422655                    
 INPUT CARD>H           1.0  -8.8071371443   3.6491947442  -0.0241989949                    
 INPUT CARD>H           1.0  -8.4195537385   4.5769079145  -1.4759031841                    
 INPUT CARD>N           7.0  -7.2063947144   4.9609126256   0.2593532238                    
 INPUT CARD>H           1.0  -6.4283341206   5.3608111776  -0.2676428866                    
 INPUT CARD>H           1.0  -7.7878212108   5.7367808497   0.5638841311                    
 INPUT CARD>O           8.0  -4.3972605056   3.3695617300   0.8262730597                    
 INPUT CARD>C           6.0  -5.0170087161   3.7416631698   1.8106816681                    
 INPUT CARD>C           6.0  -5.9197858031   2.8000314776   2.5597582209                    
 INPUT CARD>C           6.0  -4.8871592981   5.1444655887   2.3452211710                    
 INPUT CARD>H           1.0  -4.1736283436   5.1286646955   3.1780094584                    
 INPUT CARD>H           1.0  -5.8481353609   5.4985357106   2.7235259337                    
 INPUT CARD>H           1.0  -4.5153701592   5.8145856959   1.5683618456                    
 INPUT CARD>H           1.0  -5.7459586190   1.7724323903   2.2399002866                    
 INPUT CARD>H           1.0  -6.9479567527   3.0950553127   2.3206812881                    
 INPUT CARD>H           1.0  -5.7819534606   2.8964715190   3.6406386580                    
 INPUT CARD>SI         14.0  -3.7308092573   5.3638137160  -2.5457582470                    
 INPUT CARD>O           8.0  -4.4052263193   5.3739125741  -1.0235020325                    
 INPUT CARD>H           1.0  -4.1797529667   4.1839026242  -3.3306214232                    
 INPUT CARD>H           1.0  -2.2468463832   5.3455306562  -2.4870590790                    
 INPUT CARD>H           1.0  -4.1873697762   6.6025636311  -3.2149741250                    
   80000000 WORDS OF MEMORY AVAILABLE

     BASIS OPTIONS
     -------------
     GBASIS=N31          IGAUSS=       6      POLAR=POPN31  
     NDFUNC=       1     NFFUNC=       0     DIFFSP=       T
     NPFUNC=       1      DIFFS=       F     BASNAM=        


     RUN TITLE
     ---------
 Reactant...                                                                     

 THE POINT GROUP OF THE MOLECULE IS C1      
 THE ORDER OF THE PRINCIPAL AXIS IS     0

 ATOM      ATOMIC                      COORDINATES (BOHR)
           CHARGE         X                   Y                   Z
 C           6.0   -14.8548062357        3.7276409914       -3.8382476114
 C           6.0   -13.4130491751        5.5200309958       -2.0971524913
 H           1.0   -16.4724171688        2.8840508918       -2.8599828265
 H           1.0   -13.6453004610        2.1896419507       -4.5004515858
 H           1.0   -15.5771140228        4.7247626735       -5.5015549625
 H           1.0   -12.6462639932        4.4902741664       -0.4728162843
 C           6.0   -15.0690928018        7.6772312161       -1.1490715997
 H           1.0   -11.7781708776        6.3195994903       -3.0929943943
 H           1.0   -16.6430759390        6.8959781424       -0.0457294695
 H           1.0   -15.9106495047        8.6491018294       -2.7890526024
 N           7.0   -13.6181113696        9.3747655114        0.4901065270
 H           1.0   -12.1477900455       10.1304641976       -0.5057717182
 H           1.0   -14.7168481298       10.8409438575        1.0655864966
 O           8.0    -8.3096174522        6.3675483684        1.5614296739
 C           6.0    -9.4807717514        7.0707181293        3.4216922037
 C           6.0   -11.1867730739        5.2912922497        4.8372416323
 C           6.0    -9.2353919318        9.7216303159        4.4318253938
 H           1.0    -7.8870139440        9.6917709574        6.0055670628
 H           1.0   -11.0513733712       10.3907258267        5.1467177351
 H           1.0    -8.5328123340       10.9879736974        2.9637741378
 H           1.0   -10.8582873267        3.3494115494        4.2327977815
 H           1.0   -13.1297344371        5.8488064578        4.3854517393
 H           1.0   -10.9263077143        5.4735375022        6.8798094839
 SI         14.0    -7.0502072088       10.1361381724       -4.8107855178
 O           8.0    -8.3246706574       10.1552222470       -1.9341383893
 H           1.0    -7.8985878034        7.9064295190       -6.2939618587
 H           1.0    -4.2459240008       10.1015881992       -4.6998601746
 H           1.0    -7.9129814863       12.4770360793       -6.0754201539
 H           1.0    -7.9623893936        8.7314326142       -0.8085750892

          INTERNUCLEAR DISTANCES (ANGS.)
          ------------------------------

                1 C          2 C          3 H          4 H          5 H     

   1 C       0.0000000    1.5266317 *  1.0954495 *  1.0930885 *  1.0950992 *
   2 C       1.5266317 *  0.0000000    2.1747855 *  2.1767961 *  2.1757864 *
   3 H       1.0954495 *  2.1747855 *  0.0000000    1.7682702 *  1.7684096 *
   4 H       1.0930885 *  2.1767961 *  1.7682702 *  0.0000000    1.7678757 *
   5 H       1.0950992 *  2.1757864 *  1.7684096 *  1.7678757 *  0.0000000  
   6 H       2.1680384 *  1.0956432 *  2.5333150 *  2.5108236 *  3.0825690  
   7 C       2.5310415 *  1.5240719 *  2.7936907 *  3.4850478    2.7961031 *
   8 H       2.1650617 *  1.0978149 *  3.0807587    2.5114274 *  2.5254918 *
   9 H       2.7810499 *  2.1517833 *  2.5948419 *  3.7783703    3.1581058  
  10 H       2.7208353 *  2.1500373 *  3.0654131    3.7338064    2.5306268 *
  11 N       3.8216007    2.4591054 *  4.1498948    4.6293910    4.1451919  
  12 H       4.0794547    2.6664163 *  4.6361247    4.7701348    4.2970927  
  13 H       4.5725844    3.3474350    4.7861812    5.4731874    4.7706753  
  14 O       4.7023919    3.3530186    5.2469984    4.8114645    5.4327977  
  15 C       5.0966977    3.6786415    5.4448901    5.3947166    5.8519739  
  16 C       5.0525645    3.8558996    5.1026548    5.3668359    5.9514626  
  17 C       6.1689411    4.6655854    6.5305167    6.6086530    6.7738444  
  18 H       7.1197778    5.6400103    7.4584370    7.4802575    7.7812931  
  19 H       6.2521884    4.7853202    6.4777248    6.8395849    6.8173800  
  20 H       6.2377303    4.7131868    6.7483490    6.6781842    6.7043185  
  21 H       4.7701446    3.7904264    4.7931469    4.8897281    5.7706176  
  22 H       4.5859994    3.4381260    4.5045271    5.0926148    5.4226092  
  23 H       6.1109778    4.9293618    6.0873402    6.4309131    7.0101277  
  24 SI      5.3686442    4.4007065    6.3760136    5.4671556    5.3566825  
  25 O       4.9523217    3.6433832    5.7995725    5.2478146    5.1527379  
  26 H       4.4865300    3.8784538    5.5633381    4.3932245    4.4182554  
  27 H       6.5651676    5.5953066    7.5760207    6.5023576    6.6505778  
  28 H       6.0276468    5.1435723    7.0129132    6.2874293    5.7766670  
  29 H       4.7837815    3.4165031    5.5707241    4.9844018    5.1865174  

                6 H          7 C          8 H          9 H         10 H     

   1 C       2.1680384 *  2.5310415 *  2.1650617 *  2.7810499 *  2.7208353 *
   2 C       1.0956432 *  1.5240719 *  1.0978149 *  2.1517833 *  2.1500373 *
   3 H       2.5333150 *  2.7936907 *  3.0807587    2.5948419 *  3.0654131  
   4 H       2.5108236 *  3.4850478    2.5114274 *  3.7783703    3.7338064  
   5 H       3.0825690    2.7961031 *  2.5254918 *  3.1581058    2.5306268 *
   6 H       0.0000000    2.1484933 *  1.7523160 *  2.4789184 *  3.0544582  
   7 C       2.1484933 *  0.0000000    2.1464102 *  1.0979813 *  1.1027079 *
   8 H       1.7523160 *  2.1464102 *  0.0000000    3.0530059    2.5154763 *
   9 H       2.4789184 *  1.0979813 *  3.0530059    0.0000000    1.7658759 *
  10 H       3.0544582    1.1027079 *  2.5154763 *  1.7658759 *  0.0000000  
  11 N       2.6842363 *  1.4659141 *  2.6752531 *  2.0888710 *  2.1518200 *
  12 H       2.9963447 *  2.0471840 *  2.4452930 *  2.9406801 *  2.4575095 *
  13 H       3.6272778    2.0520798 *  3.6035445    2.3964270 *  2.4300460 *
  14 O       2.7225035 *  3.9156468    3.0718193    4.4998344    4.7892111  
  15 C       2.9862775 *  3.8338544    3.6770533    4.2119367    4.8038096  
  16 C       2.9448350 *  3.9811949    4.2431902    3.9667003    5.0687960  
  17 C       4.2021021    4.4070663    4.5724850    4.8183206    5.2345891  
  18 H       5.0667300    5.4694886    5.5322808    5.8234332    6.3238612  
  19 H       4.3937064    4.2049480    4.8786343    4.4413676    5.0096702  
  20 H       4.4573796    4.4463322    4.3960113    5.0640332    5.1031407  
  21 H       2.7313560 *  4.2803022    4.2113810    4.2449024    5.3684625  
  22 H       2.6817397 *  3.2506819    4.0292435    3.0433675    4.3330749  
  23 H       4.0296131    4.9211170    5.3154876    4.8113786    5.9966492  
  24 SI      4.7921846    4.8429664    3.3413852    5.9217636    4.8732059  
  25 O       3.8489513    3.8248937    2.7992233 *  4.8321917    4.1176095  
  26 H       4.3667956    4.6717262    2.7908964 *  5.7123573    4.6443884  
  27 H       5.7949248    6.1627363    4.5404580    7.2097608    6.3020261  
  28 H       5.7381337    5.2523865    4.1582888    6.3439486    5.0039015  
  29 H       3.3484353    3.8061241    2.6772237 *  4.7125053    4.3348600  

               11 N         12 H         13 H         14 O         15 C     

   1 C       3.8216007    4.0794547    4.5725844    4.7023919    5.0966977  
   2 C       2.4591054 *  2.6664163 *  3.3474350    3.3530186    3.6786415  
   3 H       4.1498948    4.6361247    4.7861812    5.2469984    5.4448901  
   4 H       4.6293910    4.7701348    5.4731874    4.8114645    5.3947166  
   5 H       4.1451919    4.2970927    4.7706753    5.4327977    5.8519739  
   6 H       2.6842363 *  2.9963447 *  3.6272778    2.7225035 *  2.9862775 *
   7 C       1.4659141 *  2.0471840 *  2.0520798 *  3.9156468    3.8338544  
   8 H       2.6752531 *  2.4452930 *  3.6035445    3.0718193    3.6770533  
   9 H       2.0888710 *  2.9406801 *  2.3964270 *  4.4998344    4.2119367  
  10 H       2.1518200 *  2.4575095 *  2.4300460 *  4.7892111    4.8038096  
  11 N       0.0000000    1.0212845 *  1.0162516 *  3.2779614    2.9473039 *
  12 H       1.0212845 *  0.0000000    1.6373746 *  3.0474557    2.9887979 *
  13 H       1.0162516 *  1.6373746 *  0.0000000    4.1434860    3.6348866  
  14 O       3.2779614    3.0474557    4.1434860    0.0000000    1.2213139 *
  15 C       2.9473039 *  2.9887979 *  3.6348866    1.2213139 *  0.0000000  
  16 C       3.4083182    3.8484297    4.0121773    2.3764298 *  1.5042581 *
  17 C       3.1246423    3.0412306    3.4551177    2.3869411 *  1.5068006 *
  18 H       4.2124063    4.1243315    4.5017604    2.9453554 *  2.1224158 *
  19 H       2.8646211 *  3.0500311    2.9125924 *  3.1995526    2.1472441 *
  20 H       3.1118924    2.6900290 *  3.4240276    2.5578874 *  2.1464780 *
  21 H       4.0276353    4.4305611    4.7638526    2.5235195 *  2.1432374 *
  22 H       2.7923623 *  3.4789480    3.2818322    2.9689495 *  2.0992288 *
  23 H       4.2099930    4.6653448    4.6429819    3.1720408    2.1559759 *
  24 SI      4.4844926    3.5307873    5.1252635    3.9738889    4.8233028  
  25 O       3.1085094    2.1597361 *  3.7541199    2.7274812 *  3.3273282  
  26 H       4.7594351    3.9778221    5.5314339    4.2414894    5.2277692  
  27 H       5.6822382    4.7340132    6.3374863    4.4166621    5.3588026  
  28 H       4.8867658    3.9052057    5.2908033    5.1795786    5.8421116  
  29 H       3.0895814    2.3407680 *  3.8736798    1.7808555 *  2.5355609 *

               16 C         17 C         18 H         19 H         20 H     

   1 C       5.0525645    6.1689411    7.1197778    6.2521884    6.2377303  
   2 C       3.8558996    4.6655854    5.6400103    4.7853202    4.7131868  
   3 H       5.1026548    6.5305167    7.4584370    6.4777248    6.7483490  
   4 H       5.3668359    6.6086530    7.4802575    6.8395849    6.6781842  
   5 H       5.9514626    6.7738444    7.7812931    6.8173800    6.7043185  
   6 H       2.9448350 *  4.2021021    5.0667300    4.3937064    4.4573796  
   7 C       3.9811949    4.4070663    5.4694886    4.2049480    4.4463322  
   8 H       4.2431902    4.5724850    5.5322808    4.8786343    4.3960113  
   9 H       3.9667003    4.8183206    5.8234332    4.4413676    5.0640332  
  10 H       5.0687960    5.2345891    6.3238612    5.0096702    5.1031407  
  11 N       3.4083182    3.1246423    4.2124063    2.8646211 *  3.1118924  
  12 H       3.8484297    3.0412306    4.1243315    3.0500311    2.6900290 *
  13 H       4.0121773    3.4551177    4.5017604    2.9125924 *  3.4240276  
  14 O       2.3764298 *  2.3869411 *  2.9453554 *  3.1995526    2.5578874 *
  15 C       1.5042581 *  1.5068006 *  2.1224158 *  2.1472441 *  2.1464780 *
  16 C       0.0000000    2.5707421 *  2.9755391 *  2.7044184 *  3.4702719  
  17 C       2.5707421 *  0.0000000    1.0967736 *  1.0917670 *  1.0912372 *
  18 H       2.9755391 *  1.0967736 *  0.0000000    1.7740726 *  1.7827620 *
  19 H       2.7044184 *  1.0917670 *  1.7740726 *  0.0000000    1.7918021 *
  20 H       3.4702719    1.0912372 *  1.7827620 *  1.7918021 *  0.0000000  
  21 H       1.0901765 *  3.4812694    3.8231619    3.7587471    4.2783543  
  22 H       1.0960531 *  2.9064705 *  3.5450637    2.6736883 *  3.7254943  
  23 H       1.0938926 *  2.7444927 *  2.7898785 *  2.7597489 *  3.7965715  
  24 SI      6.1180794    5.0306002    5.7456854    5.6803676    4.2124477  
  25 O       4.6646016    3.4107479    4.2150306    4.0171801    2.6313652 *
  26 H       6.2959817    5.7998529    6.5768449    6.4159536    5.1741476  
  27 H       6.7409506    5.5102279    5.9876975    6.3358416    4.6704017  
  28 H       7.1279766    5.7906413    6.5607016    6.2644076    4.8588884  
  29 H       3.8924741    2.9014564 *  3.6417417    3.6570930    2.3456332 *

               21 H         22 H         23 H         24 SI        25 O     

   1 C       4.7701446    4.5859994    6.1109778    5.3686442    4.9523217  
   2 C       3.7904264    3.4381260    4.9293618    4.4007065    3.6433832  
   3 H       4.7931469    4.5045271    6.0873402    6.3760136    5.7995725  
   4 H       4.8897281    5.0926148    6.4309131    5.4671556    5.2478146  
   5 H       5.7706176    5.4226092    7.0101277    5.3566825    5.1527379  
   6 H       2.7313560 *  2.6817397 *  4.0296131    4.7921846    3.8489513  
   7 C       4.2803022    3.2506819    4.9211170    4.8429664    3.8248937  
   8 H       4.2113810    4.0292435    5.3154876    3.3413852    2.7992233 *
   9 H       4.2449024    3.0433675    4.8113786    5.9217636    4.8321917  
  10 H       5.3684625    4.3330749    5.9966492    4.8732059    4.1176095  
  11 N       4.0276353    2.7923623 *  4.2099930    4.4844926    3.1085094  
  12 H       4.4305611    3.4789480    4.6653448    3.5307873    2.1597361 *
  13 H       4.7638526    3.2818322    4.6429819    5.1252635    3.7541199  
  14 O       2.5235195 *  2.9689495 *  3.1720408    3.9738889    2.7274812 *
  15 C       2.1432374 *  2.0992288 *  2.1559759 *  4.8233028    3.3273282  
  16 C       1.0901765 *  1.0960531 *  1.0938926 *  6.1180794    4.6646016  
  17 C       3.4812694    2.9064705 *  2.7444927 *  5.0306002    3.4107479  
  18 H       3.8231619    3.5450637    2.7898785 *  5.7456854    4.2150306  
  19 H       3.7587471    2.6736883 *  2.7597489 *  5.6803676    4.0171801  
  20 H       4.2783543    3.7254943    3.7965715    4.2124477    2.6313652 *
  21 H       0.0000000    1.7890379 *  1.7963373 *  6.3135865    5.0416284  
  22 H       1.7890379 *  0.0000000    1.7723675 *  6.2593559    4.7793546  
  23 H       1.7963373 *  1.7723675 *  0.0000000    6.9689653    5.4577743  
  24 SI      6.3135865    6.2593559    6.9689653    0.0000000    1.6649938 *
  25 O       5.0416284    4.7793546    5.4577743    1.6649938 *  0.0000000  
  26 H       6.2688835    6.3863732    7.2679428    1.4865231 *  2.6057171 *
  27 H       6.8814942    7.0908001    7.4862242    1.4852359 *  2.6079511 *
  28 H       7.4508403    7.1110432    7.9546994    1.4801347 *  2.5218237 *
  29 H       4.1924672    4.1663729    4.6888195    2.2958587 *  0.9793808 *

               26 H         27 H         28 H         29 H     

   1 C       4.4865300    6.5651676    6.0276468    4.7837815  
   2 C       3.8784538    5.5953066    5.1435723    3.4165031  
   3 H       5.5633381    7.5760207    7.0129132    5.5707241  
   4 H       4.3932245    6.5023576    6.2874293    4.9844018  
   5 H       4.4182554    6.6505778    5.7766670    5.1865174  
   6 H       4.3667956    5.7949248    5.7381337    3.3484353  
   7 C       4.6717262    6.1627363    5.2523865    3.8061241  
   8 H       2.7908964 *  4.5404580    4.1582888    2.6772237 *
   9 H       5.7123573    7.2097608    6.3439486    4.7125053  
  10 H       4.6443884    6.3020261    5.0039015    4.3348600  
  11 N       4.7594351    5.6822382    4.8867658    3.0895814  
  12 H       3.9778221    4.7340132    3.9052057    2.3407680 *
  13 H       5.5314339    6.3374863    5.2908033    3.8736798  
  14 O       4.2414894    4.4166621    5.1795786    1.7808555 *
  15 C       5.2277692    5.3588026    5.8421116    2.5355609 *
  16 C       6.2959817    6.7409506    7.1279766    3.8924741  
  17 C       5.7998529    5.5102279    5.7906413    2.9014564 *
  18 H       6.5768449    5.9876975    6.5607016    3.6417417  
  19 H       6.4159536    6.3358416    6.2644076    3.6570930  
  20 H       5.1741476    4.6704017    4.8588884    2.3456332 *
  21 H       6.2688835    6.8814942    7.4508403    4.1924672  
  22 H       6.3863732    7.0908001    7.1110432    4.1663729  
  23 H       7.2679428    7.4862242    7.9546994    4.6888195  
  24 SI      1.4865231 *  1.4852359 *  1.4801347 *  2.2958587 *
  25 O       2.6057171 *  2.6079511 *  2.5218237 *  0.9793808 *
  26 H       0.0000000    2.4077178 *  2.4214362 *  2.9355828 *
  27 H       2.4077178 *  0.0000000    2.4239685 *  2.9383179 *
  28 H       2.4214362 *  2.4239685 *  0.0000000    3.4201247  
  29 H       2.9355828 *  2.9383179 *  3.4201247    0.0000000  

  * ... LESS THAN  3.000


     ATOMIC BASIS SET
     ----------------
 THE CONTRACTED PRIMITIVE FUNCTIONS HAVE BEEN UNNORMALIZED
 THE CONTRACTED BASIS FUNCTIONS ARE NOW NORMALIZED TO UNITY

  SHELL TYPE  PRIMITIVE        EXPONENT          CONTRACTION COEFFICIENT(S)

 C         

      1   S       1          3047.5248800    0.001834737132
      1   S       2           457.3695180    0.014037322813
      1   S       3           103.9486850    0.068842622264
      1   S       4            29.2101553    0.232184443216
      1   S       5             9.2866630    0.467941348435
      1   S       6             3.1639270    0.362311985337

      2   L       7             7.8682723   -0.119332419775    0.068999066591
      2   L       8             1.8812885   -0.160854151696    0.316423960957
      2   L       9             0.5442493    1.143456437840    0.744308290898

      3   L      10             0.1687145    1.000000000000    1.000000000000

      4   L      11             0.0438000    1.000000000000    1.000000000000

      5   D      12             0.8000000    1.000000000000

 C         

      6   S      13          3047.5248800    0.001834737132
      6   S      14           457.3695180    0.014037322813
      6   S      15           103.9486850    0.068842622264
      6   S      16            29.2101553    0.232184443216
      6   S      17             9.2866630    0.467941348435
      6   S      18             3.1639270    0.362311985337

      7   L      19             7.8682723   -0.119332419775    0.068999066591
      7   L      20             1.8812885   -0.160854151696    0.316423960957
      7   L      21             0.5442493    1.143456437840    0.744308290898

      8   L      22             0.1687145    1.000000000000    1.000000000000

      9   L      23             0.0438000    1.000000000000    1.000000000000

     10   D      24             0.8000000    1.000000000000

 H         

     11   S      25            18.7311370    0.033494604338
     11   S      26             2.8253944    0.234726953484
     11   S      27             0.6401217    0.813757326146

     12   S      28             0.1612778    1.000000000000

     13   P      29             1.1000000    1.000000000000

 H         

     14   S      30            18.7311370    0.033494604338
     14   S      31             2.8253944    0.234726953484
     14   S      32             0.6401217    0.813757326146

     15   S      33             0.1612778    1.000000000000

     16   P      34             1.1000000    1.000000000000

 H         

     17   S      35            18.7311370    0.033494604338
     17   S      36             2.8253944    0.234726953484
     17   S      37             0.6401217    0.813757326146

     18   S      38             0.1612778    1.000000000000

     19   P      39             1.1000000    1.000000000000

 H         

     20   S      40            18.7311370    0.033494604338
     20   S      41             2.8253944    0.234726953484
     20   S      42             0.6401217    0.813757326146

     21   S      43             0.1612778    1.000000000000

     22   P      44             1.1000000    1.000000000000

 C         

     23   S      45          3047.5248800    0.001834737132
     23   S      46           457.3695180    0.014037322813
     23   S      47           103.9486850    0.068842622264
     23   S      48            29.2101553    0.232184443216
     23   S      49             9.2866630    0.467941348435
     23   S      50             3.1639270    0.362311985337

     24   L      51             7.8682723   -0.119332419775    0.068999066591
     24   L      52             1.8812885   -0.160854151696    0.316423960957
     24   L      53             0.5442493    1.143456437840    0.744308290898

     25   L      54             0.1687145    1.000000000000    1.000000000000

     26   L      55             0.0438000    1.000000000000    1.000000000000

     27   D      56             0.8000000    1.000000000000

 H         

     28   S      57            18.7311370    0.033494604338
     28   S      58             2.8253944    0.234726953484
     28   S      59             0.6401217    0.813757326146

     29   S      60             0.1612778    1.000000000000

     30   P      61             1.1000000    1.000000000000

 H         

     31   S      62            18.7311370    0.033494604338
     31   S      63             2.8253944    0.234726953484
     31   S      64             0.6401217    0.813757326146

     32   S      65             0.1612778    1.000000000000

     33   P      66             1.1000000    1.000000000000

 H         

     34   S      67            18.7311370    0.033494604338
     34   S      68             2.8253944    0.234726953484
     34   S      69             0.6401217    0.813757326146

     35   S      70             0.1612778    1.000000000000

     36   P      71             1.1000000    1.000000000000

 N         

     37   S      72          4173.5114600    0.001834772160
     37   S      73           627.4579110    0.013994627002
     37   S      74           142.9020930    0.068586551812
     37   S      75            40.2343293    0.232240873040
     37   S      76            12.8202129    0.469069948082
     37   S      77             4.3904370    0.360455199063

     38   L      78            11.6263619   -0.114961181702    0.067579743878
     38   L      79             2.7162798   -0.169117478561    0.323907295893
     38   L      80             0.7722184    1.145851947027    0.740895139755

     39   L      81             0.2120315    1.000000000000    1.000000000000

     40   L      82             0.0639000    1.000000000000    1.000000000000

     41   D      83             0.8000000    1.000000000000

 H         

     42   S      84            18.7311370    0.033494604338
     42   S      85             2.8253944    0.234726953484
     42   S      86             0.6401217    0.813757326146

     43   S      87             0.1612778    1.000000000000

     44   P      88             1.1000000    1.000000000000

 H         

     45   S      89            18.7311370    0.033494604338
     45   S      90             2.8253944    0.234726953484
     45   S      91             0.6401217    0.813757326146

     46   S      92             0.1612778    1.000000000000

     47   P      93             1.1000000    1.000000000000

 O         

     48   S      94          5484.6716600    0.001831074430
     48   S      95           825.2349460    0.013950172200
     48   S      96           188.0469580    0.068445078098
     48   S      97            52.9645000    0.232714335992
     48   S      98            16.8975704    0.470192897984
     48   S      99             5.7996353    0.358520852987

     49   L     100            15.5396162   -0.110777549525    0.070874268231
     49   L     101             3.5999336   -0.148026262701    0.339752839147
     49   L     102             1.0137618    1.130767015354    0.727158577316

     50   L     103             0.2700058    1.000000000000    1.000000000000

     51   L     104             0.0845000    1.000000000000    1.000000000000

     52   D     105             0.8000000    1.000000000000

 C         

     53   S     106          3047.5248800    0.001834737132
     53   S     107           457.3695180    0.014037322813
     53   S     108           103.9486850    0.068842622264
     53   S     109            29.2101553    0.232184443216
     53   S     110             9.2866630    0.467941348435
     53   S     111             3.1639270    0.362311985337

     54   L     112             7.8682723   -0.119332419775    0.068999066591
     54   L     113             1.8812885   -0.160854151696    0.316423960957
     54   L     114             0.5442493    1.143456437840    0.744308290898

     55   L     115             0.1687145    1.000000000000    1.000000000000

     56   L     116             0.0438000    1.000000000000    1.000000000000

     57   D     117             0.8000000    1.000000000000

 C         

     58   S     118          3047.5248800    0.001834737132
     58   S     119           457.3695180    0.014037322813
     58   S     120           103.9486850    0.068842622264
     58   S     121            29.2101553    0.232184443216
     58   S     122             9.2866630    0.467941348435
     58   S     123             3.1639270    0.362311985337

     59   L     124             7.8682723   -0.119332419775    0.068999066591
     59   L     125             1.8812885   -0.160854151696    0.316423960957
     59   L     126             0.5442493    1.143456437840    0.744308290898

     60   L     127             0.1687145    1.000000000000    1.000000000000

     61   L     128             0.0438000    1.000000000000    1.000000000000

     62   D     129             0.8000000    1.000000000000

 C         

     63   S     130          3047.5248800    0.001834737132
     63   S     131           457.3695180    0.014037322813
     63   S     132           103.9486850    0.068842622264
     63   S     133            29.2101553    0.232184443216
     63   S     134             9.2866630    0.467941348435
     63   S     135             3.1639270    0.362311985337

     64   L     136             7.8682723   -0.119332419775    0.068999066591
     64   L     137             1.8812885   -0.160854151696    0.316423960957
     64   L     138             0.5442493    1.143456437840    0.744308290898

     65   L     139             0.1687145    1.000000000000    1.000000000000

     66   L     140             0.0438000    1.000000000000    1.000000000000

     67   D     141             0.8000000    1.000000000000

 H         

     68   S     142            18.7311370    0.033494604338
     68   S     143             2.8253944    0.234726953484
     68   S     144             0.6401217    0.813757326146

     69   S     145             0.1612778    1.000000000000

     70   P     146             1.1000000    1.000000000000

 H         

     71   S     147            18.7311370    0.033494604338
     71   S     148             2.8253944    0.234726953484
     71   S     149             0.6401217    0.813757326146

     72   S     150             0.1612778    1.000000000000

     73   P     151             1.1000000    1.000000000000

 H         

     74   S     152            18.7311370    0.033494604338
     74   S     153             2.8253944    0.234726953484
     74   S     154             0.6401217    0.813757326146

     75   S     155             0.1612778    1.000000000000

     76   P     156             1.1000000    1.000000000000

 H         

     77   S     157            18.7311370    0.033494604338
     77   S     158             2.8253944    0.234726953484
     77   S     159             0.6401217    0.813757326146

     78   S     160             0.1612778    1.000000000000

     79   P     161             1.1000000    1.000000000000

 H         

     80   S     162            18.7311370    0.033494604338
     80   S     163             2.8253944    0.234726953484
     80   S     164             0.6401217    0.813757326146

     81   S     165             0.1612778    1.000000000000

     82   P     166             1.1000000    1.000000000000

 H         

     83   S     167            18.7311370    0.033494604338
     83   S     168             2.8253944    0.234726953484
     83   S     169             0.6401217    0.813757326146

     84   S     170             0.1612778    1.000000000000

     85   P     171             1.1000000    1.000000000000

 SI        

     86   S     172         16192.1000000    0.001949239405
     86   S     173          2436.0900000    0.014855895466
     86   S     174           556.0010000    0.072568877851
     86   S     175           156.8130000    0.245654925022
     86   S     176            50.1692000    0.486059851646
     86   S     177            17.0300000    0.325719900585

     87   L     178           293.3500000   -0.002829912441    0.004433341604
     87   L     179            70.1173000   -0.036073731114    0.032440211739
     87   L     180            22.4301000   -0.116808100749    0.133719048387
     87   L     181             8.1942500    0.093576880711    0.326780118247
     87   L     182             3.1476800    0.601705518979    0.451139163247
     87   L     183             1.2151500    0.422072364043    0.264105095568

     88   L     184             1.6537000   -0.240599186106   -0.015177406538
     88   L     185             0.5407600    0.073795050368    0.275139118516
     88   L     186             0.2044060    1.040936478740    0.783008337279

     89   L     187             0.0723837    1.000000000000    1.000000000000

     90   L     188             0.0331000    1.000000000000    1.000000000000

     91   D     189             0.3950000    1.000000000000

 O         

     92   S     190          5484.6716600    0.001831074430
     92   S     191           825.2349460    0.013950172200
     92   S     192           188.0469580    0.068445078098
     92   S     193            52.9645000    0.232714335992
     92   S     194            16.8975704    0.470192897984
     92   S     195             5.7996353    0.358520852987

     93   L     196            15.5396162   -0.110777549525    0.070874268231
     93   L     197             3.5999336   -0.148026262701    0.339752839147
     93   L     198             1.0137618    1.130767015354    0.727158577316

     94   L     199             0.2700058    1.000000000000    1.000000000000

     95   L     200             0.0845000    1.000000000000    1.000000000000

     96   D     201             0.8000000    1.000000000000

 H         

     97   S     202            18.7311370    0.033494604338
     97   S     203             2.8253944    0.234726953484
     97   S     204             0.6401217    0.813757326146

     98   S     205             0.1612778    1.000000000000

     99   P     206             1.1000000    1.000000000000

 H         

    100   S     207            18.7311370    0.033494604338
    100   S     208             2.8253944    0.234726953484
    100   S     209             0.6401217    0.813757326146

    101   S     210             0.1612778    1.000000000000

    102   P     211             1.1000000    1.000000000000

 H         

    103   S     212            18.7311370    0.033494604338
    103   S     213             2.8253944    0.234726953484
    103   S     214             0.6401217    0.813757326146

    104   S     215             0.1612778    1.000000000000

    105   P     216             1.1000000    1.000000000000

 H         

    106   S     217            18.7311370    0.033494604338
    106   S     218             2.8253944    0.234726953484
    106   S     219             0.6401217    0.813757326146

    107   S     220             0.1612778    1.000000000000

    108   P     221             1.1000000    1.000000000000

 TOTAL NUMBER OF BASIS SET SHELLS             =  108
 NUMBER OF CARTESIAN GAUSSIAN BASIS FUNCTIONS =  289
 NUMBER OF ELECTRONS                          =   92
 CHARGE OF MOLECULE                           =    0
 SPIN MULTIPLICITY                            =    1
 NUMBER OF OCCUPIED ORBITALS (ALPHA)          =   46
 NUMBER OF OCCUPIED ORBITALS (BETA )          =   46
 TOTAL NUMBER OF ATOMS                        =   29
 THE NUCLEAR REPULSION ENERGY IS      667.0497426294

 *** WARNING ***
 KEYWORD DFTTYP IN $DFT IS NOW OBSOLETE.
 PLEASE ENTER DFTTYP IN THE $CONTRL GROUP IN FUTURE INPUT FILES.


     LEBEDEV GRID-BASED DFT OPTIONS
     ------------------------------
     DFTTYP=M06-2X  
     NRAD  =      99     NLEB  =     590
     NRAD0 =      24     NLEB0 =     110
     SWOFF =    5.00E-03 (PURE SCF -> DFT)
     SWITCH=    3.00E-04 (COARSE -> TIGHT GRID)
     THRESH=    0.00E+00 GTHRE=    1.00E+00

 GRIMME'S EMPIRICAL DISPERSION CORRECTION= F

     $CONTRL OPTIONS
     ---------------
 SCFTYP=RHF          RUNTYP=NEBPATH      EXETYP=RUN     
 MPLEVL=       0     CITYP =NONE         CCTYP =NONE         VBTYP =NONE    
 DFTTYP=M06-2X       TDDFT =NONE    
 MULT  =       1     ICHARG=       0     NZVAR =       0     COORD =UNIQUE  
 PP    =NONE         RELWFN=NONE         LOCAL =NONE         NUMGRD=       F
 ISPHER=      -1     NOSYM =       0     MAXIT =     200     UNITS =ANGS    
 PLTORB=       F     MOLPLT=       F     AIMPAC=       F     FRIEND=        
 NPRINT=       7     IREST =       0     GEOM  =INPUT   
 NORMF =       0     NORMP =       0     ITOL  =      20     ICUT  =       9
 INTTYP=BEST         GRDTYP=BEST         QMTTOL= 1.0E-06

     $SYSTEM OPTIONS
     ---------------
  REPLICATED MEMORY=    80000000 WORDS (ON EVERY NODE).
 DISTRIBUTED MEMDDI=         500 MILLION WORDS IN AGGREGATE,
 MEMDDI DISTRIBUTED OVER  36 PROCESSORS IS    13888888 WORDS/PROCESSOR.
 TOTAL MEMORY REQUESTED ON EACH PROCESSOR=    93888888 WORDS.
 TIMLIM=      500000.00 MINUTES, OR     347.2 DAYS.
 PARALL= T  BALTYP=  DLB     KDIAG=    0  COREFL= F
 MXSEQ2=     300 MXSEQ3=     150  mem10=         0

          ----------------
          PROPERTIES INPUT
          ----------------

     MOMENTS            FIELD           POTENTIAL          DENSITY
 IEMOM =       1   IEFLD =       0   IEPOT =       0   IEDEN =       0
 WHERE =COMASS     WHERE =NUCLEI     WHERE =NUCLEI     WHERE =NUCLEI  
 OUTPUT=BOTH       OUTPUT=BOTH       OUTPUT=BOTH       OUTPUT=BOTH    
 IEMINT=       0   IEFINT=       0                     IEDINT=       0
                                                       MORB  =       0
          EXTRAPOLATION IN EFFECT
          DIIS IN EFFECT
 ORBITAL PRINTING OPTION: NPREO=     1   289     2     1

     -------------------------------
     INTEGRAL TRANSFORMATION OPTIONS
     -------------------------------
     NWORD  =            0
     CUTOFF = 1.0E-09     MPTRAN =       0
     DIRTRF =       T     AOINTS =DUP     

          ----------------------
          INTEGRAL INPUT OPTIONS
          ----------------------
 NOPK  =       1 NORDER=       0 SCHWRZ=       T

     ------------------------------------------
     THE POINT GROUP IS C1 , NAXIS= 0, ORDER= 1
     ------------------------------------------

     DIMENSIONS OF THE SYMMETRY SUBSPACES ARE
 A   =  289

 ..... DONE SETTING UP THE RUN .....
 CPU     0: STEP CPU TIME=     0.20 TOTAL CPU TIME=          0.2 (      0.0 MIN)
 TOTAL WALL CLOCK TIME=          0.2 SECONDS, CPU UTILIZATION IS    95.24%

          ---------------------------------------
          Nudged Elastic Band / String Pathfinder
          ---------------------------------------
                                        Version 3
          implemented in March 2019
           by Nozomi Sawada, Mamoru Haruta, Toshio Asada, and Shiro Koseki,
          Osaka Prefecture University, Japan.
          Reference: Chem Phys Lett in progress.

     $NEB OPTIONS
     ------------
 Parallel computation                   (GOPARR) = T
 Output log level (1=minimum,9=maximum) (NPRINT) =        1
 Number of images                       (IMAGES) =       15
 Maximum cycle number                   (MAXCYC) =       50
 Method of path optimizing              (METHOD) = NEB     
 Tangent vector definition              (TANGNT) = ORIGINAL
 Unit for coordinates                   (UNTCRD) = ANGS    
 Unit for constants                     (UNTCNT) = ANGS    
 Generate initial guess MOs at first    (INIGSS) = T
 Generate initial guess MOs every time  (EVRGSS) = F
 Restart option                         (RESTRT) = F
 Number of the cycles                   (ISTART) =        0
 Caution for molecular orientation      (MORINT) = T
 Caution for molecular symmetry         (MOLSYM) = F
 Via-point structure                    (VIAPNT) = F
 Transition-state search                (TSLOCT) = F
 Optimizer                              (OPTMZR) = QUICKMIN
 Interpolation method for making images (INTERP) = IDPP    
 Coordinate fitting between images      (FITTNG) = ANGULAR 
 First end image condition              (FSTEND) = FIXED   
 Last end image condition               (LSTEND) = FIXED   
 Delta r for Climbing-end               (DELTAR) =    0.00000 [angs]
                                                 =    0.00000 [bohr]
 Dist change cycletime for climbing-end (SWCYCL) =        1
 Distance multiplier for optimizer      (DELTAT) =    0.01000 [angs/sqrt(kcal/mol)]
                                                 =    0.47338 [bohr/sqrt(hartree)]
 Spring force constant                  (SPFORC) =  500.00000 [kcal/mol/(angs^2)]
                                                 =    0.22313 [hartree/(bohr^2)]
 Tolerance for geometrical optimization (OPTTOL) =    5.00000 [kcal/mol/angs]
                                                 =    0.00422 [hartree/bohr]
 Tolerance MAX geometrical optimization (OPMTOL) =   10.00000 [kcal/mol/angs]
                                                 =    0.00843 [hartree/bohr]
 Tolerance for coordination displacement(CRDTOL) =    0.01000 [angs]
                                                 =    0.01890 [bohr]
 Tolerance MAX coordination displacement(CRMTOL) =    0.10000 [angs]
                                                 =    0.18897 [bohr]
 Coordinate fitting for initial path    (INIFIT) = RMS     
 IDPP interpolation optimize method     (IPMETH) = STRING  
 IDPP interpolation NEB/STR MAXCYC      (IPMXCY) =     3000
 IDPP interpolation NEB/STR DELTAT      (IPDLTT) =    0.10000
 IDPP interpolation NEB     SPFORC      (IPSPFC) =    0.01000
 IDPP interpolation NEB/STR OPTTOL      (IPOPTL) =    0.01000


--------------------------------- Checking the entered coordinates ---------------------------------
Coordinates of the reactant [angs]...
 C            6.0     -7.8608255018      1.9725828060     -2.0311133129
 C            6.0     -7.0978804664      2.9210748181     -1.1097653866
 H            1.0     -8.7168284057      1.5261741176     -1.5134378450
 H            1.0     -7.2207825630      1.1587087043     -2.3815365905
 H            1.0     -8.2430543497      2.5002369149     -2.9112977216
 H            1.0     -6.6921151931      2.3761509317     -0.2502036207
 C            6.0     -7.9742210774      4.0626160967     -0.6080625483
 H            1.0     -6.2327400661      3.3441882746     -1.6367422655
 H            1.0     -8.8071371443      3.6491947442     -0.0241989949
 H            1.0     -8.4195537385      4.5769079145     -1.4759031841
 N            7.0     -7.2063947144      4.9609126256      0.2593532238
 H            1.0     -6.4283341206      5.3608111776     -0.2676428866
 H            1.0     -7.7878212108      5.7367808497      0.5638841311
 O            8.0     -4.3972605056      3.3695617300      0.8262730597
 C            6.0     -5.0170087161      3.7416631698      1.8106816681
 C            6.0     -5.9197858031      2.8000314776      2.5597582209
 C            6.0     -4.8871592981      5.1444655887      2.3452211710
 H            1.0     -4.1736283436      5.1286646955      3.1780094584
 H            1.0     -5.8481353609      5.4985357106      2.7235259337
 H            1.0     -4.5153701592      5.8145856959      1.5683618456
 H            1.0     -5.7459586190      1.7724323903      2.2399002866
 H            1.0     -6.9479567527      3.0950553127      2.3206812881
 H            1.0     -5.7819534606      2.8964715190      3.6406386580
 SI          14.0     -3.7308092573      5.3638137160     -2.5457582470
 O            8.0     -4.4052263193      5.3739125741     -1.0235020325
 H            1.0     -4.1797529667      4.1839026242     -3.3306214232
 H            1.0     -2.2468463832      5.3455306562     -2.4870590790
 H            1.0     -4.1873697762      6.6025636311     -3.2149741250
 H            1.0     -4.2135153167      4.6204754927     -0.4278795415
Coordinates of the product [angs]...
 C            6.0     -7.9216234254      2.0875950405     -2.0074007403
 C            6.0     -6.8354984940      2.7574686583     -1.1684252268
 H            1.0     -8.7017597738      1.6564295334     -1.3707079416
 H            1.0     -7.5072587338      1.2807296890     -2.6168106225
 H            1.0     -8.4008269493      2.8048304427     -2.6822968825
 H            1.0     -6.3341862391      2.0226639593     -0.5326339868
 C            6.0     -7.4211801612      3.8744629584     -0.3086859167
 H            1.0     -6.0584426516      3.1797573148     -1.8173157240
 H            1.0     -8.1671312158      3.4539493283      0.3830041507
 H            1.0     -7.9565659024      4.5759010835     -0.9602899694
 N            7.0     -6.4026901290      4.6664154467      0.3998351757
 H            1.0     -5.1170197025      5.1565153561     -0.6410392690
 H            1.0     -6.8463685069      5.4931168731      0.7933685127
 O            8.0     -4.6637293160      3.1489227163      0.9055747099
 C            6.0     -5.6264441540      4.0030385764      1.4801473589
 C            6.0     -6.4774675222      3.1181753614      2.3844568856
 C            6.0     -4.9416164094      5.1127419097      2.2797498380
 H            1.0     -4.2807323753      4.6597594967      3.0217114074
 H            1.0     -5.6717123070      5.7413776769      2.8007593875
 H            1.0     -4.3427326686      5.7390379992      1.6111132934
 H            1.0     -6.8824803155      2.2700534427      1.8272057440
 H            1.0     -7.3024258536      3.6887057520      2.8224076523
 H            1.0     -5.8532644197      2.7235774602      3.1894623180
 SI          14.0     -3.9361556643      5.5890384772     -2.6113076622
 O            8.0     -4.1882860878      5.2304297296     -1.0106608803
 H            1.0     -4.6535826977      4.6365961349     -3.5018333571
 H            1.0     -2.4808457271      5.4934739153     -2.8617752965
 H            1.0     -4.4048749328      6.9599768041     -2.9445298539
 H            1.0     -4.1139431043      3.6685682033      0.2952176754

* Examine atom order of the reactant and product...
The atom orders are fine...

----------------------------- Coordinate fitting of initial structures -----------------------------
* Coordinate fitting of product image
Images are superimposed by translating and rotating the structure.
Finished coordinate fitting process...

* Interpolation of images...
Linear interpolation has processed.

* IDPP interpolation of images...
IDPP interpolation has processed.


---------------- [BEGIN] ENERGY and GRADIENT calculation (initial run) #IMAGE=    1 ----------------

*** Coordinate [angs] of #IMAGE=    1
 C            6.0     -2.2378007118     -2.1630353888     -1.7957664285
 C            6.0     -1.4748556764     -1.2145433767     -0.8744185022
 H            1.0     -3.0938036157     -2.6094440772     -1.2780909606
 H            1.0     -1.5977577730     -2.9769094905     -2.1461897061
 H            1.0     -2.6200295597     -1.6353812799     -2.6759508372
 H            1.0     -1.0690904031     -1.7594672631     -0.0148567363
 C            6.0     -2.3511962874     -0.0730020981     -0.3727156639
 H            1.0     -0.6097152761     -0.7914299202     -1.4013953811
 H            1.0     -3.1841123543     -0.4864234506      0.2111478895
 H            1.0     -2.7965289485      0.4412897197     -1.2405562997
 N            7.0     -1.5833699244      0.8252944308      0.4947001082
 H            1.0     -0.8053093306      1.2251929828     -0.0322960022
 H            1.0     -2.1647964208      1.6011626549      0.7992310155
 O            8.0      1.2257642844     -0.7660564648      1.0616199441
 C            6.0      0.6060160739     -0.3939550250      2.0460285525
 C            6.0     -0.2967610131     -1.3355867172      2.7951051053
 C            6.0      0.7358654919      1.0088473939      2.5805680554
 H            1.0      1.4493964464      0.9930465007      3.4133563428
 H            1.0     -0.2251105709      1.3629175158      2.9588728181
 H            1.0      1.1076546308      1.6789675011      1.8037087300
 H            1.0     -0.1229338290     -2.3631858045      2.4752471710
 H            1.0     -1.3249319627     -1.0405628821      2.5560281725
 H            1.0     -0.1589286706     -1.2391466758      3.8759855424
 SI          14.0      1.8922155327      1.2281955212     -2.3104113626
 O            8.0      1.2177984707      1.2382943793     -0.7881551481
 H            1.0      1.4432718233      0.0482844294     -3.0952745388
 H            1.0      3.3761784068      1.2099124614     -2.2517121946
 H            1.0      1.4356550138      2.4669454363     -2.9796272406
 H            1.0      1.4095094733      0.4848572979     -0.1925326571

*** START A SINGLE POINT CALCULATION ***

 * GENERATE INITIAL GUESS ORBITALS *

 ...... END OF ONE-ELECTRON INTEGRALS ......
 CPU     0: STEP CPU TIME=     0.12 TOTAL CPU TIME=          0.3 (      0.0 MIN)
 TOTAL WALL CLOCK TIME=          0.7 SECONDS, CPU UTILIZATION IS    47.06%

          -------------
          GUESS OPTIONS
          -------------
          GUESS =MOREAD            NORB  =     289          NORDER=       0
          MIX   =       F          PRTMO =       F          PUNMO =       F
          TOLZ  = 1.0E-08          TOLE  = 1.0E-05
          SYMDEN=       F          PURIFY=       F

 INITIAL GUESS ORBITALS GENERATED BY MOREAD   ROUTINE.

 SYMMETRIES FOR INITIAL GUESS ORBITALS FOLLOW.   BOTH SET(S).
    46 ORBITALS ARE OCCUPIED (   14 CORE ORBITALS).
     1=A        2=A        3=A        4=A        5=A        6=A        7=A   
     8=A        9=A       10=A       11=A       12=A       13=A       14=A   
    15=A       16=A       17=A       18=A       19=A       20=A       21=A   
    22=A       23=A       24=A       25=A       26=A       27=A       28=A   
    29=A       30=A       31=A       32=A       33=A       34=A       35=A   
    36=A       37=A       38=A       39=A       40=A       41=A       42=A   
    43=A       44=A       45=A       46=A       47=A       48=A       49=A   
    50=A       51=A       52=A       53=A       54=A       55=A       56=A   
    57=A       58=A       59=A       60=A       61=A       62=A       63=A   
    64=A       65=A       66=A       67=A       68=A       69=A       70=A   
    71=A       72=A       73=A       74=A       75=A       76=A       77=A   
    78=A       79=A       80=A       81=A       82=A       83=A       84=A   
    85=A       86=A       87=A       88=A       89=A       90=A       91=A   
    92=A       93=A       94=A       95=A       96=A       97=A       98=A   
    99=A      100=A      101=A      102=A      103=A      104=A      105=A   
   106=A      107=A      108=A      109=A      110=A      111=A      112=A   
   113=A      114=A      115=A      116=A      117=A      118=A      119=A   
   120=A      121=A      122=A      123=A      124=A      125=A      126=A   
   127=A      128=A      129=A      130=A      131=A      132=A      133=A   
   134=A      135=A      136=A      137=A      138=A      139=A      140=A   
   141=A      142=A      143=A      144=A      145=A      146=A      147=A   
   148=A      149=A      150=A      151=A      152=A      153=A      154=A   
   155=A      156=A      157=A      158=A      159=A      160=A      161=A   
   162=A      163=A      164=A      165=A      166=A      167=A      168=A   
   169=A      170=A      171=A      172=A      173=A      174=A      175=A   
   176=A      177=A      178=A      179=A      180=A      181=A      182=A   
   183=A      184=A      185=A      186=A      187=A      188=A      189=A   
   190=A      191=A      192=A      193=A      194=A      195=A      196=A   
   197=A      198=A      199=A      200=A      201=A      202=A      203=A   
   204=A      205=A      206=A      207=A      208=A      209=A      210=A   
   211=A      212=A      213=A      214=A      215=A      216=A      217=A   
   218=A      219=A      220=A      221=A      222=A      223=A      224=A   
   225=A      226=A      227=A      228=A      229=A      230=A      231=A   
   232=A      233=A      234=A      235=A      236=A      237=A      238=A   
   239=A      240=A      241=A      242=A      243=A      244=A      245=A   
   246=A      247=A      248=A      249=A      250=A      251=A      252=A   
   253=A      254=A      255=A      256=A      257=A      258=A      259=A   
   260=A      261=A      262=A      263=A      264=A      265=A      266=A   
   267=A      268=A      269=A      270=A      271=A      272=A      273=A   
   274=A      275=A      276=A      277=A      278=A      279=A      280=A   
   281=A      282=A      283=A      284=A      285=A      286=A      287=A   
   288=A      289=A   
 ...... END OF INITIAL ORBITAL SELECTION ......
 CPU     0: STEP CPU TIME=     0.13 TOTAL CPU TIME=          0.5 (      0.0 MIN)
 TOTAL WALL CLOCK TIME=          1.1 SECONDS, CPU UTILIZATION IS    39.13%

                    ----------------------
                    AO INTEGRAL TECHNOLOGY
                    ----------------------
     S,P,L SHELL ROTATED AXIS INTEGRALS, REPROGRAMMED BY
        KAZUYA ISHIMURA (IMS) AND JOSE SIERRA (SYNSTAR).
     S,P,D,L SHELL ROTATED AXIS INTEGRALS PROGRAMMED BY
        KAZUYA ISHIMURA (INSTITUTE FOR MOLECULAR SCIENCE).
     S,P,D,F,G SHELL TO TOTAL QUARTET ANGULAR MOMENTUM SUM 5,
        ERIC PROGRAM BY GRAHAM FLETCHER (ELORET AND NASA ADVANCED
        SUPERCOMPUTING DIVISION, AMES RESEARCH CENTER).
     S,P,D,F,G,L SHELL GENERAL RYS QUADRATURE PROGRAMMED BY
        MICHEL DUPUIS (PACIFIC NORTHWEST NATIONAL LABORATORY).
  ...... END OF TWO-ELECTRON INTEGRALS .....
 CPU     0: STEP CPU TIME=     0.01 TOTAL CPU TIME=          0.5 (      0.0 MIN)
 TOTAL WALL CLOCK TIME=          1.2 SECONDS, CPU UTILIZATION IS    39.66%

          --------------------------
            R-M06-2X SCF CALCULATION
          --------------------------
         DENSITY MATRIX CONVERGENCE THRESHOLD=  2.00E-05
     COARSE -> FINE DFT GRID SWITCH THRESHOLD=  3.00E-04 (SWITCH IN $DFT)
                   HF -> DFT SWITCH THRESHOLD=  0.00E+00 (SWOFF IN $DFT)

 DIRECT SCF CALCULATION, SCHWRZ=T   FDIFF=T,  DIRTHR=  0.00E+00 NITDIR=10

 DFT CODE IS SWITCHING FROM THE FINE GRID NRAD= 99,  NLEB=  590
                      TO THE COARSE GRID NRAD0= 24, NLEB0=  110

     EXCHANGE FUNCTIONAL   =M06-2X    
     CORRELATION FUNCTIONAL=M06-2X    
     DFT THRESHOLD         =.244E-08
     GRID CHANGE THRESHOLD =.300E-03
 FOR AN EULER-MACLAURIN QUADRATURE USING  99 RADIAL POINTS:
 SMALLEST GAUSSIAN PRIMITIVE EXPONENT=        0.0331000000 OF TYPE -P-
 ON ATOM NUMBER  24 HAS RADIAL NORMALIZATION=  1.000000
  LARGEST GAUSSIAN PRIMITIVE EXPONENT=    16192.1000000000 OF TYPE -S-
 ON ATOM NUMBER  24 HAS RADIAL NORMALIZATION=  1.000000

                                                                                   NONZERO     BLOCKS
 ITER EX DEM     TOTAL ENERGY        E CHANGE  DENSITY CHANGE    DIIS ERROR      INTEGRALS    SKIPPED
          * * *   INITIATING DIIS PROCEDURE   * * *
   1  0  0     -734.5013975206  -734.5013975206   0.261437406   0.032667148      469510292    8941231
   2  1  0     -734.5028036215    -0.0014061010   0.061143055   0.003027725      446628421    9936395
   3  2  0     -734.5030044581    -0.0002008366   0.014722732   0.002697011      424340740   10452312
   4  3  0     -734.5031512050    -0.0001467469   0.004727089   0.000326907      407755105   10839730
   5  4  0     -734.5031555948    -0.0000043898   0.001748624   0.000112840      389234503   11237962
   6  5  0     -734.5031560318    -0.0000004370   0.001147472   0.000054061      370526642   11601637
   7  6  0     -734.5031561287    -0.0000000969   0.000569285   0.000029062      352711867   11965785
   8  7  0     -734.5031561262     0.0000000025   0.000306326   0.000014306      331934892   12358705
   9  8  0     -734.5031561213     0.0000000049   0.000238077   0.000007186      312785075   12711358
 DFT CODE IS SWITCHING BACK TO THE FINE GRID
          * * *   INITIATING DIIS PROCEDURE   * * *
  10  9  0     -734.5759217170    -0.0727655957   0.272373837   0.032309758      469548478    8937895
  11 10  0     -734.5772939748    -0.0013722579   0.051817739   0.002992524      446715870    9933505
  12 11  0     -734.5775222560    -0.0002282812   0.012174230   0.002559405      423932210   10455684
  13 12  0     -734.5776638982    -0.0001416422   0.007070631   0.000342472      407959802   10831951
  14 13  0     -734.5776679544    -0.0000040561   0.001961266   0.000126165      385061832   11319852
  15 14  0     -734.5776685356    -0.0000005812   0.000776432   0.000053500      363392617   11748952
  16 15  0     -734.5776686368    -0.0000001012   0.000501561   0.000019043      342527912   12184563
  17 16  0     -734.5776686470    -0.0000000102   0.000248329   0.000006314      329763973   12438542
  18 17  0     -734.5776686457     0.0000000013   0.000063578   0.000001384      315175412   12707348
  19 18  0     -734.5776686450     0.0000000007   0.000018887   0.000000500      281881356   13285713
  20 19  0     -734.5776686443     0.0000000007   0.000007754   0.000000149      253743169   13833911

          -----------------
          DENSITY CONVERGED
          -----------------
     TIME TO FORM FOCK OPERATORS=      22.4 SECONDS (       1.1 SEC/ITER)
     FOCK TIME ON FIRST ITERATION=       0.7, LAST ITERATION=       1.5
     TIME TO SOLVE SCF EQUATIONS=       1.2 SECONDS (       0.1 SEC/ITER)

 FINAL R-M06-2X ENERGY IS     -734.5776686443 AFTER  20 ITERATIONS
 DFT EXCHANGE + CORRELATION ENERGY =       -40.5358833690
 TOTAL ELECTRON NUMBER             =        92.0000703725
 TOTAL KINETIC ENERGY DENSITY      =        21.1906481900
 ...... END OF RHF CALCULATION ......
 CPU     0: STEP CPU TIME=    24.08 TOTAL CPU TIME=         24.5 (      0.4 MIN)
 TOTAL WALL CLOCK TIME=         33.8 SECONDS, CPU UTILIZATION IS    72.63%

*** START A GRADIENT CALCULATION ***

 ..... END OF 1-ELECTRON GRADIENT ......
 CPU     0: STEP CPU TIME=     0.03 TOTAL CPU TIME=         24.6 (      0.4 MIN)
 TOTAL WALL CLOCK TIME=         33.9 SECONDS, CPU UTILIZATION IS    72.41%
 MEMORY FOR GRID POINT CONTRIBUTIONS TO THE DFT GRADIENT=   2239091 WORDS.
 CPU     0: STEP CPU TIME=     7.74 TOTAL CPU TIME=         32.3 (      0.5 MIN)
 TOTAL WALL CLOCK TIME=         41.8 SECONDS, CPU UTILIZATION IS    77.30%
 ...... END OF 2-ELECTRON GRADIENT ......
 CPU     0: STEP CPU TIME=     0.84 TOTAL CPU TIME=         33.1 (      0.6 MIN)
 TOTAL WALL CLOCK TIME=         42.7 SECONDS, CPU UTILIZATION IS    77.69%

*** Store the coordinates, gradients, and vectors into the dictionary file.  iREC=  611    1   10

*** Energy [hartree] of #IMAGE=    1
Energy =     -734.5776686443

*** Gradient [hartree/bohr] of #IMAGE=    1
     1  C            6.0     -0.0000371526     -0.0000016293     -0.0000257502
     2  C            6.0     -0.0000221782     -0.0000206582      0.0000223987
     3  H            1.0     -0.0000040973      0.0000129643      0.0000121521
     4  H            1.0      0.0000199312     -0.0000100663     -0.0000063337
     5  H            1.0     -0.0000007456      0.0000003462      0.0000038090
     6  H            1.0     -0.0000031425     -0.0000068736      0.0000070218
     7  C            6.0      0.0000012501      0.0000225937     -0.0000058235
     8  H            1.0      0.0000340717      0.0000161400     -0.0000347742
     9  H            1.0     -0.0000161810     -0.0000060334      0.0000035445
    10  H            1.0      0.0000029562     -0.0000063320      0.0000222899
    11  N            7.0      0.0000276374      0.0000023435     -0.0000174766
    12  H            1.0      0.0000112076     -0.0000184979     -0.0000061744
    13  H            1.0     -0.0000100385      0.0000056542      0.0000065803
    14  O            8.0     -0.0000036443      0.0000593689      0.0000133721
    15  C            6.0     -0.0000536178     -0.0000444844      0.0000182199
    16  C            6.0     -0.0000442096      0.0000091731     -0.0000149658
    17  C            6.0      0.0000137998      0.0000171270     -0.0000791188
    18  H            1.0     -0.0000167961      0.0000006957      0.0000296523
    19  H            1.0      0.0000286012     -0.0000128694      0.0000140551
    20  H            1.0     -0.0000023132     -0.0000092008      0.0000348988
    21  H            1.0      0.0000135874      0.0000582599      0.0000306711
    22  H            1.0      0.0000602300     -0.0000217715     -0.0000084272
    23  H            1.0      0.0000091019     -0.0000283421     -0.0000338747
    24  SI          14.0     -0.0000448708     -0.0000692251      0.0000542280
    25  O            8.0     -0.0000012106      0.0000946661     -0.0000292143
    26  H            1.0      0.0000083346     -0.0000453765     -0.0000459264
    27  H            1.0      0.0000776255     -0.0000071184      0.0000252820
    28  H            1.0     -0.0000590227      0.0000735671     -0.0000419168
    29  H            1.0      0.0000108862     -0.0000644204      0.0000516010
 RMS Gradient =        0.0000322765


----------------- [END] ENERGY and GRADIENT calculation (initial run) #IMAGE=    1 -----------------


---------------- [BEGIN] ENERGY and GRADIENT calculation (initial run) #IMAGE=    2 ----------------

*** Coordinate [angs] of #IMAGE=    2
 C            6.0     -2.2367306426     -2.1691625140     -1.7961757751
 C            6.0     -1.4528274627     -1.2321560981     -0.8808827281
 H            1.0     -3.0861510658     -2.6154528858     -1.2677508993
 H            1.0     -1.6069621023     -2.9831134230     -2.1643806278
 H            1.0     -2.6300450901     -1.6305771361     -2.6647074166
 H            1.0     -1.0362546886     -1.7898213819     -0.0355319436
 C            6.0     -2.3158086228     -0.0925193318     -0.3536963870
 H            1.0     -0.5937964761     -0.8094810513     -1.4175106473
 H            1.0     -3.1413099505     -0.5075376151      0.2397221498
 H            1.0     -2.7734003909      0.4306550864     -1.2093777733
 N            7.0     -1.5310686344      0.8082576903      0.4969310655
 H            1.0     -0.7249459613      1.2286536634     -0.0707998183
 H            1.0     -2.1094907101      1.5829690536      0.8111983217
 O            8.0      1.2108900003     -0.7780790428      1.0687316797
 C            6.0      0.5534828727     -0.3751479872      2.0306876586
 C            6.0     -0.3414678811     -1.3144341188      2.7882970467
 C            6.0      0.7207722819      1.0181496930      2.5774985678
 H            1.0      1.4369870123      0.9729746183      3.4063057017
 H            1.0     -0.2291492752      1.3922715053      2.9644588950
 H            1.0      1.1079714027      1.6877248326      1.8076658953
 H            1.0     -0.2028329919     -2.3420876815      2.4518350424
 H            1.0     -1.3724237477     -0.9961414133      2.5985886803
 H            1.0     -0.1594406124     -1.2394860492      3.8639600840
 SI          14.0      1.8707968289      1.2504030864     -2.3226142614
 O            8.0      1.2259599392      1.2335214737     -0.7867564578
 H            1.0      1.4080673991      0.0819791401     -3.1171230673
 H            1.0      3.3551896271      1.2321169865     -2.2842099052
 H            1.0      1.4054263941      2.4986879919     -2.9683170922
 H            1.0      1.4308558689      0.4219112176     -0.1443962007

*** START A SINGLE POINT CALCULATION ***

 * GENERATE INITIAL GUESS ORBITALS *

 ...... END OF ONE-ELECTRON INTEGRALS ......
 CPU     0: STEP CPU TIME=     0.01 TOTAL CPU TIME=         33.2 (      0.6 MIN)
 TOTAL WALL CLOCK TIME=         42.8 SECONDS, CPU UTILIZATION IS    77.53%

          -------------
          GUESS OPTIONS
          -------------
          GUESS =MOREAD            NORB  =     289          NORDER=       0
          MIX   =       F          PRTMO =       F          PUNMO =       F
          TOLZ  = 1.0E-08          TOLE  = 1.0E-05
          SYMDEN=       F          PURIFY=       F

 INITIAL GUESS ORBITALS GENERATED BY MOREAD   ROUTINE.

 SYMMETRIES FOR INITIAL GUESS ORBITALS FOLLOW.   BOTH SET(S).
    46 ORBITALS ARE OCCUPIED (   14 CORE ORBITALS).
     1=A        2=A        3=A        4=A        5=A        6=A        7=A   
     8=A        9=A       10=A       11=A       12=A       13=A       14=A   
    15=A       16=A       17=A       18=A       19=A       20=A       21=A   
    22=A       23=A       24=A       25=A       26=A       27=A       28=A   
    29=A       30=A       31=A       32=A       33=A       34=A       35=A   
    36=A       37=A       38=A       39=A       40=A       41=A       42=A   
    43=A       44=A       45=A       46=A       47=A       48=A       49=A   
    50=A       51=A       52=A       53=A       54=A       55=A       56=A   
    57=A       58=A       59=A       60=A       61=A       62=A       63=A   
    64=A       65=A       66=A       67=A       68=A       69=A       70=A   
    71=A       72=A       73=A       74=A       75=A       76=A       77=A   
    78=A       79=A       80=A       81=A       82=A       83=A       84=A   
    85=A       86=A       87=A       88=A       89=A       90=A       91=A   
    92=A       93=A       94=A       95=A       96=A       97=A       98=A   
    99=A      100=A      101=A      102=A      103=A      104=A      105=A   
   106=A      107=A      108=A      109=A      110=A      111=A      112=A   
   113=A      114=A      115=A      116=A      117=A      118=A      119=A   
   120=A      121=A      122=A      123=A      124=A      125=A      126=A   
   127=A      128=A      129=A      130=A      131=A      132=A      133=A   
   134=A      135=A      136=A      137=A      138=A      139=A      140=A   
   141=A      142=A      143=A      144=A      145=A      146=A      147=A   
   148=A      149=A      150=A      151=A      152=A      153=A      154=A   
   155=A      156=A      157=A      158=A      159=A      160=A      161=A   
   162=A      163=A      164=A      165=A      166=A      167=A      168=A   
   169=A      170=A      171=A      172=A      173=A      174=A      175=A   
   176=A      177=A      178=A      179=A      180=A      181=A      182=A   
   183=A      184=A      185=A      186=A      187=A      188=A      189=A   
   190=A      191=A      192=A      193=A      194=A      195=A      196=A   
   197=A      198=A      199=A      200=A      201=A      202=A      203=A   
   204=A      205=A      206=A      207=A      208=A      209=A      210=A   
   211=A      212=A      213=A      214=A      215=A      216=A      217=A   
   218=A      219=A      220=A      221=A      222=A      223=A      224=A   
   225=A      226=A      227=A      228=A      229=A      230=A      231=A   
   232=A      233=A      234=A      235=A      236=A      237=A      238=A   
   239=A      240=A      241=A      242=A      243=A      244=A      245=A   
   246=A      247=A      248=A      249=A      250=A      251=A      252=A   
   253=A      254=A      255=A      256=A      257=A      258=A      259=A   
   260=A      261=A      262=A      263=A      264=A      265=A      266=A   
   267=A      268=A      269=A      270=A      271=A      272=A      273=A   
   274=A      275=A      276=A      277=A      278=A      279=A      280=A   
   281=A      282=A      283=A      284=A      285=A      286=A      287=A   
   288=A      289=A   
 ...... END OF INITIAL ORBITAL SELECTION ......
 CPU     0: STEP CPU TIME=     0.11 TOTAL CPU TIME=         33.3 (      0.6 MIN)
 TOTAL WALL CLOCK TIME=         43.2 SECONDS, CPU UTILIZATION IS    76.92%
  ...... END OF TWO-ELECTRON INTEGRALS .....
 CPU     0: STEP CPU TIME=     0.00 TOTAL CPU TIME=         33.3 (      0.6 MIN)
 TOTAL WALL CLOCK TIME=         43.2 SECONDS, CPU UTILIZATION IS    76.92%

          --------------------------
            R-M06-2X SCF CALCULATION
          --------------------------
         DENSITY MATRIX CONVERGENCE THRESHOLD=  2.00E-05
     COARSE -> FINE DFT GRID SWITCH THRESHOLD=  3.00E-04 (SWITCH IN $DFT)
                   HF -> DFT SWITCH THRESHOLD=  0.00E+00 (SWOFF IN $DFT)

 DIRECT SCF CALCULATION, SCHWRZ=T   FDIFF=T,  DIRTHR=  0.00E+00 NITDIR=10

 DFT CODE IS SWITCHING FROM THE FINE GRID NRAD= 99,  NLEB=  590
                      TO THE COARSE GRID NRAD0= 24, NLEB0=  110

                                                                                   NONZERO     BLOCKS
 ITER EX DEM     TOTAL ENERGY        E CHANGE  DENSITY CHANGE    DIIS ERROR      INTEGRALS    SKIPPED
          * * *   INITIATING DIIS PROCEDURE   * * *
   1  0  0     -734.4885765178  -734.4885765178   0.259219294   0.030753879      472423767    8902244
   2  1  0     -734.4949026968    -0.0063261790   0.069447157   0.002476625      453435465    9779151
   3  2  0     -734.4951809250    -0.0002782283   0.025895226   0.001998099      433275520   10282095
   4  3  0     -734.4953526614    -0.0001717363   0.005364110   0.000819240      419206249   10616122
   5  4  0     -734.4953704714    -0.0000178100   0.003372236   0.000296941      400638453   11031831
   6  5  0     -734.4953735683    -0.0000030969   0.000883222   0.000088248      380092327   11428715
   7  6  0     -734.4953738684    -0.0000003000   0.000223724   0.000044406      360265996   11858999
 DFT CODE IS SWITCHING BACK TO THE FINE GRID
          * * *   INITIATING DIIS PROCEDURE   * * *
   8  7  0     -734.5697174617    -0.0743435934   0.269136632   0.030431449      472504123    8896438
   9  8  0     -734.5711133171    -0.0013958553   0.050341778   0.003255702      449682042    9894619
  10  9  0     -734.5713313606    -0.0002180435   0.009508661   0.002822894      426915780   10413507
  11 10  0     -734.5714755066    -0.0001441461   0.002674143   0.000408953      410773972   10795073
  12 11  0     -734.5714801209    -0.0000046143   0.000834558   0.000106392      388372937   11278647
  13 12  0     -734.5714807327    -0.0000006118   0.000326002   0.000047765      365224600   11711747
  14 13  0     -734.5714808171    -0.0000000844   0.000425134   0.000022558      345868923   12127448
  15 14  0     -734.5714808300    -0.0000000129   0.000202170   0.000008833      329564440   12446762
  16 15  0     -734.5714808321    -0.0000000021   0.000138918   0.000002662      310446434   12811466
  17 16  0     -734.5714808334    -0.0000000014   0.000141040   0.000002162      292365155   13130176
  18 17  0     -734.5714808328     0.0000000006   0.000091232   0.000000885      284795048   13255915
  19 18  0     -734.5714808320     0.0000000009   0.000009032   0.000000232      268285494   13542478
  20 19  0     -734.5714808316     0.0000000003   0.000000795   0.000000055      223586256   14313474

          -----------------
          DENSITY CONVERGED
          -----------------
     TIME TO FORM FOCK OPERATORS=      24.5 SECONDS (       1.2 SEC/ITER)
     FOCK TIME ON FIRST ITERATION=       0.7, LAST ITERATION=       1.4
     TIME TO SOLVE SCF EQUATIONS=       1.2 SECONDS (       0.1 SEC/ITER)

 FINAL R-M06-2X ENERGY IS     -734.5714808316 AFTER  20 ITERATIONS
 DFT EXCHANGE + CORRELATION ENERGY =       -40.5142941449
 TOTAL ELECTRON NUMBER             =        92.0000701351
 TOTAL KINETIC ENERGY DENSITY      =        21.5310170758
 ...... END OF RHF CALCULATION ......
 CPU     0: STEP CPU TIME=    26.18 TOTAL CPU TIME=         59.4 (      1.0 MIN)
 TOTAL WALL CLOCK TIME=         78.1 SECONDS, CPU UTILIZATION IS    76.16%

*** START A GRADIENT CALCULATION ***

 ..... END OF 1-ELECTRON GRADIENT ......
 CPU     0: STEP CPU TIME=     0.03 TOTAL CPU TIME=         59.5 (      1.0 MIN)
 TOTAL WALL CLOCK TIME=         78.2 SECONDS, CPU UTILIZATION IS    76.07%
 MEMORY FOR GRID POINT CONTRIBUTIONS TO THE DFT GRADIENT=   2239091 WORDS.
 CPU     0: STEP CPU TIME=     7.71 TOTAL CPU TIME=         67.2 (      1.1 MIN)
 TOTAL WALL CLOCK TIME=         86.0 SECONDS, CPU UTILIZATION IS    78.10%
 ...... END OF 2-ELECTRON GRADIENT ......
 CPU     0: STEP CPU TIME=     0.84 TOTAL CPU TIME=         68.0 (      1.1 MIN)
 TOTAL WALL CLOCK TIME=         86.9 SECONDS, CPU UTILIZATION IS    78.28%

*** Store the coordinates, gradients, and vectors into the dictionary file.  iREC=  612    2   10

*** Energy [hartree] of #IMAGE=    2
Energy =     -734.5714808316

*** Gradient [hartree/bohr] of #IMAGE=    2
     1  C            6.0     -0.0001221084     -0.0003344166      0.0002695509
     2  C            6.0      0.0000624272      0.0005368238     -0.0004373815
     3  H            1.0      0.0000308820     -0.0000065429      0.0000297310
     4  H            1.0      0.0000258466      0.0000145687      0.0000252374
     5  H            1.0      0.0001468714      0.0001758343      0.0001132710
     6  H            1.0     -0.0002059702     -0.0000606891     -0.0004696300
     7  C            6.0     -0.0007660741     -0.0019828902      0.0019628959
     8  H            1.0      0.0000521735     -0.0002133944      0.0001112151
     9  H            1.0     -0.0003676698     -0.0002642423     -0.0007528694
    10  H            1.0      0.0006176655      0.0006835843      0.0004456644
    11  N            7.0     -0.0254312857     -0.0118759407      0.0163997289
    12  H            1.0      0.0273750194      0.0136302245     -0.0181848633
    13  H            1.0     -0.0004631075     -0.0005423286      0.0006329319
    14  O            8.0      0.0086015662     -0.0081967788     -0.0068600817
    15  C            6.0     -0.0135426568      0.0077103794      0.0058934187
    16  C            6.0      0.0026756205     -0.0009459793      0.0006736516
    17  C            6.0      0.0023608050     -0.0001220257      0.0020416975
    18  H            1.0     -0.0003022454      0.0005504538      0.0000413858
    19  H            1.0     -0.0002139028     -0.0002076019      0.0000433798
    20  H            1.0      0.0001411415      0.0000095606      0.0001809419
    21  H            1.0     -0.0005492257     -0.0004988423      0.0007400575
    22  H            1.0      0.0002711602      0.0003388678     -0.0001584752
[...]
H              1.0000      3.1951550745      1.3185022375     -2.4828205227
H              1.0000      1.2438227338      2.6433678009     -2.7784114375
H              1.0000      1.3870319550      0.0002990669      0.2042742033
#image =   10, Energy=     -734.5639475196, Grad RMS=      0.002327505145
C              6.0000     -2.2748440825     -2.1189354806     -1.7558448579
C              6.0000     -1.2740285640     -1.3471423572     -0.9005780061
H              1.0000     -3.0774003588     -2.5514077018     -1.1486417404
H              1.0000     -1.7688583262     -2.9400791479     -2.2691647709
H              1.0000     -2.7331985752     -1.4831127802     -2.5203560132
H              1.0000     -0.7941120980     -2.0116324871     -0.1800692650
C              6.0000     -1.9196138160     -0.2068927470     -0.1338769842
H              1.0000     -0.4739721428     -0.9293304159     -1.5219895701
H              1.0000     -2.6897314377     -0.5668601451      0.5579805052
H              1.0000     -2.4281392868      0.4711628829     -0.8399246142
N              7.0000     -0.8949384027      0.5823299207      0.6305123572
H              1.0000     -0.1305416666      0.9666023136     -0.0907314563
H              1.0000     -1.3700110952      1.3890366066      1.0361259112
O              8.0000      1.0669652924     -0.7780663367      0.9838295515
C              6.0000      0.1102825389     -0.1281719736      1.7090519846
C              6.0000     -0.6265391611     -1.1043034580      2.6311538950
C              6.0000      0.6920612995      1.0436293639      2.5045094421
H              1.0000      1.4052348780      0.6668152036      3.2474215299
H              1.0000     -0.0939961183      1.5809764691      3.0411199947
H              1.0000      1.2316998430      1.7114183713      1.8280530536
H              1.0000     -0.7653261726     -2.0897939828      2.1783109049
H              1.0000     -1.5929121412     -0.6918480248      2.9271663755
H              1.0000     -0.0520695669     -1.2610935647      3.5537020161
SI            14.0000      1.7147745031      1.3265455622     -2.2610242140
O              8.0000      1.2095614928      1.0726543332     -0.7246185468
H              1.0000      1.1593987442      0.3104004904     -3.2131081121
H              1.0000      3.1975882012      1.2846652235     -2.4551927831
H              1.0000      1.2809886702      2.6514981954     -2.8035050804
H              1.0000      1.4172342126     -0.1163651307      0.2885252066
#image =   11, Energy=     -734.5737860378, Grad RMS=      0.003173828156
C              6.0000     -2.2645984746     -2.1103692715     -1.7613331564
C              6.0000     -1.2642015686     -1.3451973301     -0.8986793345
H              1.0000     -3.0741630530     -2.5356755567     -1.1588904104
H              1.0000     -1.7616080349     -2.9368933876     -2.2702162389
H              1.0000     -2.7141233480     -1.4731173565     -2.5301070213
H              1.0000     -0.7902020964     -2.0146139641     -0.1796927891
C              6.0000     -1.8926683002     -0.1992888870     -0.1217435181
H              1.0000     -0.4604288506     -0.9339541822     -1.5196710764
H              1.0000     -2.6876717642     -0.5610373425      0.5437608943
H              1.0000     -2.3859328592      0.4867923643     -0.8330497886
N              7.0000     -0.8615211479      0.5651817058      0.6419276420
H              1.0000      0.1145335858      0.9979116637     -0.2364740507
H              1.0000     -1.3326264885      1.3790581117      1.0458836335
O              8.0000      1.0688034228     -0.8070282793      1.0025769799
C              6.0000      0.0755110829     -0.1143932666      1.6956274736
C              6.0000     -0.6334257537     -1.0980224956      2.6325363958
C              6.0000      0.6983189308      1.0341102345      2.5027014805
H              1.0000      1.4056600021      0.6452008402      3.2455317018
H              1.0000     -0.0760883202      1.5883485372      3.0417543384
H              1.0000      1.2498931164      1.7006756227      1.8357688194
H              1.0000     -0.7679370220     -2.0869666578      2.1835265797
H              1.0000     -1.6017376021     -0.6914944913      2.9272107835
H              1.0000     -0.0538864874     -1.2516450507      3.5530272748
SI            14.0000      1.7138777365      1.3199028456     -2.2692938245
O              8.0000      1.1386005405      1.1124526311     -0.7327504768
H              1.0000      1.1905128966      0.2834067029     -3.2025743618
H              1.0000      3.2027189239      1.2443195361     -2.3901898870
H              1.0000      1.3314695740      2.6438156939     -2.8223609312
H              1.0000      1.4527755218     -0.1835941144      0.3481422824
#image =   12, Energy=     -734.5836196191, Grad RMS=      0.001876150395
C              6.0000     -2.2659533928     -2.1112032442     -1.7540209036
C              6.0000     -1.2545752182     -1.3591259905     -0.8923890514
H              1.0000     -3.0701328807     -2.5383841568     -1.1456566494
H              1.0000     -1.7760170013     -2.9349760444     -2.2800385258
H              1.0000     -2.7234779590     -1.4618815331     -2.5082864854
H              1.0000     -0.7676175076     -2.0409504199     -0.1931032204
C              6.0000     -1.8796541134     -0.2259566511     -0.0920546753
H              1.0000     -0.4592443998     -0.9396131226     -1.5198740609
H              1.0000     -2.6800270194     -0.6111211250      0.5579073151
H              1.0000     -2.3743426404      0.4669495909     -0.7936631034
N              7.0000     -0.8626090543      0.5454461289      0.6661900962
H              1.0000      0.2784139124      1.0585112974     -0.3603272033
H              1.0000     -1.3306581483      1.3538861987      1.0713470214
O              8.0000      1.0371630431     -0.8517405554      1.0425404195
C              6.0000      0.0416935859     -0.1145067397      1.7020685295
C              6.0000     -0.6749877970     -1.0857724890      2.6483979921
C              6.0000      0.6869302174      1.0242442404      2.5075503660
H              1.0000      1.3882177030      0.6234523148      3.2482181131
H              1.0000     -0.0723104441      1.6000620759      3.0446197550
H              1.0000      1.2496630899      1.6823549215      1.8392104355
H              1.0000     -0.8619961006     -2.0567191667      2.1816738283
H              1.0000     -1.6206312086     -0.6470919095      2.9731701272
H              1.0000     -0.0742848531     -1.2778259935      3.5460472272
SI            14.0000      1.7121292771      1.3522025074     -2.3226610191
O              8.0000      1.2237619276      1.1488952093     -0.7540479482
H              1.0000      1.1484920431      0.3100135037     -3.2203432344
H              1.0000      3.1918839394      1.2600055713     -2.4258492832
H              1.0000      1.3074548005      2.6835586880     -2.8327413653
H              1.0000      1.4816983698     -0.2545942230      0.4084218206
#image =   13, Energy=     -734.5881255323, Grad RMS=      0.001508743281
C              6.0000     -2.2701044208     -2.1098997676     -1.7442638699
C              6.0000     -1.2356152767     -1.3776402057     -0.8921308230
H              1.0000     -3.0637024855     -2.5404349133     -1.1243445112
H              1.0000     -1.8013382816     -2.9286255288     -2.2966381251
H              1.0000     -2.7403461448     -1.4430130828     -2.4750582279
H              1.0000     -0.7348553738     -2.0754647876     -0.2175700579
C              6.0000     -1.8532201509     -0.2537446832     -0.0687574827
H              1.0000     -0.4519581166     -0.9524809251     -1.5307044697
H              1.0000     -2.6359820630     -0.6578778758      0.5925942033
H              1.0000     -2.3607377261      0.4427333549     -0.7527463385
N              7.0000     -0.8430566291      0.5352506938      0.6678922705
H              1.0000      0.3664169774      1.0686468499     -0.4020825726
H              1.0000     -1.3053117850      1.3436487506      1.0760010520
O              8.0000      1.0090891564     -0.8928217399      1.0836553050
C              6.0000      0.0224574787     -0.1140202371      1.7103718589
C              6.0000     -0.7286414262     -1.0595983784      2.6512077073
C              6.0000      0.6778628523      1.0211064443      2.5079138984
H              1.0000      1.3694376661      0.6029593249      3.2450103841
H              1.0000     -0.0694427000      1.6159670480      3.0423971349
H              1.0000      1.2485005848      1.6699786690      1.8364304153
H              1.0000     -0.9880062979     -1.9977681560      2.1548888393
H              1.0000     -1.6387833073     -0.5788329317      3.0205512721
H              1.0000     -0.1025363320     -1.3094362324      3.5138895171
SI            14.0000      1.6954509329      1.3897679380     -2.3584350815
O              8.0000      1.3034876613      1.1456656252     -0.7671729643
H              1.0000      1.0806424723      0.3640577536     -3.2427591764
H              1.0000      3.1678928014      1.2963826206     -2.4955689093
H              1.0000      1.2565296969      2.7316257782     -2.8147374836
H              1.0000      1.4950071780     -0.3186214240      0.4530918040
#image =   14, Energy=     -734.5900539287, Grad RMS=      0.000527622625
C              6.0000     -2.2735784233     -2.1083380709     -1.7355929495
C              6.0000     -1.2162016485     -1.3935298387     -0.8967010315
H              1.0000     -3.0548468852     -2.5420068424     -1.1021358276
H              1.0000     -1.8271006717     -2.9213368790     -2.3138594255
H              1.0000     -2.7570456244     -1.4239808689     -2.4410809686
H              1.0000     -0.7065024360     -2.1020496623     -0.2393510854
C              6.0000     -1.8259050602     -0.2742314445     -0.0588622648
H              1.0000     -0.4418243338     -0.9662827404     -1.5453915704
H              1.0000     -2.5853956563     -0.6904331014      0.6215620469
H              1.0000     -2.3559916937      0.4155254650     -0.7299529829
N              7.0000     -0.8173647212      0.5299053845      0.6566255844
H              1.0000      0.4268249999      1.0535169495     -0.4103731680
H              1.0000     -1.2777368966      1.3464693456      1.0524276570
O              8.0000      0.9947881078     -0.9247482889      1.1200159263
C              6.0000      0.0120278025     -0.1137568519      1.7204585995
C              6.0000     -0.7797455407     -1.0302397858      2.6513702714
C              6.0000      0.6762119123      1.0186588930      2.5102897041
H              1.0000      1.3583054781      0.5940371645      3.2513879468
H              1.0000     -0.0661951859      1.6281711970      3.0359493101
H              1.0000      1.2546225580      1.6561046733      1.8346247878
H              1.0000     -1.1135981125     -1.9312896186      2.1305079034
H              1.0000     -1.6484273747     -0.5035180020      3.0565905066
H              1.0000     -0.1467583917     -1.3461900257      3.4858274938
SI            14.0000      1.6736793657      1.4227928313     -2.3786920217
O              8.0000      1.3591800984      1.1245873263     -0.7772359895
H              1.0000      1.0116911170      0.4238639597     -3.2600927552
H              1.0000      3.1384929667      1.3380145425     -2.5778600151
H              1.0000      1.2055314494      2.7743959910     -2.7775615724
H              1.0000      1.5051736506     -0.3798625598      0.4959625016
#image =   15, Energy=     -734.5907425481, Grad RMS=      0.000042950087
C              6.0000     -2.2764145630     -2.1064735757     -1.7262567897
C              6.0000     -1.1971438131     -1.4091643514     -0.9009008442
H              1.0000     -3.0462461587     -2.5426149514     -1.0804749758
H              1.0000     -1.8520382105     -2.9137129598     -2.3282364287
H              1.0000     -2.7705823663     -1.4051719861     -2.4070810731
H              1.0000     -0.6807802981     -2.1281387154     -0.2590854441
C              6.0000     -1.7966030621     -0.2916560021     -0.0513864763
H              1.0000     -0.4303089293     -0.9820930103     -1.5587585032
H              1.0000     -2.5321525963     -0.7159398060      0.6490847755
H              1.0000     -2.3465717162      0.3932185573     -0.7084424055
N              7.0000     -0.7875941405      0.5250603130      0.6424350314
H              1.0000      0.4847201297      1.0235049185     -0.4108148675
H              1.0000     -1.2426814036      1.3490893014      1.0284739517
O              8.0000      0.9783133446     -0.9579447081      1.1570302450
C              6.0000      0.0047238748     -0.1127603398      1.7264636641
C              6.0000     -0.8272709632     -1.0004728880      2.6455667180
C              6.0000      0.6754082149      1.0173216693      2.5093377413
H              1.0000      1.3472693888      0.5839600743      3.2531576352
H              1.0000     -0.0621979635      1.6402021142      3.0266683659
H              1.0000      1.2606814499      1.6452385338      1.8302508491
H              1.0000     -1.2212221501     -1.8616115750      2.1004817607
H              1.0000     -1.6591963518     -0.4382104878      3.0810241676
H              1.0000     -0.1927194919     -1.3753060272      3.4519260120
SI            14.0000      1.6485339755      1.4516324473     -2.3921572962
O              8.0000      1.4102703248      1.1080507174     -0.7860993482
H              1.0000      0.9422439629      0.4771702076     -3.2676353019
H              1.0000      3.1039351550      1.3766797233     -2.6490291136
H              1.0000      1.1559291487      2.8107387014     -2.7391116914
H              1.0000      1.5165213014     -0.4367589566      0.5377325558
----------------------------------------------------------------------------------------------------
 CPU     0: STEP CPU TIME=     0.04 TOTAL CPU TIME=       9064.0 (    151.1 MIN)
 TOTAL WALL CLOCK TIME=      11529.3 SECONDS, CPU UTILIZATION IS    78.62%
               4484313  WORDS OF DYNAMIC MEMORY USED
 EXECUTION OF GAMESS TERMINATED NORMALLY Wed Feb 26 04:23:37 2020
 DDI: 263640 bytes (0.3 MB / 0 MWords) used by master data server.

 ----------------------------------------
 CPU timing information for all processes
 ========================================
 0: 8804.80 + 259.984 = 9064.64
 1: 8790.683 + 121.223 = 8911.907
 2: 8765.907 + 98.223 = 8864.131
 3: 8777.875 + 105.90 = 8882.966
 4: 8764.15 + 107.218 = 8871.234
 5: 8726.543 + 104.266 = 8830.810
 6: 8055.845 + 235.258 = 8291.103
 7: 8027.345 + 136.499 = 8163.845
 8: 8017.591 + 103.530 = 8121.122
 9: 8040.50 + 117.377 = 8157.427
 10: 8012.676 + 118.122 = 8130.799
 11: 7988.81 + 102.104 = 8090.186
 12: 8002.689 + 204.807 = 8207.497
 13: 7987.364 + 137.01 = 8124.366
 14: 7981.291 + 103.320 = 8084.612
 15: 7974.73 + 118.914 = 8092.988
 16: 7961.694 + 119.955 = 8081.649
 17: 7956.868 + 97.441 = 8054.309
 18: 8041.896 + 191.348 = 8233.245
 19: 8045.789 + 136.04 = 8181.794
 20: 8029.441 + 107.158 = 8136.599
 21: 8034.70 + 118.422 = 8152.492
 22: 8008.785 + 125.549 = 8134.334
 23: 8003.634 + 104.296 = 8107.931
 24: 7719.114 + 193.384 = 7912.499
 25: 7734.136 + 143.864 = 7878.01
 26: 7736.828 + 111.307 = 7848.135
 27: 7737.619 + 127.211 = 7864.830
 28: 7725.773 + 124.780 = 7850.554
 29: 7725.256 + 101.352 = 7826.608
 30: 7919.791 + 154.328 = 8074.119
 31: 7907.104 + 124.402 = 8031.507
 32: 7891.975 + 94.219 = 7986.194
 33: 7887.548 + 108.597 = 7996.145
 34: 7881.374 + 107.72 = 7988.446
 35: 7886.244 + 83.591 = 7969.836
 36: 31.511 + 395.996 = 427.507
 37: 31.636 + 393.509 = 425.146
 38: 31.661 + 398.524 = 430.185
 39: 31.331 + 397.307 = 428.638
 40: 30.833 + 394.740 = 425.574
 41: 31.186 + 391.78 = 422.265
 42: 0.02 + 0.03 = 0.06
 43: 0.01 + 0.04 = 0.05
 44: 0.02 + 0.03 = 0.06
 45: 0.01 + 0.05 = 0.06
 46: 0.00 + 0.05 = 0.05
 47: 0.00 + 0.04 = 0.04
 48: 0.03 + 0.02 = 0.05
 49: 0.01 + 0.04 = 0.05
 50: 0.01 + 0.05 = 0.06
 51: 0.01 + 0.05 = 0.06
 52: 0.02 + 0.02 = 0.04
 53: 0.00 + 0.05 = 0.06
 54: 0.02 + 0.03 = 0.06
 55: 0.00 + 0.03 = 0.04
 56: 0.00 + 0.04 = 0.05
 57: 0.02 + 0.02 = 0.05
 58: 0.00 + 0.05 = 0.05
 59: 0.00 + 0.03 = 0.04
 60: 0.01 + 0.04 = 0.06
 61: 0.01 + 0.04 = 0.05
 62: 0.00 + 0.05 = 0.05
 63: 0.00 + 0.03 = 0.03
 64: 0.00 + 0.05 = 0.06
 65: 0.00 + 0.04 = 0.04
 66: 0.00 + 0.06 = 0.06
 67: 0.00 + 0.04 = 0.05
 68: 0.01 + 0.03 = 0.05
 69: 0.00 + 0.02 = 0.03
 70: 0.03 + 0.01 = 0.05
 71: 0.00 + 0.05 = 0.05
 ----------------------------------------
 ddikick.x: exited gracefully.
----- accounting info -----
Files used on the master node alpha1 were:
-rw-r--r-- 1 asada3 asada 354810310 Feb 26 04:23 /scr/asada3/exam11.dat
-rw-r--r-- 1 asada3 asada   1362402 Feb 26 01:11 /scr/asada3/exam11.F05
-rw-r--r-- 1 asada3 asada  67174400 Feb 26 04:23 /scr/asada3/exam11.F10
-rw-r--r-- 1 asada3 asada  14532744 Feb 26 04:23 /scr/asada3/exam11.F22
-rw-r--r-- 1 asada3 asada  14532744 Feb 26 04:23 /scr/asada3/exam11.F22.001
-rw-r--r-- 1 asada3 asada  14532744 Feb 26 04:23 /scr/asada3/exam11.F22.002
-rw-r--r-- 1 asada3 asada  14532744 Feb 26 04:23 /scr/asada3/exam11.F22.003
-rw-r--r-- 1 asada3 asada  14532744 Feb 26 04:23 /scr/asada3/exam11.F22.004
-rw-r--r-- 1 asada3 asada  14532744 Feb 26 04:23 /scr/asada3/exam11.F22.005
-rw-r--r-- 1 asada3 asada   2824463 Feb 26 04:23 /scr/asada3/exam11.trj
Files from alpha2 are:
-rw-r--r-- 1 asada3 asada 14532744 Feb 26 04:23 /scr/asada3/exam11.F22.006
-rw-r--r-- 1 asada3 asada 14532744 Feb 26 04:23 /scr/asada3/exam11.F22.007
-rw-r--r-- 1 asada3 asada 14532744 Feb 26 04:23 /scr/asada3/exam11.F22.008
-rw-r--r-- 1 asada3 asada 14532744 Feb 26 04:23 /scr/asada3/exam11.F22.009
-rw-r--r-- 1 asada3 asada 14532744 Feb 26 04:23 /scr/asada3/exam11.F22.010
-rw-r--r-- 1 asada3 asada 14532744 Feb 26 04:23 /scr/asada3/exam11.F22.011
Files from alpha3 are:
-rw-r--r-- 1 asada3 asada 14532744 Feb 26 04:23 /scr/asada3/exam11.F22.012
-rw-r--r-- 1 asada3 asada 14532744 Feb 26 04:23 /scr/asada3/exam11.F22.013
-rw-r--r-- 1 asada3 asada 14532744 Feb 26 04:23 /scr/asada3/exam11.F22.014
-rw-r--r-- 1 asada3 asada 14532744 Feb 26 04:23 /scr/asada3/exam11.F22.015
-rw-r--r-- 1 asada3 asada 14532744 Feb 26 04:23 /scr/asada3/exam11.F22.016
-rw-r--r-- 1 asada3 asada 14532744 Feb 26 04:23 /scr/asada3/exam11.F22.017
Files from alpha4 are:
-rw-r--r-- 1 asada3 asada 14532744 Feb 26 04:23 /scr/asada3/exam11.F22.018
-rw-r--r-- 1 asada3 asada 14532744 Feb 26 04:23 /scr/asada3/exam11.F22.019
-rw-r--r-- 1 asada3 asada 14532744 Feb 26 04:23 /scr/asada3/exam11.F22.020
-rw-r--r-- 1 asada3 asada 14532744 Feb 26 04:23 /scr/asada3/exam11.F22.021
-rw-r--r-- 1 asada3 asada 14532744 Feb 26 04:23 /scr/asada3/exam11.F22.022
-rw-r--r-- 1 asada3 asada 14532744 Feb 26 04:23 /scr/asada3/exam11.F22.023
Files from alpha5 are:
-rw-r--r-- 1 asada3 asada 14532744 Feb 26 04:23 /scr/asada3/exam11.F22.024
-rw-r--r-- 1 asada3 asada 14532744 Feb 26 04:23 /scr/asada3/exam11.F22.025
-rw-r--r-- 1 asada3 asada 14532744 Feb 26 04:23 /scr/asada3/exam11.F22.026
-rw-r--r-- 1 asada3 asada 14532744 Feb 26 04:23 /scr/asada3/exam11.F22.027
-rw-r--r-- 1 asada3 asada 14532744 Feb 26 04:23 /scr/asada3/exam11.F22.028
-rw-r--r-- 1 asada3 asada 14532744 Feb 26 04:23 /scr/asada3/exam11.F22.029
Files from alpha6 are:
-rw-r--r-- 1 asada3 asada 14532744 Feb 26 04:23 /scr/asada3/exam11.F22.030
-rw-r--r-- 1 asada3 asada 14532744 Feb 26 04:23 /scr/asada3/exam11.F22.031
-rw-r--r-- 1 asada3 asada 14532744 Feb 26 04:23 /scr/asada3/exam11.F22.032
-rw-r--r-- 1 asada3 asada 14532744 Feb 26 04:23 /scr/asada3/exam11.F22.033
-rw-r--r-- 1 asada3 asada 14532744 Feb 26 04:23 /scr/asada3/exam11.F22.034
-rw-r--r-- 1 asada3 asada 14532744 Feb 26 04:23 /scr/asada3/exam11.F22.035
Wed Feb 26 04:23:47 JST 2020
0.409u 0.718s 3:12:21.10 0.0%	0+0k 0+701384io 0pf+0w
