-catch_rsh /opt/gridengine/default/spool/compute-0-7/active_jobs/35871.1/pe_hostfile
compute-0-7
The primary node assigned by SGE to this run is compute-0-7
Warning: no access to tty (Bad file descriptor).
Thus no job control in this shell.
source /home/sarom/dir.git.branch.saromleang-travis-ci/install.info
setenv GMS_PATH /home/sarom/dir.git.branch.saromleang-travis-ci
setenv GMS_BUILD_DIR /home/sarom/dir.git.branch.saromleang-travis-ci
setenv GMS_TARGET linux64
setenv GMS_FORTRAN gfortran
setenv GMS_GFORTRAN_VERNO 4.4
setenv GMS_MATHLIB mkl-so
setenv GMS_MATHLIB none
setenv GMS_MATHLIB_PATH /share/apps/intel/compilers_and_libraries_2017.1.132/linux/mkl/lib/intel64
setenv GMS_MKL_VERNO 12
setenv GMS_DDI_COMM sockets
setenv GMS_LIBCCHEM false
setenv GMS_EIGEN_PATH
setenv GMS_PHI false
setenv GMS_SHMTYPE sysv
setenv GMS_OPENMP false
unset echo
b12h12-fullnum
/home/sarom/dir.git.branch.saromleang-travis-ci/tests/numdiff/parallel
----- GAMESS execution script 'rungms' -----
This job is running on host compute-0-7.local
under operating system Linux at Wed Aug 9 20:32:26 CDT 2017
Available scratch disk space (Kbyte units) at beginning of the job is
Filesystem           1K-blocks      Used Available Use% Mounted on
/dev/sda1             16126920   3962060  11345660  26% /
GAMESS temporary binary files will be written to /scratch
GAMESS supplementary output files will be written to /home/sarom/restart
Copying input file b12h12-fullnum.inp to your run's scratch directory...
cp /home/sarom/dir.git.branch.saromleang-travis-ci/tests/numdiff/parallel/b12h12-fullnum.inp /scratch/b12h12-fullnum.F05
unset echo
The generated host list is
compute-0-7.local
/home/sarom/dir.git.branch.saromleang-travis-ci/ddikick.x /home/sarom/dir.git.branch.saromleang-travis-ci/gamess.00.x b12h12-fullnum -ddi 1 1 compute-0-7.local -scr /scratch

 Distributed Data Interface kickoff program.
 Initiating 1 compute processes on 1 nodes to run the following command:
 /home/sarom/dir.git.branch.saromleang-travis-ci/gamess.00.x b12h12-fullnum 

          ******************************************************
          *         GAMESS VERSION = 20 APR 2017 (R1)          *
          *             FROM IOWA STATE UNIVERSITY             *
          * M.W.SCHMIDT, K.K.BALDRIDGE, J.A.BOATZ, S.T.ELBERT, *
          *   M.S.GORDON, J.H.JENSEN, S.KOSEKI, N.MATSUNAGA,   *
          *          K.A.NGUYEN, S.J.SU, T.L.WINDUS,           *
          *       TOGETHER WITH M.DUPUIS, J.A.MONTGOMERY       *
          *         J.COMPUT.CHEM.  14, 1347-1363(1993)        *
          **************** 64 BIT LINUX VERSION ****************

  SINCE 1993, STUDENTS AND POSTDOCS WORKING AT IOWA STATE UNIVERSITY
  AND ALSO IN THEIR VARIOUS JOBS AFTER LEAVING ISU HAVE MADE IMPORTANT
  CONTRIBUTIONS TO THE CODE:
     IVANA ADAMOVIC, CHRISTINE AIKENS, YURI ALEXEEV, POOJA ARORA,
     ANDREY ASADCHEV, ROB BELL, PRADIPTA BANDYOPADHYAY, JONATHAN BENTZ,
     BRETT BODE, KURT BRORSEN, CALEB CARLIN, GALINA CHABAN, WEI CHEN,
     CHEOL HO CHOI, PAUL DAY, ALBERT DEFUSCO, NUWAN DESILVA, TIM DUDLEY,
     DMITRI FEDOROV, GRAHAM FLETCHER, MARK FREITAG, KURT GLAESEMANN,
     DAN KEMP, GRANT MERRILL, NORIYUKI MINEZAWA, JONATHAN MULLIN,
     TAKESHI NAGATA, SEAN NEDD, HEATHER NETZLOFF, BOSILJKA NJEGIC, RYAN OLSON,
     MIKE PAK, SPENCER PRUITT, LUKE ROSKOP, JIM SHOEMAKER, LYUDMILA SLIPCHENKO,
     TONY SMITH, SAROM SOK LEANG, JIE SONG, TETSUYA TAKETSUGU, SIMON WEBB,
     PENG XU, SOOHAENG YOO, FEDERICO ZAHARIEV

  ADDITIONAL CODE HAS BEEN PROVIDED BY COLLABORATORS IN OTHER GROUPS:
     IOWA STATE UNIVERSITY:
          JOE IVANIC, AARON WEST, LAIMUTIS BYTAUTAS, KLAUS RUEDENBERG
     UNIVERSITY OF TOKYO: KIMIHIKO HIRAO, TAKAHITO NAKAJIMA,
          TAKAO TSUNEDA, MUNEAKI KAMIYA, SUSUMU YANAGISAWA,
          KIYOSHI YAGI, MAHITO CHIBA, SEIKEN TOKURA, NAOAKI KAWAKAMI
     UNIVERSITY OF AARHUS: FRANK JENSEN
     UNIVERSITY OF IOWA: VISVALDAS KAIRYS, HUI LI
     NATIONAL INST. OF STANDARDS AND TECHNOLOGY: WALT STEVENS, DAVID GARMER
     UNIVERSITY OF PISA: BENEDETTA MENNUCCI, JACOPO TOMASI
     UNIVERSITY OF MEMPHIS: HENRY KURTZ, PRAKASHAN KORAMBATH
     UNIVERSITY OF ALBERTA: TOBY ZENG, MARIUSZ KLOBUKOWSKI
     UNIVERSITY OF NEW ENGLAND: MARK SPACKMAN
     MIE UNIVERSITY: HIROAKI UMEDA
     NAT. INST. OF ADVANCED INDUSTRIAL SCIENCE AND TECHNOLOGY: KAZUO KITAURA
     MICHIGAN STATE UNIVERSITY:
          KAROL KOWALSKI, MARTA WLOCH, JEFFREY GOUR, JESSE LUTZ,
          WEI LI, PIOTR PIECUCH
     UNIVERSITY OF SILESIA: MONIKA MUSIAL, STANISLAW KUCHARSKI
     FACULTES UNIVERSITAIRES NOTRE-DAME DE LA PAIX:
          OLIVIER QUINET, BENOIT CHAMPAGNE
     UNIVERSITY OF CALIFORNIA - SANTA BARBARA: BERNARD KIRTMAN
     INSTITUTE FOR MOLECULAR SCIENCE:
          KAZUYA ISHIMURA, MICHIO KATOUDA, AND SHIGERU NAGASE
     UNIVERSITY OF NOTRE DAME: ANNA POMOGAEVA, DAN CHIPMAN
     KYUSHU UNIVERSITY:
          HARUYUKI NAKANO,
          FENG LONG GU, JACEK KORCHOWIEC, MARCIN MAKOWSKI, AND YURIKO AOKI,
          HIROTOSHI MORI AND EISAKU MIYOSHI
     PENNSYLVANIA STATE UNIVERSITY:
          TZVETELIN IORDANOV, CHET SWALINA, JONATHAN SKONE,
          SHARON HAMMES-SCHIFFER
     WASEDA UNIVERSITY:
          MASATO KOBAYASHI, TOMOKO AKAMA, TSUGUKI TOUMA,
          TAKESHI YOSHIKAWA, YASUHIRO IKABATA, JUNJI SEINO,
          YUYA NAKAJIMA, HIROMI NAKAI
     NANJING UNIVERSITY: SHUHUA LI
     UNIVERSITY OF NEBRASKA:
          PEIFENG SU, DEJUN SI, NANDUN THELLAMUREGE, YALI WANG, HUI LI
     UNIVERSITY OF ZURICH: ROBERTO PEVERATI, KIM BALDRIDGE
     N. COPERNICUS UNIVERSITY AND JACKSON STATE UNIVERSITY:
          MARIA BARYSZ
     UNIVERSITY OF COPENHAGEN: Jimmy Kromann, CASPER STEINMANN
     TOKYO INSTITUTE OF TECHNOLOGY: HIROYA NAKATA
     NAGOYA UNIVERSITY: YOSHIO NISHIMOTO, STEPHAN IRLE
     MOSCOW STATE UNIVERSITY: VLADIMIR MIRONOV

 EXECUTION OF GAMESS BEGUN Wed Aug  9 20:32:26 2017

            ECHO OF THE FIRST FEW INPUT CARDS -
 INPUT CARD>!  Test of fully numeric nuclear hessian, for a very symmetric molecule.        
 INPUT CARD>!  B12H12 -2 ion has Ih symmetry, but must be run in the subgroup Th,           
 INPUT CARD>!  nonetheless 4-fold and 5-fold degeneracies will be found in the run.         
 INPUT CARD>!  So symmetry labels below are for the subgroup, not the full group Ih.        
 INPUT CARD>!                                                                               
 INPUT CARD>!  In Th, there are 594 energy displacements, not 10,944 displacements.         
 INPUT CARD>!                                                                               
 INPUT CARD>!  fully numeric:                                                               
 INPUT CARD>!  FREQ=  365.78(tu+eu),            489.72(eg),  489.80(tg), ...                
 INPUT CARD>!        3225.74(eg), 3225.75(tg), 3234.64(tu), 3253.61(ag)                     
 INPUT CARD>!                                                                               
 INPUT CARD>!  seminumeric:                                                                 
 INPUT CARD>!  F.EQ=  365.59(tu), 370.98(eu),   488.37(tg),  491.08(eg), ...                
 INPUT CARD>!        3226.02(eg+tg),           3234.92(tu), 3253.77(ag)                     
 INPUT CARD>!                                                                               
 INPUT CARD>!  This job takes 9 seconds on a 2.66 GHz Cloverton (15 Apr 2015)               
 INPUT CARD>!  results haven't changed hardly since 2005                                    
 INPUT CARD>!                                                                               
 INPUT CARD> $contrl scftyp=rhf runtyp=hessian icharg=-2 molplt=.t. $end                    
 INPUT CARD> $system mwords=2 $end                                                          
 INPUT CARD> $basis  gbasis=am1 $end                                                        
 INPUT CARD> $force  method=fullnum nvib=2 $end                                             
 INPUT CARD> $data                                                                          
 INPUT CARD>closo-borane B12H12 -2 ion                                                      
 INPUT CARD>Th                                                                              
 INPUT CARD>                                                                                
 INPUT CARD>B           5.0  -1.4221398329   0.8789307547   0.0000000000                    
 INPUT CARD>H           1.0  -2.4321592233   1.5031570642   0.0000000000                    
 INPUT CARD> $end                                                                           
    2000000 WORDS OF MEMORY AVAILABLE

     BASIS OPTIONS
     -------------
     GBASIS=AM1          IGAUSS=       0      POLAR=NONE    
     NDFUNC=       0     NFFUNC=       0     DIFFSP=       F
     NPFUNC=       0      DIFFS=       F     BASNAM=        


     RUN TITLE
     ---------
 closo-borane B12H12 -2 ion                                                      

 THE POINT GROUP OF THE MOLECULE IS TH      
 THE ORDER OF THE PRINCIPAL AXIS IS     0

 ATOM      ATOMIC                      COORDINATES (BOHR)
           CHARGE         X                   Y                   Z
 B           5.0    -2.6874546004       -1.6609382886        0.0000000000
 B           5.0     2.6874546004        1.6609382886        0.0000000000
 B           5.0     2.6874546004       -1.6609382886        0.0000000000
 B           5.0     0.0000000000       -2.6874546004        1.6609382886
 B           5.0     0.0000000000       -2.6874546004       -1.6609382886
 B           5.0     0.0000000000        2.6874546004        1.6609382886
 B           5.0     0.0000000000        2.6874546004       -1.6609382886
 B           5.0     1.6609382886        0.0000000000       -2.6874546004
 B           5.0    -1.6609382886        0.0000000000       -2.6874546004
 B           5.0     1.6609382886        0.0000000000        2.6874546004
 B           5.0    -1.6609382886        0.0000000000        2.6874546004
 B           5.0    -2.6874546004        1.6609382886        0.0000000000
 H           1.0    -4.5961144905       -2.8405549678        0.0000000000
 H           1.0     4.5961144905        2.8405549678        0.0000000000
 H           1.0     4.5961144905       -2.8405549678        0.0000000000
 H           1.0     0.0000000000       -4.5961144905        2.8405549678
 H           1.0     0.0000000000       -4.5961144905       -2.8405549678
 H           1.0     0.0000000000        4.5961144905        2.8405549678
 H           1.0     0.0000000000        4.5961144905       -2.8405549678
 H           1.0     2.8405549678        0.0000000000       -4.5961144905
 H           1.0    -2.8405549678        0.0000000000       -4.5961144905
 H           1.0     2.8405549678        0.0000000000        4.5961144905
 H           1.0    -2.8405549678        0.0000000000        4.5961144905
 H           1.0    -4.5961144905        2.8405549678        0.0000000000

          INTERNUCLEAR DISTANCES (ANGS.)
          ------------------------------

                1 B          2 B          3 B          4 B          5 B     

   1 B       0.0000000    3.3436513    2.8442797 *  1.7578615 *  1.7578615 *
   2 B       3.3436513    0.0000000    1.7578615 *  2.8442797 *  2.8442797 *
   3 B       2.8442797 *  1.7578615 *  0.0000000    1.7578615 *  1.7578615 *
   4 B       1.7578615 *  2.8442797 *  1.7578615 *  0.0000000    1.7578615 *
   5 B       1.7578615 *  2.8442797 *  1.7578615 *  1.7578615 *  0.0000000  
   6 B       2.8442797 *  1.7578615 *  2.8442797 *  2.8442797 *  3.3436513  
   7 B       2.8442797 *  1.7578615 *  2.8442797 *  3.3436513    2.8442797 *
   8 B       2.8442797 *  1.7578615 *  1.7578615 *  2.8442797 *  1.7578615 *
   9 B       1.7578615 *  2.8442797 *  2.8442797 *  2.8442797 *  1.7578615 *
  10 B       2.8442797 *  1.7578615 *  1.7578615 *  1.7578615 *  2.8442797 *
  11 B       1.7578615 *  2.8442797 *  2.8442797 *  1.7578615 *  2.8442797 *
  12 B       1.7578615 *  2.8442797 *  3.3436513    2.8442797 *  2.8442797 *
  13 H       1.1873490 *  4.5310003    3.9045204    2.5873696 *  2.5873696 *
  14 H       4.5310003    1.1873490 *  2.5873696 *  3.9045204    3.9045204  
  15 H       3.9045204    2.5873696 *  1.1873490 *  2.5873696 *  2.5873696 *
  16 H       2.5873696 *  3.9045204    2.5873696 *  1.1873490 *  2.5873696 *
  17 H       2.5873696 *  3.9045204    2.5873696 *  2.5873696 *  1.1873490 *
  18 H       3.9045204    2.5873696 *  3.9045204    3.9045204    4.5310003  
  19 H       3.9045204    2.5873696 *  3.9045204    4.5310003    3.9045204  
  20 H       3.9045204    2.5873696 *  2.5873696 *  3.9045204    2.5873696 *
  21 H       2.5873696 *  3.9045204    3.9045204    3.9045204    2.5873696 *
  22 H       3.9045204    2.5873696 *  2.5873696 *  2.5873696 *  3.9045204  
  23 H       2.5873696 *  3.9045204    3.9045204    2.5873696 *  3.9045204  
  24 H       2.5873696 *  3.9045204    4.5310003    3.9045204    3.9045204  

                6 B          7 B          8 B          9 B         10 B     

   1 B       2.8442797 *  2.8442797 *  2.8442797 *  1.7578615 *  2.8442797 *
   2 B       1.7578615 *  1.7578615 *  1.7578615 *  2.8442797 *  1.7578615 *
   3 B       2.8442797 *  2.8442797 *  1.7578615 *  2.8442797 *  1.7578615 *
   4 B       2.8442797 *  3.3436513    2.8442797 *  2.8442797 *  1.7578615 *
   5 B       3.3436513    2.8442797 *  1.7578615 *  1.7578615 *  2.8442797 *
   6 B       0.0000000    1.7578615 *  2.8442797 *  2.8442797 *  1.7578615 *
   7 B       1.7578615 *  0.0000000    1.7578615 *  1.7578615 *  2.8442797 *
   8 B       2.8442797 *  1.7578615 *  0.0000000    1.7578615 *  2.8442797 *
   9 B       2.8442797 *  1.7578615 *  1.7578615 *  0.0000000    3.3436513  
  10 B       1.7578615 *  2.8442797 *  2.8442797 *  3.3436513    0.0000000  
  11 B       1.7578615 *  2.8442797 *  3.3436513    2.8442797 *  1.7578615 *
  12 B       1.7578615 *  1.7578615 *  2.8442797 *  1.7578615 *  2.8442797 *
  13 H       3.9045204    3.9045204    3.9045204    2.5873696 *  3.9045204  
  14 H       2.5873696 *  2.5873696 *  2.5873696 *  3.9045204    2.5873696 *
  15 H       3.9045204    3.9045204    2.5873696 *  3.9045204    2.5873696 *
  16 H       3.9045204    4.5310003    3.9045204    3.9045204    2.5873696 *
  17 H       4.5310003    3.9045204    2.5873696 *  2.5873696 *  3.9045204  
  18 H       1.1873490 *  2.5873696 *  3.9045204    3.9045204    2.5873696 *
  19 H       2.5873696 *  1.1873490 *  2.5873696 *  2.5873696 *  3.9045204  
  20 H       3.9045204    2.5873696 *  1.1873490 *  2.5873696 *  3.9045204  
  21 H       3.9045204    2.5873696 *  2.5873696 *  1.1873490 *  4.5310003  
  22 H       2.5873696 *  3.9045204    3.9045204    4.5310003    1.1873490 *
  23 H       2.5873696 *  3.9045204    4.5310003    3.9045204    2.5873696 *
  24 H       2.5873696 *  2.5873696 *  3.9045204    2.5873696 *  3.9045204  

               11 B         12 B         13 H         14 H         15 H     

   1 B       1.7578615 *  1.7578615 *  1.1873490 *  4.5310003    3.9045204  
   2 B       2.8442797 *  2.8442797 *  4.5310003    1.1873490 *  2.5873696 *
   3 B       2.8442797 *  3.3436513    3.9045204    2.5873696 *  1.1873490 *
   4 B       1.7578615 *  2.8442797 *  2.5873696 *  3.9045204    2.5873696 *
   5 B       2.8442797 *  2.8442797 *  2.5873696 *  3.9045204    2.5873696 *
   6 B       1.7578615 *  1.7578615 *  3.9045204    2.5873696 *  3.9045204  
   7 B       2.8442797 *  1.7578615 *  3.9045204    2.5873696 *  3.9045204  
   8 B       3.3436513    2.8442797 *  3.9045204    2.5873696 *  2.5873696 *
   9 B       2.8442797 *  1.7578615 *  2.5873696 *  3.9045204    3.9045204  
  10 B       1.7578615 *  2.8442797 *  3.9045204    2.5873696 *  2.5873696 *
  11 B       0.0000000    1.7578615 *  2.5873696 *  3.9045204    3.9045204  
  12 B       1.7578615 *  0.0000000    2.5873696 *  3.9045204    4.5310003  
  13 H       2.5873696 *  2.5873696 *  0.0000000    5.7183493    4.8643184  
  14 H       3.9045204    3.9045204    5.7183493    0.0000000    3.0063141  
  15 H       3.9045204    4.5310003    4.8643184    3.0063141    0.0000000  
  16 H       2.5873696 *  3.9045204    3.0063141    4.8643184    3.0063141  
  17 H       3.9045204    3.9045204    3.0063141    4.8643184    3.0063141  
  18 H       2.5873696 *  2.5873696 *  4.8643184    3.0063141    4.8643184  
  19 H       3.9045204    2.5873696 *  4.8643184    3.0063141    4.8643184  
  20 H       4.5310003    3.9045204    4.8643184    3.0063141    3.0063141  
  21 H       3.9045204    2.5873696 *  3.0063141    4.8643184    4.8643184  
  22 H       2.5873696 *  3.9045204    4.8643184    3.0063141    3.0063141  
  23 H       1.1873490 *  2.5873696 *  3.0063141    4.8643184    4.8643184  
  24 H       2.5873696 *  1.1873490 *  3.0063141    4.8643184    5.7183493  

               16 H         17 H         18 H         19 H         20 H     

   1 B       2.5873696 *  2.5873696 *  3.9045204    3.9045204    3.9045204  
   2 B       3.9045204    3.9045204    2.5873696 *  2.5873696 *  2.5873696 *
   3 B       2.5873696 *  2.5873696 *  3.9045204    3.9045204    2.5873696 *
   4 B       1.1873490 *  2.5873696 *  3.9045204    4.5310003    3.9045204  
   5 B       2.5873696 *  1.1873490 *  4.5310003    3.9045204    2.5873696 *
   6 B       3.9045204    4.5310003    1.1873490 *  2.5873696 *  3.9045204  
   7 B       4.5310003    3.9045204    2.5873696 *  1.1873490 *  2.5873696 *
   8 B       3.9045204    2.5873696 *  3.9045204    2.5873696 *  1.1873490 *
   9 B       3.9045204    2.5873696 *  3.9045204    2.5873696 *  2.5873696 *
  10 B       2.5873696 *  3.9045204    2.5873696 *  3.9045204    3.9045204  
  11 B       2.5873696 *  3.9045204    2.5873696 *  3.9045204    4.5310003  
  12 B       3.9045204    3.9045204    2.5873696 *  2.5873696 *  3.9045204  
  13 H       3.0063141    3.0063141    4.8643184    4.8643184    4.8643184  
  14 H       4.8643184    4.8643184    3.0063141    3.0063141    3.0063141  
  15 H       3.0063141    3.0063141    4.8643184    4.8643184    3.0063141  
  16 H       0.0000000    3.0063141    4.8643184    5.7183493    4.8643184  
  17 H       3.0063141    0.0000000    5.7183493    4.8643184    3.0063141  
  18 H       4.8643184    5.7183493    0.0000000    3.0063141    4.8643184  
  19 H       5.7183493    4.8643184    3.0063141    0.0000000    3.0063141  
  20 H       4.8643184    3.0063141    4.8643184    3.0063141    0.0000000  
  21 H       4.8643184    3.0063141    4.8643184    3.0063141    3.0063141  
  22 H       3.0063141    4.8643184    3.0063141    4.8643184    4.8643184  
  23 H       3.0063141    4.8643184    3.0063141    4.8643184    5.7183493  
  24 H       4.8643184    4.8643184    3.0063141    3.0063141    4.8643184  

               21 H         22 H         23 H         24 H     

   1 B       2.5873696 *  3.9045204    2.5873696 *  2.5873696 *
   2 B       3.9045204    2.5873696 *  3.9045204    3.9045204  
   3 B       3.9045204    2.5873696 *  3.9045204    4.5310003  
   4 B       3.9045204    2.5873696 *  2.5873696 *  3.9045204  
   5 B       2.5873696 *  3.9045204    3.9045204    3.9045204  
   6 B       3.9045204    2.5873696 *  2.5873696 *  2.5873696 *
   7 B       2.5873696 *  3.9045204    3.9045204    2.5873696 *
   8 B       2.5873696 *  3.9045204    4.5310003    3.9045204  
   9 B       1.1873490 *  4.5310003    3.9045204    2.5873696 *
  10 B       4.5310003    1.1873490 *  2.5873696 *  3.9045204  
  11 B       3.9045204    2.5873696 *  1.1873490 *  2.5873696 *
  12 B       2.5873696 *  3.9045204    2.5873696 *  1.1873490 *
  13 H       3.0063141    4.8643184    3.0063141    3.0063141  
  14 H       4.8643184    3.0063141    4.8643184    4.8643184  
  15 H       4.8643184    3.0063141    4.8643184    5.7183493  
  16 H       4.8643184    3.0063141    3.0063141    4.8643184  
  17 H       3.0063141    4.8643184    4.8643184    4.8643184  
  18 H       4.8643184    3.0063141    3.0063141    3.0063141  
  19 H       3.0063141    4.8643184    4.8643184    3.0063141  
  20 H       3.0063141    4.8643184    5.7183493    4.8643184  
  21 H       0.0000000    5.7183493    4.8643184    3.0063141  
  22 H       5.7183493    0.0000000    3.0063141    4.8643184  
  23 H       4.8643184    3.0063141    0.0000000    3.0063141  
  24 H       3.0063141    4.8643184    3.0063141    0.0000000  

  * ... LESS THAN  3.000


 TOTAL NUMBER OF BASIS SET SHELLS             =   24
 NUMBER OF CARTESIAN GAUSSIAN BASIS FUNCTIONS =   60
 NUMBER OF ELECTRONS                          =   50
 CHARGE OF MOLECULE                           =   -2
 SPIN MULTIPLICITY                            =    1
 NUMBER OF OCCUPIED ORBITALS (ALPHA)          =   25
 NUMBER OF OCCUPIED ORBITALS (BETA )          =   25
 TOTAL NUMBER OF ATOMS                        =   24
 THE NUCLEAR REPULSION ENERGY IS      533.9162492960

 THE PARAMETERS USED IN THIS CALCULATION ARE DESCRIBED IN:

  H: (AM1): M.J.S. DEWAR ET AL, J. AM. CHEM. SOC. 107 3902-3909 (1985)          
  B: (AM1):  M.J.S. DEWAR, C. JIE, E. G. ZOEBISCH ORGANOMETALLICS 7, 513 (1988) 

 THERE ARE   12 HEAVY AND   12 LIGHT ATOMS,
 YIELDING A TOTAL OF      8106 MOPAC 2E- INTEGRALS.

     $CONTRL OPTIONS
     ---------------
 SCFTYP=RHF          RUNTYP=HESSIAN      EXETYP=RUN     
 MPLEVL=       0     CITYP =NONE         CCTYP =NONE         VBTYP =NONE    
 DFTTYP=NONE         TDDFT =NONE    
 MULT  =       1     ICHARG=      -2     NZVAR =       0     COORD =UNIQUE  
 PP    =NONE         RELWFN=NONE         LOCAL =NONE         NUMGRD=       F
 ISPHER=      -1     NOSYM =       0     MAXIT =      30     UNITS =ANGS    
 PLTORB=       F     MOLPLT=       T     AIMPAC=       F     FRIEND=        
 NPRINT=       7     IREST =       0     GEOM  =INPUT   
 NORMF =       0     NORMP =       0     ITOL  =      20     ICUT  =       9
 INTTYP=BEST         GRDTYP=BEST         QMTTOL= 1.0E-06

     $SYSTEM OPTIONS
     ---------------
  REPLICATED MEMORY=     2000000 WORDS (ON EVERY NODE).
 DISTRIBUTED MEMDDI=           0 MILLION WORDS IN AGGREGATE,
 MEMDDI DISTRIBUTED OVER   1 PROCESSORS IS           0 WORDS/PROCESSOR.
 TOTAL MEMORY REQUESTED ON EACH PROCESSOR=     2000000 WORDS.
 TIMLIM=      525600.00 MINUTES, OR     365.0 DAYS.
 PARALL= F  BALTYP=  DLB     KDIAG=    0  COREFL= F
 MXSEQ2=     300 MXSEQ3=     150  mem10=         0

          ----------------
          PROPERTIES INPUT
          ----------------

     MOMENTS            FIELD           POTENTIAL          DENSITY
 IEMOM =       1   IEFLD =       0   IEPOT =       0   IEDEN =       0
 WHERE =COMASS     WHERE =NUCLEI     WHERE =NUCLEI     WHERE =NUCLEI  
 OUTPUT=BOTH       OUTPUT=BOTH       OUTPUT=BOTH       OUTPUT=BOTH    
 IEMINT=       0   IEFINT=       0                     IEDINT=       0
                                                       MORB  =       0
          EXTRAPOLATION IN EFFECT
 ORBITAL PRINTING OPTION: NPREO=     1    60     2     1

     -------------------------------
     INTEGRAL TRANSFORMATION OPTIONS
     -------------------------------
     NWORD  =            0
     CUTOFF = 1.0E-09     MPTRAN =       0
     DIRTRF =       F     AOINTS =DUP     

          ----------------------
          INTEGRAL INPUT OPTIONS
          ----------------------
 NOPK  =       1 NORDER=       0 SCHWRZ=       T

     --------------------------------
     THE POINT GROUP IS TH , ORDER=24
     --------------------------------
 .. THE CHARACTERS OF THE -E- REPRESENTATIONS ARE COMPLEX NUMBERS ..

     DIMENSIONS OF THE SYMMETRY SUBSPACES ARE
 AG  =    4     EG  =    4     TG  =    6     AU  =    1     EU  =    1
 TU  =    9

 ..... DONE SETTING UP THE RUN .....
 STEP CPU TIME =     0.01 TOTAL CPU TIME =        0.0 (    0.0 MIN)
 TOTAL WALL CLOCK TIME=        0.0 SECONDS, CPU UTILIZATION IS  33.33%

     ---------------------------------
     HESSIAN MATRIX CONTROL PARAMETERS
     ---------------------------------
     METHOD=FULLNUM    NVIB  =       2   VIBSIZ= 0.01000
     RDHESS=       F   PURIFY=       F   PRTIFC=       F
     VIBANL=       T   DECOMP=       F   PROJCT=       F
     SCLFAC= 1.00000   PRTSCN=       F   NPRT  =       0
     PULCOR=       F   NPUN  =       0   REDOVB=       T
     HSSTYP=GENERAL 
     THERMOCHEMISTRY WILL BE PRINTED FOR    1 TEMPERATURES:
      298.15000

               * * * EFFICIENCY NOTE * * *
 THIS CALCULATION CAN BE RUN WITH DIFFERENTIATION METHOD=SEMINUM 
 THIS MIGHT BE MORE ACCURATE AND/OR FASTER THAN YOUR CHOICE,
 BUT THE REQUESTED CALCULATION METHOD=FULLNUM  IS PROCEEDING.


          ********************
          1 ELECTRON INTEGRALS
          ********************

          **************************
          1 AND 2 ELECTRON INTEGRALS
          **************************

 MOPAC ONE- AND TWO-ELECTRON INTEGRALS REQUIRE     11766 WORDS.
 ...... END OF ONE- AND TWO-ELECTRON INTEGRALS......
 STEP CPU TIME =     0.01 TOTAL CPU TIME =        0.0 (    0.0 MIN)
 TOTAL WALL CLOCK TIME=        0.0 SECONDS, CPU UTILIZATION IS  66.67%
 ...... END OF ONE-ELECTRON INTEGRALS ......
 STEP CPU TIME =     0.00 TOTAL CPU TIME =        0.0 (    0.0 MIN)
 TOTAL WALL CLOCK TIME=        0.0 SECONDS, CPU UTILIZATION IS  66.67%

          -------------
          GUESS OPTIONS
          -------------
          GUESS =HUCKEL            NORB  =       0          NORDER=       0
          MIX   =       F          PRTMO =       F          PUNMO =       F
          TOLZ  = 1.0E-08          TOLE  = 1.0E-05
          SYMDEN=       F          PURIFY=       F

 INITIAL GUESS ORBITALS GENERATED BY HUCKEL   ROUTINE.

 SYMMETRIES FOR INITIAL GUESS ORBITALS FOLLOW.   BOTH SET(S).
    25 ORBITALS ARE OCCUPIED (    0 CORE ORBITALS).
     1=AG       2=TU       3=TU       4=TU       5=?EG      6=?EG      7=?TG 
     8=?TG      9=?TG     10=AG      11=TU      12=TU      13=TU      14=TU  
    15=TU      16=TU      17=?TG     18=?TG     19=?TG     20=?EG     21=?EG 
    22=?AU     23=?TU     24=?TU     25=?TU     26=?TG     27=?TG     28=?TG 
    29=?AG     30=?TU     31=?TU     32=?TU     33=?EU     34=?EU     35=TU  
 ...... END OF INITIAL ORBITAL SELECTION ......
 STEP CPU TIME =     0.00 TOTAL CPU TIME =        0.0 (    0.0 MIN)
 TOTAL WALL CLOCK TIME=        0.0 SECONDS, CPU UTILIZATION IS  66.67%

          --------------------------
               R-AM1 SCF CALCULATION
          --------------------------

     NUCLEAR ENERGY =       200.8504756344
     MAXIT =   30     NPUNCH=    2
     EXTRAP=T  DAMP=F  SHIFT=F  RSTRCT=F  DIIS=F  DEM=F  SOSCF=F
     DENSITY MATRIX CONV=  1.00E-05
     MEMORY REQUIRED FOR RHF ITERS=     34530 WORDS.

 ITER EX DEM     TOTAL ENERGY        E CHANGE  DENSITY CHANGE    DIIS ERROR
   1  0  0      -36.1736962696   -36.1736962696   0.269605739   0.000000000
   2  1  0      -36.7292652645    -0.5555689948   0.078765853   0.000000000
   3  2  0      -36.7789741396    -0.0497088751   0.024631575   0.000000000
   4  3  0      -36.7847560688    -0.0057819292   0.008180342   0.000000000
   5  0  0      -36.7855415810    -0.0007855122   0.004488152   0.000000000
   6  1  0      -36.7856883259    -0.0001467448   0.000257297   0.000000000
   7  2  0      -36.7856888837    -0.0000005579   0.000118890   0.000000000
   8  3  0      -36.7856890014    -0.0000001177   0.000055226   0.000000000
   9  4  0      -36.7856890276    -0.0000000262   0.000026011   0.000000000
  10  5  0      -36.7856890336    -0.0000000060   0.000012370   0.000000000
  11  6  0      -36.7856890350    -0.0000000014   0.000005922   0.000000000
  12  7  0      -36.7856890353    -0.0000000003   0.000002847   0.000000000

          -----------------
          DENSITY CONVERGED
          -----------------
     TIME TO FORM FOCK OPERATORS=       0.0 SECONDS (       0.0 SEC/ITER)
     TIME TO SOLVE SCF EQUATIONS=       0.0 SECONDS (       0.0 SEC/ITER)

 FINAL R-AM1 ENERGY IS      -36.7856890353 AFTER  12 ITERATIONS

 HEAT OF FORMATION IS       -44.06034 KCAL/MOL


          ------------
          EIGENVECTORS
          ------------

                      1          2          3          4          5
                   -1.0812    -0.6927    -0.6927    -0.6927    -0.3850
                     AG         TU         TU         TU         ?TG 
    1  B  1  S    0.261869  -0.384167  -0.116909  -0.154712  -0.018932
    2  B  1  X    0.092493  -0.069727   0.052957   0.005815   0.000780
    3  B  1  Y    0.057164   0.021458  -0.113490  -0.046202   0.006904
    4  B  1  Z    0.000000  -0.033210  -0.057556   0.125955   0.134580
    5  B  2  S    0.261869   0.384167   0.116909   0.154712  -0.018932
    6  B  2  X   -0.092493  -0.069727   0.052957   0.005815  -0.000780
    7  B  2  Y   -0.057164   0.021458  -0.113490  -0.046202  -0.006904
    8  B  2  Z   -0.000000  -0.033210  -0.057556   0.125955  -0.134580
    9  B  3  S    0.261869   0.023393   0.388463   0.183677   0.018932
   10  B  3  X   -0.092493   0.070203  -0.052367  -0.005420   0.000780
   11  B  3  Y    0.057164   0.119154   0.007652   0.034913  -0.006904
   12  B  3  Z   -0.000000  -0.033210  -0.057556   0.125955   0.108437
   13  B  4  S    0.261869  -0.344632   0.128255   0.223535   0.358213
   14  B  4  X    0.000000   0.079276   0.098302   0.065821   0.002312
   15  B  4  Y    0.092493  -0.020122  -0.035721   0.077584  -0.014763
   16  B  4  Z   -0.057164   0.049402  -0.088300   0.072372   0.130633
   17  B  5  S    0.261869  -0.239114   0.311129  -0.176668  -0.358213
   18  B  5  X    0.000000   0.079276   0.098302   0.065821   0.018470
   19  B  5  Y    0.092493   0.020804   0.035208  -0.077638   0.014763
   20  B  5  Z    0.057164  -0.090528   0.017025   0.083606   0.130633
   21  B  6  S    0.261869   0.239114  -0.311129   0.176668  -0.358213
   22  B  6  X   -0.000000   0.079276   0.098302   0.065821  -0.018470
   23  B  6  Y   -0.092493   0.020804   0.035208  -0.077638  -0.014763
   24  B  6  Z   -0.057164  -0.090528   0.017025   0.083606  -0.130633
   25  B  7  S    0.261869   0.344632  -0.128255  -0.223535   0.358213
   26  B  7  X    0.000000   0.079276   0.098302   0.065821  -0.002312
   27  B  7  Y   -0.092493  -0.020122  -0.035721   0.077584   0.014763
   28  B  7  Z    0.057164   0.049402  -0.088300   0.072372  -0.130633
   29  B  8  S    0.261869   0.211309   0.304117  -0.219203   0.023816
   30  B  8  X   -0.057164   0.028623   0.025402   0.118366   0.008685
   31  B  8  Y   -0.000000   0.113546  -0.085466  -0.009116   0.190184
   32  B  8  Z    0.092493   0.048748   0.060398   0.040936  -0.000982
   33  B  9  S    0.261869  -0.040577  -0.008220  -0.428339  -0.023816
   34  B  9  X    0.057164   0.069549   0.096331  -0.036856   0.008685
   35  B  9  Y   -0.000000   0.113546  -0.085466  -0.009116   0.203028
   36  B  9  Z    0.092493  -0.048948  -0.060744  -0.040179   0.000982
   37  B 10  S    0.261869   0.040577   0.008220   0.428339  -0.023816
   38  B 10  X   -0.057164   0.069549   0.096331  -0.036856  -0.008685
   39  B 10  Y   -0.000000   0.113546  -0.085466  -0.009116  -0.203028
   40  B 10  Z   -0.092493  -0.048948  -0.060744  -0.040179  -0.000982
   41  B 11  S    0.261869  -0.211309  -0.304117   0.219203   0.023816
   42  B 11  X    0.057164   0.028623   0.025402   0.118366  -0.008685
   43  B 11  Y   -0.000000   0.113546  -0.085466  -0.009116  -0.190184
   44  B 11  Z   -0.092493   0.048748   0.060398   0.040936   0.000982
   45  B 12  S    0.261869  -0.023393  -0.388463  -0.183677   0.018932
   46  B 12  X    0.092493   0.070203  -0.052367  -0.005420  -0.000780
   47  B 12  Y   -0.057164   0.119154   0.007652   0.034913   0.006904
   48  B 12  Z    0.000000  -0.033210  -0.057556   0.125955  -0.108437
   49  H 13  S    0.054180  -0.130459  -0.039701  -0.052539  -0.011722
   50  H 14  S    0.054180   0.130459   0.039701   0.052539  -0.011722
   51  H 15  S    0.054180   0.007944   0.131918   0.062375   0.011722
   52  H 16  S    0.054180  -0.117034   0.043554   0.075910   0.221792
   53  H 17  S    0.054180  -0.081201   0.105656  -0.059995  -0.221792
   54  H 18  S    0.054180   0.081201  -0.105656   0.059995  -0.221792
   55  H 19  S    0.054180   0.117034  -0.043554  -0.075910   0.221792
   56  H 20  S    0.054180   0.071758   0.103275  -0.074439   0.014746
   57  H 21  S    0.054180  -0.013780  -0.002792  -0.145460  -0.014746
   58  H 22  S    0.054180   0.013780   0.002792   0.145460  -0.014746
   59  H 23  S    0.054180  -0.071758  -0.103275   0.074439   0.014746
   60  H 24  S    0.054180  -0.007944  -0.131918  -0.062375   0.011722

                      6          7          8          9         10
                   -0.3850    -0.3850    -0.3850    -0.3850    -0.2689
                     ?TG        ?TG        ?EG        ?EG        AG  
    1  B  1  S   -0.358937   0.006940   0.293091  -0.016097   0.048808
    2  B  1  X    0.014793  -0.000286  -0.127962  -0.079331  -0.180393
    3  B  1  Y    0.130897  -0.002531   0.080618   0.135304  -0.111489
    4  B  1  Z   -0.003446   0.188891   0.000000  -0.000000  -0.000000
    5  B  2  S   -0.358937   0.006940   0.293091  -0.016097   0.048808
    6  B  2  X   -0.014793   0.000286   0.127962   0.079331   0.180393
    7  B  2  Y   -0.130897   0.002531  -0.080618  -0.135304   0.111489
    8  B  2  Z    0.003446  -0.188891  -0.000000   0.000000   0.000000
    9  B  3  S    0.358937  -0.006940   0.293091  -0.016097   0.048808
   10  B  3  X    0.014793  -0.000286   0.127961   0.079331   0.180393
   11  B  3  Y   -0.130897   0.002531   0.080618   0.135304  -0.111489
   12  B  3  Z   -0.009680  -0.204820  -0.000000   0.000000   0.000000
   13  B  4  S   -0.019348  -0.023480  -0.160486  -0.245776   0.048808
   14  B  4  X    0.195077  -0.125472  -0.000000   0.000000   0.000000
   15  B  4  Y    0.000797   0.000968  -0.004722   0.150484  -0.180393
   16  B  4  Z   -0.007056  -0.008562  -0.076868   0.137469   0.111489
   17  B  5  S    0.019348   0.023479  -0.160486  -0.245776   0.048808
   18  B  5  X    0.198929   0.117854  -0.000000  -0.000000   0.000000
   19  B  5  Y   -0.000797  -0.000968  -0.004722   0.150484  -0.180393
   20  B  5  Z   -0.007056  -0.008563   0.076868  -0.137469  -0.111489
   21  B  6  S    0.019348   0.023479  -0.160486  -0.245776   0.048808
   22  B  6  X   -0.198929  -0.117854   0.000000   0.000000  -0.000000
   23  B  6  Y    0.000797   0.000968   0.004722  -0.150484   0.180393
   24  B  6  Z    0.007056   0.008563  -0.076868   0.137469   0.111489
   25  B  7  S   -0.019348  -0.023480  -0.160486  -0.245776   0.048808
   26  B  7  X   -0.195077   0.125472   0.000000  -0.000000  -0.000000
   27  B  7  Y   -0.000797  -0.000968   0.004722  -0.150484   0.180393
   28  B  7  Z    0.007056   0.008562   0.076868  -0.137469  -0.111489
   29  B  8  S    0.005678   0.358668  -0.132605   0.261873   0.048808
   30  B  8  X    0.002071   0.130799   0.157486  -0.002165   0.111489
   31  B  8  Y   -0.132374  -0.010533   0.000000   0.000000  -0.000000
   32  B  8  Z   -0.000234  -0.014782   0.132684  -0.071152  -0.180393
   33  B  9  S   -0.005678  -0.358668  -0.132605   0.261873   0.048808
   34  B  9  X    0.002071   0.130799  -0.157486   0.002165  -0.111489
   35  B  9  Y    0.111135  -0.015241  -0.000000   0.000000   0.000000
   36  B  9  Z    0.000234   0.014781   0.132684  -0.071152  -0.180393
   37  B 10  S   -0.005678  -0.358668  -0.132605   0.261873   0.048808
   38  B 10  X   -0.002071  -0.130799   0.157486  -0.002165   0.111489
   39  B 10  Y   -0.111135   0.015241   0.000000  -0.000000  -0.000000
   40  B 10  Z   -0.000234  -0.014781  -0.132684   0.071152   0.180393
   41  B 11  S    0.005678   0.358668  -0.132605   0.261873   0.048808
   42  B 11  X   -0.002071  -0.130799  -0.157486   0.002165  -0.111489
   43  B 11  Y    0.132374   0.010533  -0.000000  -0.000000   0.000000
   44  B 11  Z    0.000234   0.014782  -0.132684   0.071152   0.180393
   45  B 12  S    0.358937  -0.006940   0.293091  -0.016097   0.048808
   46  B 12  X   -0.014793   0.000286  -0.127961  -0.079331  -0.180393
   47  B 12  Y    0.130897  -0.002531  -0.080618  -0.135304   0.111489
   48  B 12  Z    0.009680   0.204820   0.000000  -0.000000  -0.000000
   49  H 13  S   -0.222240   0.004297   0.181471  -0.009967   0.189683
   50  H 14  S   -0.222240   0.004297   0.181471  -0.009967   0.189683
   51  H 15  S    0.222240  -0.004297   0.181471  -0.009967   0.189683
   52  H 16  S   -0.011980  -0.014538  -0.099367  -0.152175   0.189683
   53  H 17  S    0.011980   0.014538  -0.099367  -0.152175   0.189683
   54  H 18  S    0.011980   0.014538  -0.099367  -0.152175   0.189683
   55  H 19  S   -0.011980  -0.014538  -0.099367  -0.152175   0.189683
   56  H 20  S    0.003516   0.222074  -0.082104   0.162142   0.189683
   57  H 21  S   -0.003516  -0.222074  -0.082104   0.162142   0.189683
   58  H 22  S   -0.003516  -0.222074  -0.082104   0.162142   0.189683
   59  H 23  S    0.003516   0.222074  -0.082104   0.162142   0.189683
   60  H 24  S    0.222240  -0.004297   0.181471  -0.009967   0.189683

                     11         12         13         14         15
                   -0.2289    -0.2289    -0.2289    -0.1433    -0.1433
                     TU         TU         TU         TU         TU  
    1  B  1  S    0.175718  -0.250943  -0.036710  -0.016615   0.012566
    2  B  1  X   -0.096240   0.137441   0.020106  -0.237854   0.166655
    3  B  1  Y   -0.059480   0.084943   0.012426  -0.106833   0.102216
    4  B  1  Z    0.000000   0.000000   0.000000  -0.035579  -0.060281
    5  B  2  S   -0.175718   0.250943   0.036710   0.016615  -0.012566
    6  B  2  X   -0.096240   0.137441   0.020106  -0.237854   0.166655
    7  B  2  Y   -0.059480   0.084943   0.012426  -0.106833   0.102216
    8  B  2  Z    0.000000   0.000000   0.000000  -0.035579  -0.060281
    9  B  3  S    0.061560  -0.163729   0.254166  -0.002156  -0.005433
   10  B  3  X    0.033716  -0.089674   0.139205   0.061477   0.052908
   11  B  3  Y   -0.020838   0.055421  -0.086034   0.035664  -0.075172
   12  B  3  Z    0.000000   0.000000   0.000000  -0.035579  -0.060281
   13  B  4  S    0.141806   0.272773  -0.026133  -0.021054  -0.004170
   14  B  4  X    0.000000  -0.000000  -0.000000   0.027094  -0.033728
   15  B  4  Y   -0.077666  -0.149397   0.014313  -0.278811  -0.088124
   16  B  4  Z    0.048001   0.092332  -0.008846   0.171910  -0.019184
   17  B  5  S   -0.288452  -0.016492  -0.108261  -0.009319   0.015712
   18  B  5  X    0.000000  -0.000000  -0.000000   0.027094  -0.033728
   19  B  5  Y    0.157984   0.009032   0.059294  -0.091689   0.228915
   20  B  5  Z    0.097639   0.005582   0.036646  -0.127420   0.094563
   21  B  6  S    0.288452   0.016492   0.108261   0.009319  -0.015712
   22  B  6  X    0.000000  -0.000000  -0.000000   0.027094  -0.033728
   23  B  6  Y    0.157984   0.009032   0.059294  -0.091689   0.228915
   24  B  6  Z    0.097639   0.005582   0.036646  -0.127420   0.094563
   25  B  7  S   -0.141806  -0.272773   0.026133   0.021054   0.004170
   26  B  7  X    0.000000  -0.000000  -0.000000   0.027094  -0.033728
   27  B  7  Y   -0.077666  -0.149397   0.014313  -0.278811  -0.088124
   28  B  7  Z    0.048001   0.092332  -0.008846   0.171910  -0.019184
   29  B  8  S    0.225312   0.018830  -0.209945   0.013962   0.010523
   30  B  8  X    0.076267   0.006374  -0.071065  -0.110501  -0.137432
   31  B  8  Y   -0.000000   0.000000  -0.000000   0.056914  -0.021628
   32  B  8  Z   -0.123403  -0.010313   0.114986   0.187054   0.107515
   33  B  9  S    0.040602   0.159946   0.260703   0.005026   0.021647
   34  B  9  X   -0.013743  -0.054141  -0.088246   0.076621   0.179608
   35  B  9  Y   -0.000000   0.000000  -0.000000   0.056914  -0.021628
   36  B  9  Z   -0.022237  -0.087602  -0.142786   0.044558   0.284903
   37  B 10  S   -0.040602  -0.159946  -0.260703  -0.005026  -0.021647
   38  B 10  X   -0.013743  -0.054141  -0.088246   0.076621   0.179608
   39  B 10  Y   -0.000000   0.000000  -0.000000   0.056914  -0.021628
   40  B 10  Z   -0.022237  -0.087602  -0.142786   0.044558   0.284903
   41  B 11  S   -0.225312  -0.018830   0.209945  -0.013962  -0.010523
   42  B 11  X    0.076267   0.006374  -0.071065  -0.110501  -0.137432
   43  B 11  Y   -0.000000   0.000000  -0.000000   0.056914  -0.021628
   44  B 11  Z   -0.123403  -0.010313   0.114986   0.187054   0.107515
   45  B 12  S   -0.061560   0.163729  -0.254166   0.002156   0.005433
   46  B 12  X    0.033716  -0.089674   0.139205   0.061477   0.052908
   47  B 12  Y   -0.020838   0.055421  -0.086034   0.035664  -0.075172
   48  B 12  Z    0.000000   0.000000   0.000000  -0.035579  -0.060281
   49  H 13  S    0.193416  -0.276218  -0.040408   0.247335  -0.187062
   50  H 14  S   -0.193416   0.276218   0.040408  -0.247335   0.187062
   51  H 15  S    0.067761  -0.180220   0.279765   0.032097   0.080877
   52  H 16  S    0.156089   0.300247  -0.028765   0.313407   0.062076
   53  H 17  S   -0.317505  -0.018153  -0.119165   0.138724  -0.233888
   54  H 18  S    0.317505   0.018153   0.119165  -0.138724   0.233888
   55  H 19  S   -0.156089  -0.300247   0.028765  -0.313407  -0.062076
   56  H 20  S    0.248006   0.020726  -0.231090  -0.207834  -0.156642
   57  H 21  S    0.044691   0.176055   0.286961  -0.074809  -0.322238
   58  H 22  S   -0.044691  -0.176055  -0.286961   0.074809   0.322238
   59  H 23  S   -0.248006  -0.020726   0.231090   0.207834   0.156642
   60  H 24  S   -0.067761   0.180220  -0.279765  -0.032097  -0.080877

                     16         17         18         19         20
                   -0.1433    -0.0629    -0.0629    -0.0629    -0.0629
                     TU         ?TG        ?TG        ?TG        ?EG 
    1  B  1  S   -0.009029   0.005438  -0.028840  -0.000028   0.016632
    2  B  1  X   -0.085948   0.052578  -0.278853  -0.000269   0.142616
    3  B  1  Y   -0.128127   0.005424  -0.028765  -0.000028   0.046024
    4  B  1  Z   -0.018425  -0.267300  -0.050345  -0.057004   0.000000
    5  B  2  S    0.009029   0.005438  -0.028840  -0.000028   0.016632
    6  B  2  X   -0.085948  -0.052578   0.278853   0.000269  -0.142616
    7  B  2  Y   -0.128127  -0.005424   0.028765   0.000028  -0.046024
    8  B  2  Z   -0.018425   0.267300   0.050345   0.057004  -0.000000
    9  B  3  S    0.021940  -0.005438   0.028840   0.000028   0.016632
   10  B  3  X   -0.291816   0.052578  -0.278853  -0.000269  -0.142616
   11  B  3  Y    0.177074  -0.005424   0.028765   0.000028   0.046024
   12  B  3  Z   -0.018425   0.169601   0.032188  -0.217791  -0.000000
   13  B  4  S    0.007406  -0.009813  -0.001824  -0.027599   0.006624
   14  B  4  X    0.058030   0.091207   0.257814  -0.049462   0.000000
   15  B  4  Y    0.078956  -0.094876  -0.017632  -0.266854  -0.072106
   16  B  4  Z   -0.091414   0.009787   0.001819   0.027527  -0.226914
   17  B  5  S    0.013483   0.009813   0.001824   0.027599   0.006624
   18  B  5  X    0.058030  -0.178812   0.206806   0.049910   0.000000
   19  B  5  Y    0.175859   0.094876   0.017632   0.266854  -0.072106
   20  B  5  Z    0.114454   0.009787   0.001819   0.027527   0.226914
   21  B  6  S   -0.013483   0.009813   0.001824   0.027599   0.006624
   22  B  6  X    0.058030   0.178812  -0.206806  -0.049910  -0.000000
   23  B  6  Y    0.175859  -0.094876  -0.017632  -0.266854   0.072106
   24  B  6  Z    0.114454  -0.009787  -0.001819  -0.027527  -0.226914
   25  B  7  S   -0.007406  -0.009813  -0.001824  -0.027599   0.006624
   26  B  7  X    0.058030  -0.091207  -0.257814   0.049462  -0.000000
   27  B  7  Y    0.078956   0.094876   0.017632   0.266854   0.072106
   28  B  7  Z   -0.091414  -0.009787  -0.001819  -0.027527   0.226914
   29  B  8  S    0.014486  -0.027120  -0.005123   0.009980  -0.023256
   30  B  8  X   -0.084733   0.027049   0.005110  -0.009955   0.272939
   31  B  8  Y   -0.039143  -0.051969  -0.158265  -0.222452  -0.000000
   32  B  8  Z    0.212571  -0.262217  -0.049534   0.096500  -0.070509
   33  B  9  S   -0.004654   0.027120   0.005123  -0.009980  -0.023256
   34  B  9  X    0.012169   0.027049   0.005110  -0.009954  -0.272939
   35  B  9  Y   -0.039143  -0.106112   0.128887  -0.222176  -0.000000
   36  B  9  Z   -0.092629   0.262217   0.049534  -0.096500  -0.070510
   37  B 10  S    0.004654   0.027120   0.005123  -0.009980  -0.023256
   38  B 10  X    0.012169  -0.027049  -0.005110   0.009954   0.272939
   39  B 10  Y   -0.039143   0.106112  -0.128887   0.222176   0.000000
   40  B 10  Z   -0.092629  -0.262217  -0.049534   0.096500   0.070510
   41  B 11  S   -0.014486  -0.027120  -0.005123   0.009980  -0.023256
   42  B 11  X   -0.084733  -0.027049  -0.005110   0.009955  -0.272939
   43  B 11  Y   -0.039143   0.051969   0.158265   0.222452   0.000000
   44  B 11  Z    0.212571   0.262217   0.049534  -0.096500   0.070509
   45  B 12  S   -0.021940  -0.005438   0.028840   0.000028   0.016632
   46  B 12  X   -0.291816  -0.052578   0.278853   0.000269   0.142616
   47  B 12  Y    0.177074   0.005424  -0.028765  -0.000028  -0.046024
   48  B 12  Z   -0.018425  -0.169601  -0.032188   0.217791   0.000000
   49  H 13  S    0.134407  -0.055748   0.295663   0.000285  -0.170502
   50  H 14  S   -0.134407  -0.055748   0.295663   0.000285  -0.170502
   51  H 15  S   -0.326590   0.055748  -0.295663  -0.000285  -0.170502
   52  H 16  S   -0.110249   0.100596   0.018695   0.282941  -0.067912
   53  H 17  S   -0.200709  -0.100596  -0.018695  -0.282941  -0.067912
   54  H 18  S    0.200709  -0.100596  -0.018695  -0.282941  -0.067912
   55  H 19  S    0.110249   0.100596   0.018695   0.282941  -0.067912
   56  H 20  S   -0.215640   0.278024   0.052520  -0.102318   0.238415
   57  H 21  S    0.069272  -0.278024  -0.052520   0.102318   0.238415
   58  H 22  S   -0.069272  -0.278024  -0.052520   0.102318   0.238415
   59  H 23  S    0.215640   0.278024   0.052520  -0.102318   0.238415
   60  H 24  S    0.326590   0.055748  -0.295663  -0.000285  -0.170502

                     21         22         23         24         25
                   -0.0629    -0.0292    -0.0292    -0.0292    -0.0292
                     ?EG        ?AU        ?TU        ?TU        ?TU 
    1  B  1  S   -0.017251  -0.000000   0.000000  -0.000000   0.000000
    2  B  1  X    0.000922   0.000000  -0.030361  -0.207505   0.045664
    3  B  1  Y   -0.288590  -0.000000   0.049125   0.335751  -0.073887
    4  B  1  Z    0.000000   0.288675  -0.153253   0.073754   0.233254
    5  B  2  S   -0.017251  -0.000000  -0.000000   0.000000  -0.000000
    6  B  2  X   -0.000922   0.000000  -0.030361  -0.207505   0.045664
    7  B  2  Y    0.288590  -0.000000   0.049125   0.335751  -0.073887
    8  B  2  Z   -0.000000   0.288675  -0.153253   0.073754   0.233254
    9  B  3  S   -0.017251   0.000000   0.000000   0.000000   0.000000
   10  B  3  X   -0.000922   0.000000  -0.107356  -0.185469  -0.011891
   11  B  3  Y   -0.288590   0.000000  -0.173706  -0.300095  -0.019240
   12  B  3  Z   -0.000000  -0.288675  -0.153253   0.073753   0.233254
   13  B  4  S    0.023029   0.000000  -0.000000  -0.000000  -0.000000
   14  B  4  X   -0.000000  -0.288675   0.095160   0.271539  -0.023337
   15  B  4  Y    0.123048  -0.000000  -0.136900   0.034075  -0.161749
   16  B  4  Z   -0.184153  -0.000000  -0.221509   0.055135  -0.261715
   17  B  5  S    0.023029  -0.000000  -0.000000   0.000000   0.000000
   18  B  5  X   -0.000000   0.288675   0.095160   0.271539  -0.023337
   19  B  5  Y    0.123048   0.000000  -0.189258   0.059272  -0.082060
   20  B  5  Z    0.184153  -0.000000   0.306225  -0.095905   0.132776
   21  B  6  S    0.023029  -0.000000   0.000000  -0.000000  -0.000000
   22  B  6  X    0.000000   0.288675   0.095160   0.271539  -0.023337
   23  B  6  Y   -0.123048   0.000000  -0.189258   0.059272  -0.082060
   24  B  6  Z   -0.184153  -0.000000   0.306225  -0.095905   0.132776
   25  B  7  S    0.023029   0.000000   0.000000   0.000000   0.000000
   26  B  7  X    0.000000  -0.288675   0.095160   0.271539  -0.023337
   27  B  7  Y   -0.123048  -0.000000  -0.136900   0.034075  -0.161749
   28  B  7  Z    0.184153  -0.000000  -0.221509   0.055135  -0.261715
   29  B  8  S   -0.005778   0.000000   0.000000  -0.000000  -0.000000
   30  B  8  X   -0.104437  -0.000000   0.153130  -0.161404  -0.266648
   31  B  8  Y   -0.000000  -0.288675   0.225370  -0.064501   0.168468
   32  B  8  Z   -0.123970  -0.000000   0.094640  -0.099753  -0.164798
   33  B  9  S   -0.005778  -0.000000   0.000000   0.000000  -0.000000
   34  B  9  X    0.104437   0.000000  -0.205733   0.011301   0.279548
   35  B  9  Y   -0.000000   0.288675   0.225370  -0.064501   0.168468
   36  B  9  Z   -0.123970  -0.000000   0.127150  -0.006984  -0.172770
   37  B 10  S   -0.005778  -0.000000  -0.000000  -0.000000   0.000000
   38  B 10  X   -0.104437   0.000000  -0.205733   0.011301   0.279548
   39  B 10  Y    0.000000   0.288675   0.225370  -0.064501   0.168468
   40  B 10  Z    0.123970  -0.000000   0.127150  -0.006984  -0.172770
   41  B 11  S   -0.005778   0.000000  -0.000000   0.000000   0.000000
   42  B 11  X    0.104437  -0.000000   0.153130  -0.161404  -0.266648
   43  B 11  Y    0.000000  -0.288675   0.225370  -0.064501   0.168468
   44  B 11  Z    0.123970  -0.000000   0.094640  -0.099753  -0.164798
   45  B 12  S   -0.017251   0.000000  -0.000000  -0.000000  -0.000000
   46  B 12  X    0.000922   0.000000  -0.107356  -0.185469  -0.011891
   47  B 12  Y    0.288590   0.000000  -0.173706  -0.300095  -0.019240
   48  B 12  Z    0.000000  -0.288675  -0.153253   0.073753   0.233254
   49  H 13  S    0.176858   0.000000  -0.000000   0.000000  -0.000000
   50  H 14  S    0.176858   0.000000   0.000000  -0.000000   0.000000
   51  H 15  S    0.176858  -0.000000  -0.000000   0.000000  -0.000000
   52  H 16  S   -0.236088  -0.000000  -0.000000   0.000000   0.000000
   53  H 17  S   -0.236088   0.000000   0.000000  -0.000000  -0.000000
   54  H 18  S   -0.236088   0.000000  -0.000000   0.000000   0.000000
   55  H 19  S   -0.236088  -0.000000   0.000000  -0.000000  -0.000000
   56  H 20  S    0.059230  -0.000000   0.000000   0.000000   0.000000
   57  H 21  S    0.059230   0.000000  -0.000000  -0.000000   0.000000
   58  H 22  S    0.059230   0.000000   0.000000   0.000000  -0.000000
   59  H 23  S    0.059230  -0.000000  -0.000000  -0.000000  -0.000000
   60  H 24  S    0.176858  -0.000000   0.000000  -0.000000   0.000000

                     26         27         28         29         30
                    0.3524     0.3524     0.3524     0.4024     0.4024
                     TU         TU         TU         ?EG        ?EG 
    1  B  1  S    0.292859  -0.049204   0.257868   0.275039  -0.064086
    2  B  1  X    0.091021  -0.015293   0.080146   0.153548   0.066571
    3  B  1  Y    0.056254  -0.009451   0.049533  -0.123825  -0.136751
    4  B  1  Z   -0.000000  -0.000000  -0.000000   0.000001  -0.000001
    5  B  2  S   -0.292859   0.049204  -0.257868   0.275039  -0.064086
    6  B  2  X    0.091021  -0.015293   0.080146  -0.153548  -0.066571
    7  B  2  Y    0.056254  -0.009451   0.049533   0.123825   0.136751
    8  B  2  Z   -0.000000  -0.000000  -0.000000  -0.000001   0.000001
    9  B  3  S    0.364296  -0.011948  -0.147745   0.275042  -0.064085
   10  B  3  X   -0.113224   0.003713   0.045920  -0.153548  -0.066571
   11  B  3  Y    0.069976  -0.002295  -0.028380  -0.123824  -0.136751
   12  B  3  Z   -0.000000  -0.000000  -0.000000  -0.000000   0.000001
   13  B  4  S   -0.228101  -0.312895  -0.068914  -0.193020  -0.206150
   14  B  4  X   -0.000000  -0.000000   0.000000  -0.000001   0.000000
   15  B  4  Y   -0.070895  -0.097249  -0.021419  -0.019122  -0.166262
   16  B  4  Z    0.043815   0.060103   0.013237   0.056518  -0.175610
   17  B  5  S   -0.178042   0.350689   0.000855  -0.193020  -0.206149
   18  B  5  X   -0.000000  -0.000000   0.000000  -0.000001  -0.000001
   19  B  5  Y   -0.055336   0.108995   0.000266  -0.019122  -0.166262
   20  B  5  Z   -0.034200   0.067363   0.000164  -0.056518   0.175611
   21  B  6  S    0.178042  -0.350689  -0.000855  -0.193020  -0.206149
   22  B  6  X   -0.000000  -0.000000   0.000000   0.000001   0.000001
   23  B  6  Y   -0.055336   0.108995   0.000266   0.019122   0.166262
   24  B  6  Z   -0.034200   0.067363   0.000164   0.056518  -0.175611
   25  B  7  S    0.228101   0.312895   0.068914  -0.193020  -0.206150
   26  B  7  X   -0.000000  -0.000000   0.000000   0.000001  -0.000000
   27  B  7  Y   -0.070895  -0.097249  -0.021419   0.019122   0.166262
   28  B  7  Z    0.043815   0.060103   0.013237  -0.056518   0.175610
   29  B  8  S   -0.073263  -0.235200   0.306588  -0.082021   0.270236
   30  B  8  X    0.014073   0.045179  -0.058892  -0.180342   0.038859
   31  B  8  Y   -0.000000   0.000000  -0.000000   0.000001   0.000000
   32  B  8  Z   -0.022770  -0.073101   0.095289  -0.134426   0.099691
   33  B  9  S    0.042325  -0.174918  -0.349707  -0.082020   0.270233
   34  B  9  X    0.008130  -0.033599  -0.067174   0.180342  -0.038860
   35  B  9  Y   -0.000000   0.000000  -0.000000  -0.000000   0.000000
   36  B  9  Z    0.013155  -0.054365  -0.108690  -0.134426   0.099691
   37  B 10  S   -0.042325   0.174918   0.349707  -0.082020   0.270233
   38  B 10  X    0.008130  -0.033599  -0.067174  -0.180342   0.038860
   39  B 10  Y   -0.000000   0.000000  -0.000000   0.000000  -0.000000
   40  B 10  Z    0.013155  -0.054365  -0.108690   0.134426  -0.099691
   41  B 11  S    0.073263   0.235200  -0.306588  -0.082021   0.270236
   42  B 11  X    0.014073   0.045179  -0.058892   0.180342  -0.038859
   43  B 11  Y   -0.000000   0.000000  -0.000000  -0.000001  -0.000000
   44  B 11  Z   -0.022770  -0.073101   0.095289   0.134426  -0.099691
   45  B 12  S   -0.364296   0.011948   0.147745   0.275042  -0.064085
   46  B 12  X   -0.113224   0.003713   0.045920   0.153548   0.066571
   47  B 12  Y    0.069976  -0.002295  -0.028380   0.123824   0.136751
   48  B 12  Z   -0.000000  -0.000000  -0.000000   0.000000  -0.000001
   49  H 13  S   -0.203471   0.034186  -0.179160  -0.153589   0.035787
   50  H 14  S    0.203471  -0.034186   0.179160  -0.153589   0.035787
   51  H 15  S   -0.253104   0.008301   0.102650  -0.153591   0.035787
   52  H 16  S    0.158479   0.217392   0.047880   0.107788   0.115120
   53  H 17  S    0.123700  -0.243651  -0.000594   0.107787   0.115119
   54  H 18  S   -0.123700   0.243651   0.000594   0.107787   0.115119
   55  H 19  S   -0.158479  -0.217392  -0.047880   0.107788   0.115120
   56  H 20  S    0.050901   0.163411  -0.213010   0.045803  -0.150907
   57  H 21  S   -0.029406   0.121529   0.242968   0.045802  -0.150906
   58  H 22  S    0.029406  -0.121529  -0.242968   0.045802  -0.150906
   59  H 23  S   -0.050901  -0.163411   0.213010   0.045803  -0.150907
   60  H 24  S    0.253104  -0.008301  -0.102650  -0.153591   0.035787

                     31         32         33         34         35
                    0.4024     0.4024     0.4024     0.4146     0.4146
                     ?TG        ?TG        ?TG        ?TG        ?TG 
    1  B  1  S    0.023766   0.343597  -0.031754   0.000000   0.000000
    2  B  1  X    0.000484   0.006999  -0.000647  -0.006184  -0.148731
    3  B  1  Y    0.009986   0.144360  -0.013342   0.010006   0.240652
    4  B  1  Z    0.172579   0.007016   0.205091   0.076098   0.075136
    5  B  2  S    0.023766   0.343597  -0.031754   0.000000   0.000000
    6  B  2  X   -0.000484  -0.006999   0.000647   0.006184   0.148731
    7  B  2  Y   -0.009986  -0.144360   0.013342  -0.010006  -0.240652
    8  B  2  Z   -0.172579  -0.007016  -0.205091  -0.076098  -0.075136
    9  B  3  S   -0.023767  -0.343595   0.031753  -0.000000  -0.000000
   10  B  3  X    0.000484   0.006997  -0.000647  -0.006184  -0.148731
   11  B  3  Y   -0.009985  -0.144362   0.013341  -0.010006  -0.240651
   12  B  3  Z    0.105625  -0.029914  -0.244630   0.247284   0.053396
   13  B  4  S   -0.341305   0.028090   0.048506   0.000000   0.000000
   14  B  4  X   -0.005017   0.215171  -0.159911  -0.358756   0.137967
   15  B  4  Y   -0.006951   0.000572   0.000987  -0.061761  -0.024548
   16  B  4  Z    0.143399  -0.011802  -0.020381  -0.099931  -0.039719
   17  B  5  S    0.341306  -0.028092  -0.048507  -0.000000  -0.000000
   18  B  5  X    0.036363   0.237995   0.118032   0.366400   0.045874
   19  B  5  Y    0.006951  -0.000572  -0.000989   0.061761   0.024548
   20  B  5  Z    0.143398  -0.011802  -0.020379  -0.099931  -0.039719
   21  B  6  S    0.341306  -0.028092  -0.048507  -0.000000  -0.000000
   22  B  6  X   -0.036363  -0.237995  -0.118032  -0.366400  -0.045874
   23  B  6  Y   -0.006951   0.000572   0.000989  -0.061761  -0.024548
   24  B  6  Z   -0.143398   0.011802   0.020379   0.099931   0.039719
   25  B  7  S   -0.341305   0.028090   0.048506   0.000000   0.000000
   26  B  7  X    0.005017  -0.215171   0.159911   0.358756  -0.137967
   27  B  7  Y    0.006951  -0.000572  -0.000987   0.061761   0.024548
   28  B  7  Z   -0.143399   0.011802   0.020381   0.099931   0.039719
   29  B  8  S   -0.050765  -0.028001  -0.340983   0.000000  -0.000000
   30  B  8  X    0.021329   0.011764   0.143264  -0.224085   0.028458
   31  B  8  Y    0.215386  -0.158560  -0.019046  -0.021980   0.374211
   32  B  8  Z   -0.001034  -0.000571  -0.006944  -0.138492   0.017588
   33  B  9  S    0.050765   0.028001   0.340986  -0.000000   0.000000
   34  B  9  X    0.021329   0.011765   0.143263  -0.224085   0.028458
   35  B  9  Y    0.234759   0.121511  -0.044929  -0.054360  -0.404553
   36  B  9  Z    0.001034   0.000570   0.006945   0.138492  -0.017588
   37  B 10  S    0.050765   0.028001   0.340986  -0.000000   0.000000
   38  B 10  X   -0.021329  -0.011765  -0.143263   0.224085  -0.028458
   39  B 10  Y   -0.234759  -0.121511   0.044929   0.054360   0.404553
   40  B 10  Z   -0.001034  -0.000570  -0.006945  -0.138492   0.017588
   41  B 11  S   -0.050765  -0.028001  -0.340983   0.000000  -0.000000
   42  B 11  X   -0.021329  -0.011764  -0.143264   0.224085  -0.028458
   43  B 11  Y   -0.215386   0.158560   0.019046   0.021980  -0.374211
   44  B 11  Z    0.001034   0.000571   0.006944   0.138492  -0.017588
   45  B 12  S   -0.023767  -0.343595   0.031753  -0.000000  -0.000000
   46  B 12  X   -0.000484  -0.006997   0.000647   0.006184   0.148731
   47  B 12  Y    0.009985   0.144362  -0.013341   0.010006   0.240651
   48  B 12  Z   -0.105625   0.029914   0.244630  -0.247284  -0.053396
   49  H 13  S   -0.013272  -0.191874   0.017732  -0.000000  -0.000000
   50  H 14  S   -0.013272  -0.191874   0.017732  -0.000000  -0.000000
   51  H 15  S    0.013272   0.191873  -0.017732   0.000000   0.000000
   52  H 16  S    0.190594  -0.015686  -0.027087  -0.000000  -0.000000
   53  H 17  S   -0.190594   0.015687   0.027088   0.000000   0.000000
   54  H 18  S   -0.190594   0.015687   0.027088   0.000000   0.000000
   55  H 19  S    0.190594  -0.015686  -0.027087  -0.000000  -0.000000
   56  H 20  S    0.028349   0.015636   0.190414  -0.000000   0.000000
   57  H 21  S   -0.028349  -0.015636  -0.190416   0.000000  -0.000000
   58  H 22  S   -0.028349  -0.015636  -0.190416   0.000000  -0.000000
   59  H 23  S    0.028349   0.015636   0.190414  -0.000000   0.000000
   60  H 24  S    0.013272   0.191873  -0.017732   0.000000   0.000000

                     36         37         38         39         40
                    0.4146     0.4146     0.4461     0.4766     0.4766
                     ?TG        ?AG        AG         TU         TU  
    1  B  1  S    0.000000   0.000000  -0.111247  -0.137930  -0.104117
    2  B  1  X   -0.029558   0.151765   0.138578   0.202448   0.121993
    3  B  1  Y    0.047826  -0.245562   0.085646   0.102961   0.127596
    4  B  1  Z   -0.393993  -0.000000   0.000000   0.032550  -0.011744
    5  B  2  S    0.000000   0.000000  -0.111247   0.137930   0.104117
    6  B  2  X    0.029558  -0.151765  -0.138578   0.202448   0.121993
    7  B  2  Y   -0.047826   0.245562  -0.085646   0.102961   0.127596
    8  B  2  Z    0.393993   0.000000  -0.000000   0.032550  -0.011744
    9  B  3  S   -0.000000   0.000000  -0.111247   0.003825   0.182868
   10  B  3  X   -0.029558  -0.151766  -0.138578  -0.017991   0.251442
   11  B  3  Y   -0.047826  -0.245562   0.085646  -0.041049  -0.163953
   12  B  3  Z   -0.320415  -0.000000   0.000000   0.032550  -0.011744
   13  B  4  S   -0.000000   0.000000  -0.111247  -0.167224   0.084901
   14  B  4  X   -0.137572   0.000000  -0.000000  -0.024278  -0.049151
   15  B  4  Y    0.136440   0.151766   0.138578   0.237715  -0.117735
   16  B  4  Z    0.220764   0.245562  -0.085646  -0.137333   0.074507
   17  B  5  S    0.000000   0.000000  -0.111247  -0.049763   0.042521
   18  B  5  X    0.174107   0.000000   0.000000  -0.024278  -0.049151
   19  B  5  Y   -0.136440   0.151765   0.138578   0.044636  -0.048071
   20  B  5  Z    0.220764  -0.245562   0.085646   0.083105  -0.054942
   21  B  6  S    0.000000   0.000000  -0.111247   0.049763  -0.042521
   22  B  6  X   -0.174107  -0.000000   0.000000  -0.024278  -0.049151
   23  B  6  Y    0.136440  -0.151765  -0.138578   0.044636  -0.048071
   24  B  6  Z   -0.220764   0.245562  -0.085646   0.083105  -0.054942
   25  B  7  S   -0.000000   0.000000  -0.111247   0.167224  -0.084901
   26  B  7  X    0.137572  -0.000000   0.000000  -0.024278  -0.049151
   27  B  7  Y   -0.136440  -0.151766  -0.138578   0.237715  -0.117735
   28  B  7  Z   -0.220764  -0.245562   0.085646  -0.137333   0.074507
   29  B  8  S    0.000000   0.000000  -0.111247   0.138832   0.054397
   30  B  8  X   -0.096314   0.245562  -0.085646   0.116763   0.006111
   31  B  8  Y    0.161709   0.000000  -0.000000  -0.037163   0.021823
   32  B  8  Z   -0.059525   0.151765   0.138578  -0.195658  -0.101160
   33  B  9  S   -0.000000   0.000000  -0.111247   0.051223  -0.122970
   34  B  9  X   -0.096314  -0.245562   0.085646  -0.076316   0.075774
   35  B  9  Y    0.006940  -0.000000   0.000000  -0.037163   0.021823
   36  B  9  Z    0.059525   0.151765   0.138578  -0.051648   0.190390
   37  B 10  S   -0.000000   0.000000  -0.111247  -0.051223   0.122970
   38  B 10  X    0.096314   0.245562  -0.085646  -0.076316   0.075774
   39  B 10  Y   -0.006940   0.000000  -0.000000  -0.037163   0.021823
   40  B 10  Z   -0.059525  -0.151765  -0.138578  -0.051648   0.190390
   41  B 11  S    0.000000   0.000000  -0.111247  -0.138832  -0.054397
   42  B 11  X    0.096314  -0.245562   0.085646   0.116763   0.006111
   43  B 11  Y   -0.161709  -0.000000   0.000000  -0.037163   0.021823
   44  B 11  Z    0.059525  -0.151765  -0.138578  -0.195658  -0.101160
   45  B 12  S   -0.000000   0.000000  -0.111247  -0.003825  -0.182868
   46  B 12  X    0.029558   0.151766   0.138578  -0.017991   0.251442
   47  B 12  Y    0.047826   0.245562  -0.085646  -0.041049  -0.163953
   48  B 12  Z    0.320415   0.000000  -0.000000   0.032550  -0.011744
   49  H 13  S   -0.000000  -0.000000   0.210757   0.244504   0.184564
   50  H 14  S   -0.000000  -0.000000   0.210757  -0.244504  -0.184564
   51  H 15  S    0.000000  -0.000000   0.210757  -0.006780  -0.324163
   52  H 16  S    0.000000  -0.000000   0.210757   0.296431  -0.150501
   53  H 17  S   -0.000000  -0.000000   0.210757   0.088213  -0.075375
   54  H 18  S   -0.000000  -0.000000   0.210757  -0.088213   0.075375
   55  H 19  S    0.000000  -0.000000   0.210757  -0.296431   0.150501
   56  H 20  S   -0.000000  -0.000000   0.210757  -0.246103  -0.096427
   57  H 21  S    0.000000  -0.000000   0.210757  -0.090801   0.217984
   58  H 22  S    0.000000  -0.000000   0.210757   0.090801  -0.217984
   59  H 23  S   -0.000000  -0.000000   0.210757   0.246103   0.096427
   60  H 24  S    0.000000  -0.000000   0.210757   0.006780   0.324163

                     41         42         43         44         45
                    0.4766     0.4930     0.4930     0.4930     0.4942
                     TU         TU         TU         TU         ?TU 
    1  B  1  S   -0.076314   0.033899   0.072536   0.148986  -0.000000
    2  B  1  X    0.120467  -0.055594  -0.058847   0.197692  -0.136939
    3  B  1  Y    0.043283   0.151691   0.227322  -0.048535   0.221572
    4  B  1  Z   -0.042809   0.259863  -0.168513   0.022916  -0.127661
    5  B  2  S    0.076314  -0.033899  -0.072536  -0.148986   0.000000
    6  B  2  X    0.120467  -0.055594  -0.058847   0.197692  -0.136939
    7  B  2  Y    0.043283   0.151691   0.227322  -0.048535   0.221572
    8  B  2  Z   -0.042809   0.259863  -0.168513   0.022916  -0.127661
    9  B  3  S   -0.047261   0.061932   0.076825  -0.137367   0.000000
   10  B  3  X   -0.082662   0.016037   0.052795   0.206377  -0.052978
   11  B  3  Y    0.013768   0.138741   0.225341   0.083747  -0.085720
   12  B  3  Z   -0.042809   0.259863  -0.168513   0.022916  -0.127660
   13  B  4  S   -0.022735   0.003126   0.169084   0.002838   0.000000
   14  B  4  X   -0.004976  -0.030255  -0.004629   0.309053  -0.153647
   15  B  4  Y    0.003126   0.165015   0.134447   0.018168   0.101715
   16  B  4  Z   -0.065905   0.261307  -0.090403   0.024227   0.164579
   17  B  5  S   -0.177213   0.151933   0.072588   0.015961  -0.000000
   18  B  5  X   -0.004976  -0.030255  -0.004629   0.309053  -0.153645
   19  B  5  Y    0.257053   0.053787   0.206574   0.008360  -0.153606
   20  B  5  Z    0.137223   0.189677  -0.202045   0.015542   0.248540
   21  B  6  S    0.177213  -0.151933  -0.072588  -0.015961   0.000000
   22  B  6  X   -0.004976  -0.030255  -0.004629   0.309053  -0.153645
   23  B  6  Y    0.257053   0.053787   0.206574   0.008360  -0.153606
   24  B  6  Z    0.137223   0.189677  -0.202045   0.015542   0.248540
   25  B  7  S    0.022735  -0.003126  -0.169084  -0.002838  -0.000000
   26  B  7  X   -0.004976  -0.030255  -0.004629   0.309053  -0.153647
   27  B  7  Y    0.003126   0.165015   0.134447   0.018168   0.101715
   28  B  7  Z   -0.065905   0.261307  -0.090403   0.024227   0.164579
   29  B  8  S   -0.115997   0.129050  -0.076742  -0.077872  -0.000000
   30  B  8  X   -0.122819   0.029360  -0.040080   0.273080   0.120943
   31  B  8  Y   -0.034245   0.167351   0.260830   0.020290  -0.041980
   32  B  8  Z    0.147865   0.163403  -0.111151   0.081121   0.074747
   33  B  9  S   -0.133953   0.111725  -0.079393   0.099104  -0.000000
   34  B  9  X    0.131108  -0.081867   0.032047   0.263271   0.376265
   35  B  9  Y   -0.034245   0.167351   0.260830   0.020290  -0.041981
   36  B  9  Z    0.177380   0.176353  -0.109170  -0.051161  -0.232544
   37  B 10  S    0.133953  -0.111725   0.079393  -0.099104   0.000000
   38  B 10  X    0.131108  -0.081867   0.032047   0.263271   0.376265
   39  B 10  Y   -0.034245   0.167351   0.260830   0.020290  -0.041981
   40  B 10  Z    0.177380   0.176353  -0.109170  -0.051161  -0.232544
   41  B 11  S    0.115997  -0.129050   0.076742   0.077872   0.000000
   42  B 11  X   -0.122819   0.029360  -0.040080   0.273080   0.120943
   43  B 11  Y   -0.034245   0.167351   0.260830   0.020290  -0.041980
   44  B 11  Z    0.147865   0.163403  -0.111151   0.081121   0.074747
   45  B 12  S    0.047261  -0.061932  -0.076825   0.137367  -0.000000
   46  B 12  X   -0.082662   0.016037   0.052795   0.206377  -0.052978
   47  B 12  Y    0.013768   0.138741   0.225341   0.083747  -0.085720
   48  B 12  Z   -0.042809   0.259863  -0.168513   0.022916  -0.127660
   49  H 13  S    0.135279   0.009539   0.020412   0.041924  -0.000000
   50  H 14  S   -0.135279  -0.009539  -0.020412  -0.041924   0.000000
   51  H 15  S    0.083777   0.017428   0.021619  -0.038655   0.000000
   52  H 16  S    0.040301   0.000880   0.047580   0.000799   0.000000
   53  H 17  S    0.314139   0.042754   0.020426   0.004491  -0.000000
   54  H 18  S   -0.314139  -0.042754  -0.020426  -0.004491   0.000000
   55  H 19  S   -0.040301  -0.000880  -0.047580  -0.000799  -0.000000
   56  H 20  S    0.205624   0.036315  -0.021595  -0.021913  -0.000000
   57  H 21  S    0.237454   0.031439  -0.022341   0.027888  -0.000000
   58  H 22  S   -0.237454  -0.031439   0.022341  -0.027888   0.000000
   59  H 23  S   -0.205624  -0.036315   0.021595   0.021913   0.000000
   60  H 24  S   -0.083777  -0.017428  -0.021619   0.038655  -0.000000

                     46         47         48         49         50
                    0.4942     0.4942     0.4942     0.4942     0.5200
                     ?TU        ?TU        ?EU        ?EU        ?TG 
    1  B  1  S   -0.000000  -0.000000  -0.000000   0.000000  -0.000689
    2  B  1  X   -0.106518  -0.165782  -0.000000  -0.000000   0.014136
    3  B  1  Y    0.172350   0.268240   0.000000   0.000000   0.010371
    4  B  1  Z    0.159248   0.003131  -0.402106  -0.070548   0.061863
    5  B  2  S    0.000000   0.000000   0.000000  -0.000000  -0.000689
    6  B  2  X   -0.106518  -0.165782  -0.000000  -0.000000  -0.014136
    7  B  2  Y    0.172350   0.268240   0.000000   0.000000  -0.010371
    8  B  2  Z    0.159248   0.003131  -0.402106  -0.070548  -0.061863
    9  B  3  S    0.000000  -0.000000   0.000000  -0.000000   0.000689
   10  B  3  X   -0.046978   0.229278  -0.000000   0.000000   0.014135
   11  B  3  Y   -0.076012   0.370979  -0.000000   0.000001  -0.010371
   12  B  3  Z    0.159246   0.003131   0.402107   0.070549  -0.063041
   13  B  4  S   -0.000000  -0.000000  -0.000000  -0.000000  -0.000248
   14  B  4  X   -0.124180   0.051370  -0.139957  -0.383508  -0.035953
   15  B  4  Y   -0.177646  -0.125211  -0.000001  -0.000001   0.005094
   16  B  4  Z   -0.287437  -0.202596  -0.000001  -0.000001  -0.003737
   17  B  5  S    0.000000  -0.000000   0.000000   0.000000   0.000248
   18  B  5  X   -0.124181   0.051369   0.139956   0.383509   0.041243
   19  B  5  Y    0.140848  -0.118949   0.000001   0.000000  -0.005094
   20  B  5  Z   -0.227897   0.192463  -0.000001  -0.000000  -0.003737
   21  B  6  S   -0.000000   0.000000  -0.000000  -0.000000   0.000248
   22  B  6  X   -0.124181   0.051369   0.139956   0.383509  -0.041243
   23  B  6  Y    0.140848  -0.118949   0.000001   0.000000   0.005094
   24  B  6  Z   -0.227897   0.192463  -0.000001  -0.000000   0.003737
   25  B  7  S    0.000000   0.000000   0.000000   0.000000  -0.000248
   26  B  7  X   -0.124180   0.051370  -0.139957  -0.383508   0.035953
   27  B  7  Y   -0.177646  -0.125211  -0.000001  -0.000001  -0.005094
   28  B  7  Z   -0.287437  -0.202596  -0.000001  -0.000001   0.003737
   29  B  8  S    0.000000  -0.000000   0.000000   0.000000   0.016261
   30  B  8  X    0.360175  -0.079986   0.000001  -0.000000   0.244876
   31  B  8  Y   -0.029769  -0.197530  -0.262150   0.312960  -0.002588
   32  B  8  Z    0.222601  -0.049434   0.000001  -0.000000  -0.333766
   33  B  9  S    0.000000   0.000000   0.000000   0.000000  -0.016261
   34  B  9  X    0.041682  -0.086249  -0.000000  -0.000001   0.244876
   35  B  9  Y   -0.029771  -0.197530   0.262150  -0.312960   0.000682
   36  B  9  Z   -0.025761   0.053305   0.000000   0.000001   0.333765
   37  B 10  S   -0.000000  -0.000000  -0.000000  -0.000000  -0.016261
   38  B 10  X    0.041682  -0.086249  -0.000000  -0.000001  -0.244876
   39  B 10  Y   -0.029771  -0.197530   0.262150  -0.312960  -0.000682
   40  B 10  Z   -0.025761   0.053305   0.000000   0.000001  -0.333765
   41  B 11  S   -0.000000   0.000000  -0.000000  -0.000000   0.016261
   42  B 11  X    0.360175  -0.079986   0.000001  -0.000000  -0.244876
   43  B 11  Y   -0.029769  -0.197530  -0.262150   0.312960   0.002588
   44  B 11  Z    0.222601  -0.049434   0.000001  -0.000000   0.333766
   45  B 12  S   -0.000000   0.000000  -0.000000   0.000000   0.000689
   46  B 12  X   -0.046978   0.229278  -0.000000   0.000000  -0.014135
   47  B 12  Y   -0.076012   0.370979  -0.000000   0.000001   0.010371
   48  B 12  Z    0.159246   0.003131   0.402107   0.070549   0.063041
   49  H 13  S   -0.000000  -0.000000  -0.000000   0.000000   0.011402
   50  H 14  S    0.000000   0.000000   0.000000  -0.000000   0.011402
   51  H 15  S    0.000000  -0.000000   0.000000  -0.000000  -0.011402
   52  H 16  S   -0.000000  -0.000000  -0.000000  -0.000000   0.004109
   53  H 17  S    0.000000  -0.000000   0.000000  -0.000000  -0.004109
   54  H 18  S   -0.000000   0.000000  -0.000000   0.000000  -0.004109
   55  H 19  S    0.000000   0.000000   0.000000   0.000000   0.004109
   56  H 20  S    0.000000  -0.000000   0.000000   0.000000  -0.269214
   57  H 21  S    0.000000   0.000000   0.000000   0.000000   0.269213
   58  H 22  S   -0.000000  -0.000000  -0.000000  -0.000000   0.269213
   59  H 23  S   -0.000000   0.000000  -0.000000  -0.000000  -0.269214
   60  H 24  S   -0.000000   0.000000  -0.000000   0.000000  -0.011402

                     51         52         53         54         55
                    0.5200     0.5200     0.5200     0.5200     0.5377
                     ?TG        ?TG        ?EG        ?EG        TG  
    1  B  1  S   -0.000517   0.016254  -0.006785   0.011428  -0.000000
    2  B  1  X    0.010605  -0.333636   0.133786  -0.278840  -0.008039
    3  B  1  Y    0.007781  -0.244781   0.111055  -0.100455   0.013007
    4  B  1  Z    0.039483   0.003876  -0.000000  -0.000000  -0.114291
    5  B  2  S   -0.000517   0.016254  -0.006785   0.011428  -0.000000
    6  B  2  X   -0.010605   0.333636  -0.133786   0.278840   0.008039
    7  B  2  Y   -0.007781   0.244781  -0.111055   0.100455  -0.013007
    8  B  2  Z   -0.039483  -0.003876   0.000000   0.000000   0.114291
    9  B  3  S    0.000517  -0.016254  -0.006785   0.011428   0.000000
   10  B  3  X    0.010605  -0.333636  -0.133787   0.278840  -0.008039
   11  B  3  Y   -0.007781   0.244781   0.111055  -0.100455  -0.013007
   12  B  3  Z    0.037744  -0.001471   0.000000  -0.000000   0.350049
   13  B  4  S    0.016267   0.000507  -0.006504  -0.011590   0.000000
   14  B  4  X    0.001447  -0.064081  -0.000000   0.000000  -0.156496
   15  B  4  Y   -0.333903  -0.010398   0.174589   0.255283   0.117879
   16  B  4  Z    0.244977   0.007628  -0.031469  -0.146404   0.190732
   17  B  5  S   -0.016267  -0.000507  -0.006504  -0.011590  -0.000000
   18  B  5  X    0.002522  -0.060776  -0.000000   0.000000   0.130482
   19  B  5  Y    0.333903   0.010398   0.174589   0.255282  -0.117879
   20  B  5  Z    0.244977   0.007629   0.031469   0.146404   0.190732
   21  B  6  S   -0.016267  -0.000507  -0.006504  -0.011590  -0.000000
   22  B  6  X   -0.002522   0.060776   0.000000  -0.000000  -0.130482
   23  B  6  Y   -0.333903  -0.010398  -0.174589  -0.255282   0.117879
   24  B  6  Z   -0.244977  -0.007629  -0.031469  -0.146404  -0.190732
   25  B  7  S    0.016267   0.000507  -0.006504  -0.011590   0.000000
   26  B  7  X   -0.001447   0.064081   0.000000  -0.000000   0.156496
   27  B  7  Y    0.333903   0.010398  -0.174589  -0.255283  -0.117879
   28  B  7  Z   -0.244977  -0.007628   0.031469   0.146404  -0.190732
   29  B  8  S    0.000226   0.000696   0.013289   0.000162   0.000000
   30  B  8  X    0.003409   0.010483   0.142524   0.045949   0.232170
   31  B  8  Y    0.061252   0.040528   0.000000  -0.000000  -0.198771
   32  B  8  Z   -0.004647  -0.014289  -0.308375   0.023557   0.143489
   33  B  9  S   -0.000226  -0.000696   0.013289   0.000162  -0.000000
   34  B  9  X    0.003409   0.010483  -0.142524  -0.045949   0.232170
   35  B  9  Y    0.063704  -0.036637  -0.000000  -0.000000  -0.182693
   36  B  9  Z    0.004647   0.014289  -0.308376   0.023557  -0.143489
   37  B 10  S   -0.000226  -0.000696   0.013289   0.000162  -0.000000
   38  B 10  X   -0.003409  -0.010483   0.142524   0.045949  -0.232170
   39  B 10  Y   -0.063704   0.036637   0.000000   0.000000   0.182693
   40  B 10  Z   -0.004647  -0.014289   0.308376  -0.023557   0.143489
   41  B 11  S    0.000226   0.000696   0.013289   0.000162   0.000000
   42  B 11  X   -0.003409  -0.010483  -0.142524  -0.045949  -0.232170
   43  B 11  Y   -0.061252  -0.040528  -0.000000   0.000000   0.198771
   44  B 11  Z    0.004647   0.014289   0.308375  -0.023557  -0.143489
   45  B 12  S    0.000517  -0.016254  -0.006785   0.011428   0.000000
   46  B 12  X   -0.010605   0.333636   0.133787  -0.278840   0.008039
   47  B 12  Y    0.007781  -0.244781  -0.111055   0.100455   0.013007
   48  B 12  Z   -0.037744   0.001471  -0.000000   0.000000  -0.350049
   49  H 13  S    0.008554  -0.269109   0.112335  -0.189198  -0.000000
   50  H 14  S    0.008554  -0.269109   0.112335  -0.189198  -0.000000
   51  H 15  S   -0.008554   0.269109   0.112336  -0.189198   0.000000
   52  H 16  S   -0.269324  -0.008387   0.107683   0.191885   0.000000
   53  H 17  S    0.269324   0.008387   0.107683   0.191884  -0.000000
   54  H 18  S    0.269324   0.008387   0.107683   0.191884  -0.000000
   55  H 19  S   -0.269324  -0.008387   0.107683   0.191885   0.000000
   56  H 20  S   -0.003748  -0.011525  -0.220018  -0.002686   0.000000
   57  H 21  S    0.003748   0.011525  -0.220018  -0.002686  -0.000000
   58  H 22  S    0.003748   0.011525  -0.220018  -0.002686  -0.000000
   59  H 23  S   -0.003748  -0.011525  -0.220018  -0.002686   0.000000
   60  H 24  S   -0.008554   0.269109   0.112336  -0.189198   0.000000

                     56         57         58         59         60
                    0.5377     0.5377     0.5385     0.5385     0.5385
                     TG         TG         TU         TU         TU  
    1  B  1  S    0.000000   0.000000   0.008071  -0.006392  -0.003761
    2  B  1  X    0.011045   0.185371   0.272951  -0.216148  -0.127205
    3  B  1  Y   -0.017872  -0.299937   0.168693  -0.133587  -0.078617
    4  B  1  Z    0.333648  -0.024837   0.000000  -0.000000   0.000000
    5  B  2  S    0.000000   0.000000  -0.008071   0.006392   0.003761
    6  B  2  X   -0.011045  -0.185371   0.272951  -0.216148  -0.127205
    7  B  2  Y    0.017872   0.299937   0.168693  -0.133587  -0.078617
    8  B  2  Z   -0.333648   0.024837   0.000000  -0.000000   0.000000
    9  B  3  S   -0.000000  -0.000000  -0.002552  -0.010480  -0.001952
   10  B  3  X    0.011045   0.185371   0.086290   0.354398   0.066027
   11  B  3  Y    0.017872   0.299937  -0.053330  -0.219030  -0.040807
   12  B  3  Z   -0.046302   0.017939   0.000000  -0.000000   0.000000
   13  B  4  S    0.000000  -0.000000   0.000632   0.003013   0.010520
   14  B  4  X    0.135283   0.286719   0.000000   0.000000  -0.000000
   15  B  4  Y    0.143673  -0.003449   0.021367   0.101906   0.355755
   16  B  4  Z    0.232467  -0.005580  -0.013205  -0.062982  -0.219869
   17  B  5  S   -0.000000   0.000000  -0.004043   0.007414  -0.006988
   18  B  5  X   -0.099539   0.313156   0.000000   0.000000  -0.000000
   19  B  5  Y   -0.143673   0.003449  -0.136730   0.250710  -0.236331
   20  B  5  Z    0.232467  -0.005580  -0.084504   0.154948  -0.146061
   21  B  6  S   -0.000000   0.000000   0.004043  -0.007414   0.006988
   22  B  6  X    0.099539  -0.313156   0.000000   0.000000  -0.000000
   23  B  6  Y    0.143673  -0.003449  -0.136730   0.250710  -0.236331
   24  B  6  Z   -0.232467   0.005580  -0.084504   0.154948  -0.146061
   25  B  7  S    0.000000  -0.000000  -0.000632  -0.003013  -0.010520
   26  B  7  X   -0.135283  -0.286719   0.000000   0.000000  -0.000000
   27  B  7  Y   -0.143673   0.003449   0.021367   0.101906   0.355755
   28  B  7  Z   -0.232467   0.005580  -0.013205  -0.062982  -0.219869
   29  B  8  S   -0.000000   0.000000   0.010039   0.001948   0.003947
   30  B  8  X   -0.189975   0.021388  -0.209814  -0.040706  -0.082490
   31  B  8  Y   -0.221422   0.190951  -0.000000   0.000000   0.000000
   32  B  8  Z   -0.117411   0.013218   0.339486   0.065863   0.133471
   33  B  9  S    0.000000  -0.000000  -0.007149  -0.004667   0.006874
   34  B  9  X   -0.189975   0.021388  -0.149426  -0.097544   0.143667
   35  B  9  Y   -0.243512  -0.179791  -0.000000   0.000000   0.000000
   36  B  9  Z    0.117411  -0.013218  -0.241777  -0.157829   0.232459
[...]
  3   B            X  0.00000000 -0.03453415  0.01151370 -0.02817585 -0.01014979
                   Y -0.00000000  0.02134404 -0.00711617  0.01770235  0.00719509
                   Z -0.00000000  0.00000000  0.00000000  0.00000000 -0.00000000
  4   B            X -0.00000000  0.00000000 -0.00000000 -0.00000017  0.00000045
                   Y  0.03096558 -0.01862721 -0.00439674 -0.00532035 -0.02947216
                   Z -0.01913845  0.01151272  0.00271744  0.00263360  0.01892598
  5   B            X  0.00000000  0.00000000 -0.00000000 -0.00000017  0.00000045
                   Y -0.03096558 -0.01862721 -0.00439674 -0.00532035 -0.02947216
                   Z -0.01913845 -0.01151272 -0.00271744 -0.00263360 -0.01892598
  6   B            X -0.00000000  0.00000000 -0.00000000  0.00000017 -0.00000045
                   Y -0.03096558 -0.01862731 -0.00439669  0.00532038  0.02947207
                   Z -0.01913845 -0.01151278 -0.00271741  0.00263362  0.01892592
  7   B            X  0.00000000  0.00000000 -0.00000000  0.00000017 -0.00000045
                   Y  0.03096558 -0.01862731 -0.00439669  0.00532038  0.02947207
                   Z -0.01913845  0.01151278  0.00271741 -0.00263362 -0.01892592
  8   B            X -0.01182911  0.00439659 -0.01862662  0.01507355 -0.01174370
                   Y -0.00000000  0.00000000  0.00000000  0.00000010 -0.00000028
                   Z  0.01913912 -0.00711358  0.03013745 -0.02286342  0.01934356
  9   B            X  0.01182911  0.00439652 -0.01862661 -0.01507355  0.01174377
                   Y -0.00000000  0.00000000  0.00000000 -0.00000010  0.00000028
                   Z  0.01913912  0.00711347 -0.03013743 -0.02286343  0.01934366
 10   B            X  0.01182911  0.00439659 -0.01862662  0.01507355 -0.01174370
                   Y  0.00000000  0.00000000  0.00000000  0.00000010 -0.00000028
                   Z  0.01913912  0.00711358 -0.03013745  0.02286342 -0.01934356
 11   B            X -0.01182911  0.00439652 -0.01862661 -0.01507355  0.01174377
                   Y  0.00000000  0.00000000  0.00000000 -0.00000010  0.00000028
                   Z  0.01913912 -0.00711347  0.03013743  0.02286343 -0.01934366
 12   B            X  0.00000000 -0.03453412  0.01151378  0.02817587  0.01014972
                   Y -0.00000000  0.02134402 -0.00711622 -0.01770237 -0.00719505
                   Z -0.00000000  0.00000000 -0.00000000 -0.00000000  0.00000000
 13   H            X -0.00000000 -0.28724274 -0.28724408 -0.31041079 -0.11515773
                   Y -0.00000000 -0.17753285 -0.17753223 -0.19196731 -0.07154337
                   Z  0.00000008 -0.00000000 -0.00000000 -0.00000000 -0.00000000
 14   H            X -0.00000000 -0.28724279 -0.28724423  0.31041175  0.11515690
                   Y -0.00000000 -0.17753288 -0.17753232  0.19196791  0.07154286
                   Z  0.00000008 -0.00000000 -0.00000000  0.00000000  0.00000000
 15   H            X -0.00000000  0.38536951 -0.12848304  0.31023855  0.11562135
                   Y  0.00000000 -0.23818030  0.07940875 -0.19186094 -0.07182969
                   Z  0.00000008  0.00000000 -0.00000000 -0.00000000  0.00000000
 16   H            X -0.00000000 -0.00000001  0.00000008  0.00000006 -0.00000018
                   Y -0.34554737  0.20786333  0.04906372  0.05523241  0.32644448
                   Z  0.21356820 -0.12847035 -0.03032393 -0.03387493 -0.20204618
 17   H            X  0.00000000 -0.00000001  0.00000008  0.00000006 -0.00000018
                   Y  0.34554737  0.20786333  0.04906371  0.05523241  0.32644448
                   Z  0.21356820  0.12847035  0.03032392  0.03387493  0.20204618
 18   H            X -0.00000000 -0.00000002  0.00000008 -0.00000007  0.00000018
                   Y  0.34554737  0.20786440  0.04906318 -0.05523277 -0.32644343
                   Z  0.21356820  0.12847101  0.03032360 -0.03387515 -0.20204553
 19   H            X  0.00000000 -0.00000002  0.00000008 -0.00000007  0.00000018
                   Y -0.34554737  0.20786440  0.04906319 -0.05523277 -0.32644343
                   Z  0.21356820 -0.12847101 -0.03032360  0.03387515  0.20204553
 20   H            X  0.13200096 -0.04906204  0.20785662 -0.15803931  0.13035913
                   Y -0.00000000 -0.00000008 -0.00000002 -0.00000004  0.00000011
                   Z -0.21357581  0.07938101 -0.33630619  0.25509243 -0.21105408
 21   H            X -0.13200095 -0.04906131  0.20785649  0.15803938 -0.13035983
                   Y -0.00000000 -0.00000008 -0.00000002  0.00000004 -0.00000011
                   Z -0.21357580 -0.07937984  0.33630598  0.25509256 -0.21105521
 22   H            X -0.13200095 -0.04906204  0.20785662 -0.15803931  0.13035913
                   Y  0.00000000 -0.00000008 -0.00000002 -0.00000004  0.00000011
                   Z -0.21357580 -0.07938101  0.33630619 -0.25509243  0.21105408
 23   H            X  0.13200096 -0.04906131  0.20785648  0.15803938 -0.13035983
                   Y  0.00000000 -0.00000008 -0.00000002  0.00000004 -0.00000011
                   Z -0.21357581  0.07937984 -0.33630597 -0.25509256  0.21105521
 24   H            X -0.00000000  0.38536920 -0.12848396 -0.31023886 -0.11562055
                   Y  0.00000000 -0.23818011  0.07940932  0.19186113  0.07182919
                   Z  0.00000008 -0.00000000 -0.00000000  0.00000000 -0.00000000

 TRANS. SAYVETZ    X -0.00000000  0.00000020 -0.00000075 -0.00000002 -0.00000000
                   Y  0.00000000  0.00000077  0.00000018  0.00000001 -0.00000001
                   Z -0.00000081  0.00000000  0.00000000  0.00000000 -0.00000000
               TOTAL  0.00000081  0.00000080  0.00000078  0.00000002  0.00000001

   ROT. SAYVETZ    X  0.00000001 -0.00000000 -0.00000000 -0.00000000 -0.00000000
                   Y  0.00000001  0.00000000 -0.00000000  0.00000000 -0.00000000
                   Z  0.00000000  0.00000003 -0.00000000 -0.00000001 -0.00000003
               TOTAL  0.00000002  0.00000003  0.00000000  0.00000001  0.00000003

                           66          67          68          69          70
       FREQUENCY:      3225.75     3225.75     3225.75     3234.64     3234.64  
        SYMMETRY:         TG          TG          TG          TU          TU  
    REDUCED MASS:      1.09040     1.09040     1.09040     1.10006     1.10006

  1   B            X  0.00000020 -0.00000011 -0.03721648 -0.02693268 -0.02809333
                   Y  0.00000012 -0.00000006 -0.02251925 -0.01770713 -0.01631016
                   Z -0.00084867 -0.00035205 -0.00000000  0.00000000 -0.00000000
  2   B            X -0.00000020  0.00000011  0.03721642 -0.02693268 -0.02809334
                   Y -0.00000012  0.00000006  0.02251921 -0.01770713 -0.01631016
                   Z  0.00084867  0.00035205  0.00000000  0.00000000 -0.00000000
  3   B            X  0.00000020 -0.00000011 -0.03721686 -0.03675346  0.01279798
                   Y -0.00000012  0.00000006  0.02251856  0.02318293 -0.00648969
                   Z  0.00006457  0.00091652 -0.00000000  0.00000000 -0.00000000
  4   B            X  0.00028223  0.00039205  0.00078155  0.00123651  0.00029697
                   Y -0.03020402  0.02174390  0.00001548  0.00764766 -0.03184306
                   Z  0.01827572 -0.01315671 -0.00001012 -0.00491022  0.02044502
  5   B            X -0.00028224 -0.00039205  0.00078155  0.00123651  0.00029697
                   Y  0.03020402 -0.02174390  0.00001593  0.00764766 -0.03184306
                   Z  0.01827572 -0.01315671  0.00001039  0.00491022 -0.02044502
  6   B            X  0.00028224  0.00039205 -0.00078155  0.00123651  0.00029697
                   Y -0.03020402  0.02174390 -0.00001593  0.00764770 -0.03184309
                   Z -0.01827572  0.01315671 -0.00001039  0.00491025 -0.02044504
  7   B            X -0.00028223 -0.00039205 -0.00078155  0.00123651  0.00029697
                   Y  0.03020402 -0.02174390 -0.00001549  0.00764770 -0.03184309
                   Z -0.01827572  0.01315671  0.00001012 -0.00491025  0.02044504
  8   B            X  0.01315671  0.01827572  0.00000994 -0.01139993 -0.00273789
                   Y -0.00063428  0.00045662 -0.00048308 -0.00029697  0.00123651
                   Z -0.02174390 -0.03020402 -0.00001596  0.02044567  0.00491038
  9   B            X  0.01315671  0.01827572 -0.00000989 -0.01139990 -0.00273789
                   Y -0.00063429  0.00045662  0.00048307 -0.00029697  0.00123651
                   Z  0.02174390  0.03020402 -0.00001587 -0.02044562 -0.00491038
 10   B            X -0.01315671 -0.01827572  0.00000991 -0.01139993 -0.00273789
                   Y  0.00063429 -0.00045662 -0.00048307 -0.00029697  0.00123651
                   Z -0.02174390 -0.03020402  0.00001590 -0.02044567 -0.00491038
 11   B            X -0.01315671 -0.01827572 -0.00000992 -0.01139990 -0.00273789
                   Y  0.00063428 -0.00045662  0.00048308 -0.00029697  0.00123651
                   Z  0.02174390  0.03020402  0.00001593  0.02044562  0.00491038
 12   B            X -0.00000020  0.00000011  0.03721686 -0.03675347  0.01279794
                   Y  0.00000012 -0.00000006 -0.02251856  0.02318293 -0.00648967
                   Z -0.00006457 -0.00091652  0.00000000  0.00000000 -0.00000000
 13   H            X -0.00000214  0.00000115  0.40571075  0.28381417  0.28701190
                   Y -0.00000132  0.00000071  0.25055709  0.17649439  0.17631394
                   Z  0.00034166  0.00014190  0.00000000 -0.00000000  0.00000000
 14   H            X  0.00000214 -0.00000115 -0.40571001  0.28381421  0.28701202
                   Y  0.00000132 -0.00000071 -0.25055663  0.17649441  0.17631402
                   Z -0.00034166 -0.00014190 -0.00000000 -0.00000000  0.00000000
 15   H            X -0.00000214  0.00000115  0.40571051  0.38320243 -0.12681608
                   Y  0.00000132 -0.00000071 -0.25055657 -0.23731553  0.07693018
                   Z -0.00002616 -0.00036903  0.00000000 -0.00000000  0.00000000
 16   H            X -0.00011356 -0.00015775 -0.00031478 -0.00126003 -0.00030262
                   Y  0.32926347 -0.23703712 -0.00017235 -0.08009770  0.33350818
                   Z -0.20334496  0.14638825  0.00010674  0.04969175 -0.20690488
 17   H            X  0.00011357  0.00015775 -0.00031478 -0.00126003 -0.00030262
                   Y -0.32926347  0.23703712 -0.00017717 -0.08009769  0.33350816
                   Z -0.20334496  0.14638825 -0.00010972 -0.04969174  0.20690487
 18   H            X -0.00011357 -0.00015775  0.00031477 -0.00126003 -0.00030262
                   Y  0.32926347 -0.23703712  0.00017721 -0.08009819  0.33350846
                   Z  0.20334495 -0.14638825  0.00010974 -0.04969206  0.20690506
 19   H            X  0.00011356  0.00015775  0.00031477 -0.00126003 -0.00030262
                   Y -0.32926347  0.23703712  0.00017239 -0.08009820  0.33350848
                   Z  0.20334496 -0.14638825 -0.00010677  0.04969206 -0.20690507
 20   H            X -0.14638825 -0.20334496 -0.00010840  0.12662217  0.03041049
                   Y  0.00025546 -0.00018391  0.00019438  0.00030262 -0.00126004
                   Z  0.23703712  0.32926347  0.00017533 -0.20691417 -0.04969399
 21   H            X -0.14638825 -0.20334496  0.00010780  0.12662182  0.03041050
                   Y  0.00025546 -0.00018391 -0.00019438  0.00030262 -0.00126004
                   Z -0.23703712 -0.32926347  0.00017436  0.20691360  0.04969401
 22   H            X  0.14638825  0.20334496 -0.00010801  0.12662218  0.03041046
                   Y -0.00025546  0.00018391  0.00019438  0.00030262 -0.00126004
                   Z  0.23703712  0.32926347 -0.00017470  0.20691419  0.04969395
 23   H            X  0.14638825  0.20334496  0.00010819  0.12662181  0.03041052
                   Y -0.00025546  0.00018391 -0.00019438  0.00030262 -0.00126004
                   Z -0.23703712 -0.32926347 -0.00017499 -0.20691359 -0.04969404
 24   H            X  0.00000214 -0.00000115 -0.40571051  0.38320255 -0.12681569
                   Y -0.00000132  0.00000071  0.25055657 -0.23731561  0.07692993
                   Z  0.00002615  0.00036903 -0.00000000 -0.00000000  0.00000000

 TRANS. SAYVETZ    X  0.00000000 -0.00000000 -0.00000003 -0.00000572 -0.00000139
                   Y -0.00000000  0.00000000  0.00000000  0.00000137 -0.00000573
                   Z -0.00000000 -0.00000000  0.00000000 -0.00000000  0.00000000
               TOTAL  0.00000000  0.00000000  0.00000003  0.00000588  0.00000590

   ROT. SAYVETZ    X  0.00005809 -0.00004183  0.00000000  0.00000000  0.00000000
                   Y  0.00004185  0.00005813  0.00000000 -0.00000000 -0.00000000
                   Z  0.00000000 -0.00000000 -0.00007160  0.00000001  0.00000002
               TOTAL  0.00007159  0.00007162  0.00007160  0.00000001  0.00000002

                           71          72
       FREQUENCY:      3234.64     3253.61  
        SYMMETRY:         TU          AG  
    REDUCED MASS:      1.10006     1.10863

  1   B            X -0.00000000 -0.02341381
                   Y -0.00000000 -0.01447104
                   Z  0.00127167 -0.00000000
  2   B            X -0.00000000  0.02341381
                   Y -0.00000000  0.01447104
                   Z  0.00127167 -0.00000000
  3   B            X  0.00000000  0.02341381
                   Y -0.00000000 -0.01447104
                   Z  0.00127167 -0.00000000
  4   B            X -0.00000000  0.00000000
                   Y  0.02102704 -0.02341380
                   Z -0.01172409  0.01447103
  5   B            X -0.00000000  0.00000000
                   Y -0.02102704 -0.02341380
                   Z -0.01172409 -0.01447103
  6   B            X  0.00000000  0.00000000
                   Y -0.02102704  0.02341379
                   Z -0.01172409  0.01447103
  7   B            X -0.00000000  0.00000000
                   Y  0.02102704  0.02341379
                   Z -0.01172409 -0.01447103
  8   B            X  0.02102640  0.01447103
                   Y  0.00000000  0.00000000
                   Z -0.03274856 -0.02341380
  9   B            X -0.02102640 -0.01447104
                   Y  0.00000000  0.00000000
                   Z -0.03274856 -0.02341381
 10   B            X -0.02102640  0.01447103
                   Y  0.00000000  0.00000000
                   Z -0.03274856  0.02341380
 11   B            X  0.02102640 -0.01447104
                   Y  0.00000000  0.00000000
                   Z -0.03274856  0.02341381
 12   B            X  0.00000000 -0.02341381
                   Y -0.00000000  0.01447104
                   Z  0.00127167  0.00000000
 13   H            X  0.00000001  0.23204164
                   Y  0.00000001  0.14341186
                   Z -0.00129585 -0.00000000
 14   H            X  0.00000001 -0.23204162
                   Y  0.00000001 -0.14341184
                   Z -0.00129585 -0.00000000
 15   H            X -0.00000001 -0.23204163
                   Y  0.00000001  0.14341185
                   Z -0.00129585 -0.00000000
 16   H            X  0.00000000  0.00000000
                   Y -0.21279776  0.23204151
                   Z  0.13022267 -0.14341177
 17   H            X -0.00000000  0.00000000
                   Y  0.21279780  0.23204151
                   Z  0.13022269  0.14341177
 18   H            X  0.00000000  0.00000000
                   Y  0.21279780 -0.23204144
                   Z  0.13022269 -0.14341173
 19   H            X -0.00000000  0.00000000
                   Y -0.21279776 -0.23204144
                   Z  0.13022267  0.14341173
 20   H            X -0.21278850 -0.14341180
                   Y -0.00000000 -0.00000000
                   Z  0.34299193  0.23204156
 21   H            X  0.21278850  0.14341183
                   Y -0.00000000 -0.00000000
                   Z  0.34299193  0.23204161
 22   H            X  0.21278850 -0.14341180
                   Y -0.00000000 -0.00000000
                   Z  0.34299193 -0.23204156
 23   H            X -0.21278850  0.14341183
                   Y -0.00000000 -0.00000000
                   Z  0.34299193 -0.23204161
 24   H            X -0.00000001  0.23204163
                   Y  0.00000001 -0.14341185
                   Z -0.00129587  0.00000000

 TRANS. SAYVETZ    X  0.00000000  0.00000002
                   Y -0.00000000  0.00000000
                   Z -0.00000583  0.00000000
               TOTAL  0.00000583  0.00000002

   ROT. SAYVETZ    X -0.00000006  0.00000000
                   Y -0.00000009  0.00000000
                   Z  0.00000000 -0.00000000
               TOTAL  0.00000011  0.00000000

 REFERENCE ON SAYVETZ CONDITIONS - A. SAYVETZ, J.CHEM.PHYS., 7, 383-389(1939).

 NOTE - THE MODES J,K ARE ORTHONORMALIZED ACCORDING TO
 SUM ON I   M(I) * (X(I,J)*X(I,K) + Y(I,J)*Y(I,K) + Z(I,J)*Z(I,K)) = DELTA(J,K)

     -------------------------------
     THERMOCHEMISTRY AT T=  298.15 K
     -------------------------------

 USING IDEAL GAS, RIGID ROTOR, HARMONIC NORMAL MODE APPROXIMATIONS.
 P=  1.01325E+05 PASCAL.
 ALL FREQUENCIES ARE SCALED BY   1.00000
 THE MOMENTS OF INERTIA ARE (IN AMU*BOHR**2)
   1114.45433  1114.45433  1114.45433
 THE ROTATIONAL SYMMETRY NUMBER IS 12.0
 THE ROTATIONAL CONSTANTS ARE (IN GHZ)
      1.61791     1.61791     1.61791
      7 -     72 VIBRATIONAL MODES ARE USED IN THERMOCHEMISTRY.
 THE HARMONIC ZERO POINT ENERGY IS (SCALED BY   1.000)
        0.186567 HARTREE/MOLECULE    40946.701265 CM**-1/MOLECULE 
      117.072611 KCAL/MOL              489.831805 KJ/MOL

               Q               LN Q
 ELEC.     1.00000E+00       0.000000
 TRANS.    6.80655E+07      18.035981
 ROT.      3.50957E+04      10.465833
 VIB.      9.10211E+00       2.208506
 TOT.      2.17432E+13      30.710320

              E         H         G         CV        CP        S
           KJ/MOL    KJ/MOL    KJ/MOL   J/MOL-K   J/MOL-K   J/MOL-K
 ELEC.      0.000     0.000     0.000     0.000     0.000     0.000
 TRANS.     3.718     6.197   -44.710    12.472    20.786   170.745
 ROT.       3.718     3.718   -25.944    12.472    12.472    99.489
 VIB.     504.951   504.951   484.357   161.014   161.014    69.073
 TOTAL    512.388   514.867   413.703   185.958   194.272   339.306
 VIB. THERMAL CORRECTION E(T)-E(0) = H(T)-H(0) = 15119.260 J/MOL

              E         H         G         CV        CP        S
         KCAL/MOL  KCAL/MOL  KCAL/MOL CAL/MOL-K CAL/MOL-K CAL/MOL-K
 ELEC.      0.000     0.000     0.000     0.000     0.000     0.000
 TRANS.     0.889     1.481   -10.686     2.981     4.968    40.809
 ROT.       0.889     0.889    -6.201     2.981     2.981    23.778
 VIB.     120.686   120.686   115.764    38.483    38.483    16.509
 TOTAL    122.464   123.056    98.877    44.445    46.432    81.096
 VIB. THERMAL CORRECTION E(T)-E(0) = H(T)-H(0) =  3613.590 CAL/MOL
 ......END OF NORMAL COORDINATE ANALYSIS......
 STEP CPU TIME =     0.02 TOTAL CPU TIME =        3.6 (    0.1 MIN)
 TOTAL WALL CLOCK TIME=        3.6 SECONDS, CPU UTILIZATION IS 100.00%
 AN INPUT FILE FOR -MOLPLT- HAS BEEN PUNCHED.
               580000  WORDS OF DYNAMIC MEMORY USED
 EXECUTION OF GAMESS TERMINATED NORMALLY Wed Aug  9 20:32:30 2017
 DDI: 263640 bytes (0.3 MB / 0 MWords) used by master data server.

 ----------------------------------------
 CPU timing information for all processes
 ========================================
 0: 3.301 + 0.292 = 3.594
 ----------------------------------------
 ddikick.x: exited gracefully.
unset echo
----- accounting info -----
Files used on the master node compute-0-7.local were:
-rw-rw-r-- 1 sarom sarom 1.1K Aug  9 20:32 /scratch/b12h12-fullnum.F05
-rw-rw-r-- 1 sarom sarom    0 Aug  9 20:32 /scratch/b12h12-fullnum.F08
-rw-rw-r-- 1 sarom sarom 1.6M Aug  9 20:32 /scratch/b12h12-fullnum.F10
rm: No match.
ls: No match.
ls: No match.
ls: No match.
Wed Aug  9 20:32:33 CDT 2017
0.251u 0.174s 0:07.09 5.9%	0+0k 8+360io 0pf+0w
/opt/gridengine/default/spool/compute-0-7/active_jobs/35871.1/pe_hostfile compute-0-7.local
