-catch_rsh /opt/gridengine/default/spool/compute-1-1/active_jobs/35881.1/pe_hostfile
compute-1-1
The primary node assigned by SGE to this run is compute-1-1
Warning: no access to tty (Bad file descriptor).
Thus no job control in this shell.
source /home/sarom/dir.git.branch.saromleang-travis-ci/install.info
setenv GMS_PATH /home/sarom/dir.git.branch.saromleang-travis-ci
setenv GMS_BUILD_DIR /home/sarom/dir.git.branch.saromleang-travis-ci
setenv GMS_TARGET linux64
setenv GMS_FORTRAN gfortran
setenv GMS_GFORTRAN_VERNO 4.4
setenv GMS_MATHLIB mkl-so
setenv GMS_MATHLIB none
setenv GMS_MATHLIB_PATH /share/apps/intel/compilers_and_libraries_2017.1.132/linux/mkl/lib/intel64
setenv GMS_MKL_VERNO 12
setenv GMS_DDI_COMM sockets
setenv GMS_LIBCCHEM false
setenv GMS_EIGEN_PATH
setenv GMS_PHI false
setenv GMS_SHMTYPE sysv
setenv GMS_OPENMP false
unset echo
efp2-fo-numgrd
/home/sarom/dir.git.branch.saromleang-travis-ci/tests/numdiff/parallel
----- GAMESS execution script 'rungms' -----
This job is running on host compute-1-1.local
under operating system Linux at Wed Aug 9 20:33:56 CDT 2017
Available scratch disk space (Kbyte units) at beginning of the job is
Filesystem           1K-blocks      Used Available Use% Mounted on
/dev/sda1             16126920   9109384   6198336  60% /
GAMESS temporary binary files will be written to /scratch
GAMESS supplementary output files will be written to /home/sarom/restart
Copying input file efp2-fo-numgrd.inp to your run's scratch directory...
cp /home/sarom/dir.git.branch.saromleang-travis-ci/tests/numdiff/parallel/efp2-fo-numgrd.inp /scratch/efp2-fo-numgrd.F05
unset echo
The generated host list is
compute-1-1.local
/home/sarom/dir.git.branch.saromleang-travis-ci/ddikick.x /home/sarom/dir.git.branch.saromleang-travis-ci/gamess.00.x efp2-fo-numgrd -ddi 1 1 compute-1-1.local -scr /scratch

 Distributed Data Interface kickoff program.
 Initiating 1 compute processes on 1 nodes to run the following command:
 /home/sarom/dir.git.branch.saromleang-travis-ci/gamess.00.x efp2-fo-numgrd 

          ******************************************************
          *         GAMESS VERSION = 20 APR 2017 (R1)          *
          *             FROM IOWA STATE UNIVERSITY             *
          * M.W.SCHMIDT, K.K.BALDRIDGE, J.A.BOATZ, S.T.ELBERT, *
          *   M.S.GORDON, J.H.JENSEN, S.KOSEKI, N.MATSUNAGA,   *
          *          K.A.NGUYEN, S.J.SU, T.L.WINDUS,           *
          *       TOGETHER WITH M.DUPUIS, J.A.MONTGOMERY       *
          *         J.COMPUT.CHEM.  14, 1347-1363(1993)        *
          **************** 64 BIT LINUX VERSION ****************

  SINCE 1993, STUDENTS AND POSTDOCS WORKING AT IOWA STATE UNIVERSITY
  AND ALSO IN THEIR VARIOUS JOBS AFTER LEAVING ISU HAVE MADE IMPORTANT
  CONTRIBUTIONS TO THE CODE:
     IVANA ADAMOVIC, CHRISTINE AIKENS, YURI ALEXEEV, POOJA ARORA,
     ANDREY ASADCHEV, ROB BELL, PRADIPTA BANDYOPADHYAY, JONATHAN BENTZ,
     BRETT BODE, KURT BRORSEN, CALEB CARLIN, GALINA CHABAN, WEI CHEN,
     CHEOL HO CHOI, PAUL DAY, ALBERT DEFUSCO, NUWAN DESILVA, TIM DUDLEY,
     DMITRI FEDOROV, GRAHAM FLETCHER, MARK FREITAG, KURT GLAESEMANN,
     DAN KEMP, GRANT MERRILL, NORIYUKI MINEZAWA, JONATHAN MULLIN,
     TAKESHI NAGATA, SEAN NEDD, HEATHER NETZLOFF, BOSILJKA NJEGIC, RYAN OLSON,
     MIKE PAK, SPENCER PRUITT, LUKE ROSKOP, JIM SHOEMAKER, LYUDMILA SLIPCHENKO,
     TONY SMITH, SAROM SOK LEANG, JIE SONG, TETSUYA TAKETSUGU, SIMON WEBB,
     PENG XU, SOOHAENG YOO, FEDERICO ZAHARIEV

  ADDITIONAL CODE HAS BEEN PROVIDED BY COLLABORATORS IN OTHER GROUPS:
     IOWA STATE UNIVERSITY:
          JOE IVANIC, AARON WEST, LAIMUTIS BYTAUTAS, KLAUS RUEDENBERG
     UNIVERSITY OF TOKYO: KIMIHIKO HIRAO, TAKAHITO NAKAJIMA,
          TAKAO TSUNEDA, MUNEAKI KAMIYA, SUSUMU YANAGISAWA,
          KIYOSHI YAGI, MAHITO CHIBA, SEIKEN TOKURA, NAOAKI KAWAKAMI
     UNIVERSITY OF AARHUS: FRANK JENSEN
     UNIVERSITY OF IOWA: VISVALDAS KAIRYS, HUI LI
     NATIONAL INST. OF STANDARDS AND TECHNOLOGY: WALT STEVENS, DAVID GARMER
     UNIVERSITY OF PISA: BENEDETTA MENNUCCI, JACOPO TOMASI
     UNIVERSITY OF MEMPHIS: HENRY KURTZ, PRAKASHAN KORAMBATH
     UNIVERSITY OF ALBERTA: TOBY ZENG, MARIUSZ KLOBUKOWSKI
     UNIVERSITY OF NEW ENGLAND: MARK SPACKMAN
     MIE UNIVERSITY: HIROAKI UMEDA
     NAT. INST. OF ADVANCED INDUSTRIAL SCIENCE AND TECHNOLOGY: KAZUO KITAURA
     MICHIGAN STATE UNIVERSITY:
          KAROL KOWALSKI, MARTA WLOCH, JEFFREY GOUR, JESSE LUTZ,
          WEI LI, PIOTR PIECUCH
     UNIVERSITY OF SILESIA: MONIKA MUSIAL, STANISLAW KUCHARSKI
     FACULTES UNIVERSITAIRES NOTRE-DAME DE LA PAIX:
          OLIVIER QUINET, BENOIT CHAMPAGNE
     UNIVERSITY OF CALIFORNIA - SANTA BARBARA: BERNARD KIRTMAN
     INSTITUTE FOR MOLECULAR SCIENCE:
          KAZUYA ISHIMURA, MICHIO KATOUDA, AND SHIGERU NAGASE
     UNIVERSITY OF NOTRE DAME: ANNA POMOGAEVA, DAN CHIPMAN
     KYUSHU UNIVERSITY:
          HARUYUKI NAKANO,
          FENG LONG GU, JACEK KORCHOWIEC, MARCIN MAKOWSKI, AND YURIKO AOKI,
          HIROTOSHI MORI AND EISAKU MIYOSHI
     PENNSYLVANIA STATE UNIVERSITY:
          TZVETELIN IORDANOV, CHET SWALINA, JONATHAN SKONE,
          SHARON HAMMES-SCHIFFER
     WASEDA UNIVERSITY:
          MASATO KOBAYASHI, TOMOKO AKAMA, TSUGUKI TOUMA,
          TAKESHI YOSHIKAWA, YASUHIRO IKABATA, JUNJI SEINO,
          YUYA NAKAJIMA, HIROMI NAKAI
     NANJING UNIVERSITY: SHUHUA LI
     UNIVERSITY OF NEBRASKA:
          PEIFENG SU, DEJUN SI, NANDUN THELLAMUREGE, YALI WANG, HUI LI
     UNIVERSITY OF ZURICH: ROBERTO PEVERATI, KIM BALDRIDGE
     N. COPERNICUS UNIVERSITY AND JACKSON STATE UNIVERSITY:
          MARIA BARYSZ
     UNIVERSITY OF COPENHAGEN: Jimmy Kromann, CASPER STEINMANN
     TOKYO INSTITUTE OF TECHNOLOGY: HIROYA NAKATA
     NAGOYA UNIVERSITY: YOSHIO NISHIMOTO, STEPHAN IRLE
     MOSCOW STATE UNIVERSITY: VLADIMIR MIRONOV

 EXECUTION OF GAMESS BEGUN Wed Aug  9 20:33:56 2017

            ECHO OF THE FIRST FEW INPUT CARDS -
 INPUT CARD>!  MeOH dimer, EFP2 potential, computing numerical gradient ,                   
 INPUT CARD>!  from Lyuda (7/2008)                                                          
 INPUT CARD>!                                                                               
 INPUT CARD>!      FINAL EFP E=  -0.0054223437, RMS grad= 0.001665247                       
 INPUT CARD>!                                                                               
 INPUT CARD>!  This run takes 5 seconds on 2.66 GHz Cloverton (14 Apr 2015)                 
 INPUT CARD>!  results same as in 2011.                                                     
 INPUT CARD>!                                                                               
 INPUT CARD>!  ---------------------------------------------------------------------        
 INPUT CARD>!  This is a test of a full EFP2-type potential, including polarization,        
 INPUT CARD>!  overlap-based dispersion, and overlap-based electrostatics,                  
 INPUT CARD>!  the energy of the input geometry happens to be -0.0054223437                 
 INPUT CARD>!                                                                               
 INPUT CARD>!  ===> numerical differentiation prints R.M.S.= 0.001665247, and               
 INPUT CARD>!                        ----------------------                                 
 INPUT CARD>!                        GRADIENT OF THE ENERGY                                 
 INPUT CARD>!                        ----------------------                                 
 INPUT CARD>!UNITS ARE HARTREE/BOHR    E'X               E'Y               E'Z              
 INPUT CARD>!     TOTAL QM trans.  0.000000000       0.000000000       0.000000000          
 INPUT CARD>!     total QM TORQUE  0.000000000       0.000000000       0.000000000          
 INPUT CARD>! EFP           Trans GRADIENT                           TORQUE                 
 INPUT CARD>!   1   0.0028256  0.0005277 -0.0005549     0.0000955 -0.0022886 -0.0018336     
 INPUT CARD>!   2  -0.0028256 -0.0005277  0.0005549    -0.0006283  0.0004444 -0.0026334     
 INPUT CARD>!                                                                               
 INPUT CARD>!  ===>  analytic differentiation prints R.M.S.= 0.001665249, and               
 INPUT CARD>!                    -----------------------------                              
 INPUT CARD>!                    FRAGMENT GRADIENT INFORMATION                              
 INPUT CARD>!                    -----------------------------                              
 INPUT CARD>!     FRAGMENT NO.    1     E'X               E'Y               E'Z             
 INPUT CARD>!     TOTALS           0.002825569       0.000527726      -0.000554882          
 INPUT CARD>!     TORQUE           0.000095513      -0.002288655      -0.001833569          
 INPUT CARD>!     FRAGMENT NO.    2     E'X               E'Y               E'Z             
 INPUT CARD>!     TOTALS          -0.002825569      -0.000527726       0.000554882          
 INPUT CARD>!     TORQUE          -0.000628295       0.000444441      -0.002633418          
 INPUT CARD>!     TOTAL FORCE ON ALL FRAGMENTS                                              
 INPUT CARD>!     FORCE            0.000000000       0.000000000       0.000000000          
 INPUT CARD>!                                                                               
 INPUT CARD> $contrl runtyp=gradient coord=fragonly numgrd=.true. $end                      
 INPUT CARD> $system mwords=2 memddi=0 $end                                                 
 INPUT CARD> $statpt opttol=1.0e-6 nstep=100 $end                                           
 INPUT CARD> $efrag                                                                         
 INPUT CARD>iscrelec=1 iscrpol=1 iscrdisp=1 >                                               
 INPUT CARD>coord=cart polmethd=frgscf                                                      
 INPUT CARD> FRAGNAME=MeOH                                                                  
 INPUT CARD>O1         1.18736267     0.13488382    -0.59738898                             
 INPUT CARD>H2         1.45477128     0.21659493    -1.49717724                             
 INPUT CARD>C3         2.19796705    -0.46808979     0.16327024                             
 INPUT CARD> FRAGNAME=MeOH                                                                  
 INPUT CARD>O1        -2.22136784    -0.68695098     0.05935264                             
 INPUT CARD>H2        -1.32613206    -0.46493262    -0.13316785                             
    2000000 WORDS OF MEMORY AVAILABLE

     $CONTRL OPTIONS
     ---------------
 SCFTYP=RHF          RUNTYP=GRADIENT     EXETYP=RUN     
 MPLEVL=       0     CITYP =NONE         CCTYP =NONE         VBTYP =NONE    
 DFTTYP=NONE         TDDFT =NONE    
 MULT  =       1     ICHARG=       0     NZVAR =       0     COORD =FRAGONLY
 PP    =NONE         RELWFN=NONE         LOCAL =NONE         NUMGRD=       T
 ISPHER=      -1     NOSYM =       0     MAXIT =      30     UNITS =ANGS    
 PLTORB=       F     MOLPLT=       F     AIMPAC=       F     FRIEND=        
 NPRINT=       7     IREST =       0     GEOM  =INPUT   
 NORMF =       0     NORMP =       0     ITOL  =      20     ICUT  =       9
 INTTYP=BEST         GRDTYP=BEST         QMTTOL= 1.0E-06

     $SYSTEM OPTIONS
     ---------------
  REPLICATED MEMORY=     2000000 WORDS (ON EVERY NODE).
 DISTRIBUTED MEMDDI=           0 MILLION WORDS IN AGGREGATE,
 MEMDDI DISTRIBUTED OVER   1 PROCESSORS IS           0 WORDS/PROCESSOR.
 TOTAL MEMORY REQUESTED ON EACH PROCESSOR=     2000000 WORDS.
 TIMLIM=      525600.00 MINUTES, OR     365.0 DAYS.
 PARALL= F  BALTYP=  DLB     KDIAG=    0  COREFL= F
 MXSEQ2=     300 MXSEQ3=     150  mem10=         0

 READING $EFRAG GROUP
 COORD=CART      POSITION=OPTIMIZE  POLMETHD=FRGSCF   NBUFFMO=0
 READING COORDINATES OF FRAGMENT   1 NAMED   MEOH  
 READING COORDINATES OF FRAGMENT   2 NAMED   MEOH  
 FINISHED READING $EFRAG GROUP,   2 FRAGMENTS WILL BE USED.

 READING POTENTIAL PARAMETERS FOR FRAGMENT    1 FROM GROUP $MEOH  
 READING POTENTIAL PARAMETERS FOR FRAGMENT    2 FROM GROUP $MEOH  


     SUMMARY OF THE EFFECTIVE FRAGMENT POTENTIAL MODEL CHOSEN
     --------------------------------------------------------
 TOTAL NUMBER OF MULTIPOLE POINTS   =        22  (EFP1/EFP2 ELECTROSTATICS)
 TOTAL NUMBER OF POLARIZABLE POINTS =        14  (EFP1/EFP2 INDUCTION)
 TOTAL NUMBER OF L-J POINTS         =         0  (REPULSION AND DISPERSION)
 TOTAL NUMBER OF AO CENTERS         =        12  (EFP2 PAULI REPULSION)
 TOTAL NUMBER OF EFP MOS            =        14  (EFP2 PAULI REPULSION)
 TOTAL NO OF DYNAMIC POLARIZABLE PTS=       168  (EFP2 DISPERSION)
 TOTAL NUMBER OF EFP MOS            =       196  (EFP2 CHARGE TRANSFER)

 THIS IS A -EFP2- TYPE RUN, INCLUDING SEPARATE FORMULAE FOR
   PAULI REPULSION=T  DISPERSION=T  CHARGE TRANSFER=T

 OPTIONS FOR EFP SCREENING:
     ELECTROSTATIC EFP-EFP SCREENING CHOICE IS USING OVERLAP
     POLARIZATION EFP-EFP SCREENING IS TANG-TOENNIS LIKE
     DISPERSION EFP-EFP SCREENING CHOICE IS USING OVERLAP

     $EWALD OPTIONS
     -----------

     IFEWLD   =        F         TINFOIL        =        T
     BETA    =    0.200         ELECTRIC CONST =     1.00
     EPSILON =     1.00         CUT_OFF        = 0.10E+04
     CUTLIST =  1000.00         LEVEL          =    1
     KMAX    =       10         EWLDPL         =        F

            MULTIPOLE COORDINATES, ELECTRONIC AND NUCLEAR CHARGES

                  X              Y              Z           ELEC.   NUC.
 O1         2.2437900943   0.2548934600  -1.1289014803   -8.20512    8.0
 H2         2.7491190940   0.4093050680  -2.8292547386   -0.57901    1.0
 C3         4.1535554546  -0.8845614408   0.3085360155   -4.68789    6.0
 H4         3.4673571171  -1.0090983083   2.2289130766   -0.71041    1.0
 H5         4.5799456943  -2.7806550424  -0.3574181407   -0.73787    1.0
 H6         5.8795486094   0.2296118849   0.3021784113   -0.73787    1.0
 BO21       2.4964545941   0.3320992640  -1.9790781095   -0.39193    0.0
 BO31       3.1986727745  -0.3148339905  -0.4101827323   -0.26297    0.0
 BO43       3.8104562859  -0.9468298745   1.2687245461   -0.58904    0.0
 BO53       4.3667505744  -1.8326082416  -0.0244410626   -0.54895    0.0
 BO63       5.0165520320  -0.3274747779   0.3053572134   -0.54895    0.0
 O1        -4.1977765355  -1.2981491192   0.1121602262   -8.20512    8.0
 H2        -2.5060266076  -0.8785953514  -0.2516506629   -0.57901    1.0
 C3        -5.5576878556   0.8590960722   0.8254078285   -4.68789    6.0
 H4        -7.4718198634   0.2611262257   1.2162484173   -0.71041    1.0
 H5        -4.7832598047   1.7217775189   2.5214374379   -0.73787    1.0
 H6        -5.6045078460   2.2610721109  -0.6755072472   -0.73787    1.0
 BO21      -3.3519015715  -1.0883722354  -0.0697452183   -0.39193    0.0
 BO31      -4.8777321956  -0.2195265235   0.4687840274   -0.26297    0.0
 BO43      -6.5147538596   0.5601111490   1.0208281228   -0.58904    0.0
 BO53      -5.1704738301   1.2904367956   1.6734226333   -0.54895    0.0
 BO63      -5.5810978508   1.5600840916   0.0749502907   -0.54895    0.0

   CHARGE SCREENING PARAMETERS (COEF AND ZETA)
   ICHGP=   0 AI-FRAGMENT SCREENING= 0   FRAGMENT-FRAGMENT SCREENING= 0

             GAUSSIAN DAMPING    EXPONENTIAL DAMPING
 O1         0.00000   0.00000      0.00000   0.00000
 H2         0.00000   0.00000      0.00000   0.00000
 C3         0.00000   0.00000      0.00000   0.00000
 H4         0.00000   0.00000      0.00000   0.00000
 H5         0.00000   0.00000      0.00000   0.00000
 H6         0.00000   0.00000      0.00000   0.00000
 BO21       0.00000   0.00000      0.00000   0.00000
 BO31       0.00000   0.00000      0.00000   0.00000
 BO43       0.00000   0.00000      0.00000   0.00000
 BO53       0.00000   0.00000      0.00000   0.00000
 BO63       0.00000   0.00000      0.00000   0.00000
 O1         0.00000   0.00000      0.00000   0.00000
 H2         0.00000   0.00000      0.00000   0.00000
 C3         0.00000   0.00000      0.00000   0.00000
 H4         0.00000   0.00000      0.00000   0.00000
 H5         0.00000   0.00000      0.00000   0.00000
 H6         0.00000   0.00000      0.00000   0.00000
 BO21       0.00000   0.00000      0.00000   0.00000
 BO31       0.00000   0.00000      0.00000   0.00000
 BO43       0.00000   0.00000      0.00000   0.00000
 BO53       0.00000   0.00000      0.00000   0.00000
 BO63       0.00000   0.00000      0.00000   0.00000

   SCREENING FOR POLARIZATION WITH EXPONENTIAL FORMULA  OFF

   SCREENING FOR POLARIZATION WITH TANG-TOENNIS FORMULA   ON

    WITH COEFFICIENTS 

     MEOH    0.60

                  DIPOLE MOMENTS AND THE SECOND MOMENT TENSOR

                  X        Y        Z           XX/XY    YY/XZ    ZZ/YZ
 O1            0.59481 -0.17558 -0.37065     -4.16897 -4.61736 -3.69092
                                             -0.26067 -0.01570 -0.23202
 H2            0.00253  0.01503 -0.07357     -0.33831 -0.34821 -0.33323
                                             -0.00313 -0.00793 -0.00016
 C3           -0.23233  0.13582 -0.16209     -2.50119 -2.62762 -2.59545
                                             -0.12968  0.18706 -0.10512
 H4           -0.02367 -0.00501  0.06948     -0.48616 -0.48668 -0.49028
                                             -0.00082  0.00195 -0.00014
 H5            0.01513 -0.06605 -0.01818     -0.53291 -0.53686 -0.53295
                                              0.00102  0.00076 -0.00085
 H6            0.05955  0.03684  0.00436     -0.53618 -0.53356 -0.53299
                                             -0.00206 -0.00011 -0.00057
 BO21         -0.18547  0.01007  0.31948     -0.07627 -0.12782  0.04935
                                             -0.01098 -0.06594 -0.01197
 BO31         -0.08069  0.01844  0.07482      0.42654  0.36783  0.31744
                                             -0.04917  0.05838 -0.01976
 BO43          0.13295  0.01491 -0.33001     -0.40056 -0.43864 -0.47057
                                             -0.02277  0.00978  0.00065
 BO53         -0.05803  0.31102  0.14495     -0.31856 -0.39539 -0.29654
                                              0.04051  0.03113  0.00925
 BO63         -0.28028 -0.20377  0.03216     -0.39987 -0.29066 -0.31997
                                             -0.03105 -0.01258 -0.03273
 O1            0.38335  0.61240  0.00483     -3.71972 -4.07063 -4.68689
                                             -0.04175 -0.27960  0.13051
 H2            0.07262 -0.00263 -0.01910     -0.33320 -0.33772 -0.34883
                                              0.00758 -0.00293  0.00006
 C3            0.15283 -0.26150 -0.08337     -2.60944 -2.43946 -2.67536
                                             -0.19917 -0.05857  0.09623
 H4           -0.06922 -0.02039  0.01434     -0.49030 -0.48573 -0.48708
                                             -0.00181  0.00053  0.00069
 H5            0.02197  0.03042  0.05928     -0.53307 -0.53359 -0.53606
                                             -0.00105 -0.00084 -0.00176
 H6           -0.00610  0.04885 -0.04999     -0.53305 -0.53505 -0.53462
                                              0.00006 -0.00062  0.00245
 BO21         -0.32058 -0.17613  0.05264      0.04819 -0.07645 -0.12647
                                              0.05842 -0.03725 -0.00510
 BO31         -0.07620 -0.08130  0.00586      0.31475  0.44863  0.34844
                                             -0.05724 -0.00259  0.03264
 BO43          0.32939  0.11892 -0.06456     -0.47049 -0.39172 -0.44756
                                             -0.00721  0.00448  0.01140
 BO53         -0.16262 -0.12927 -0.27920     -0.29620 -0.34118 -0.37312
                                             -0.03165  0.01148 -0.05255
 BO63         -0.02218 -0.22150  0.26751     -0.32341 -0.37884 -0.30825
                                              0.00596 -0.03315  0.05360

                  THE THIRD MOMENT TENSOR

               XXX/XYY  YYY/YYZ  ZZZ/XZZ  XXY/YZZ  XXZ/XYZ
 O1            1.69154 -0.54399 -0.85354 -0.17748 -0.29533
               0.56235 -0.28559  0.56713 -0.18211  0.00465
 H2           -0.02522  0.03255 -0.09007  0.01116 -0.03097
              -0.00755 -0.03437 -0.01273  0.00999 -0.00051
 C3           -0.70256  0.52649 -0.61051 -0.00239 -0.12434
              -0.28956 -0.07980 -0.11766  0.13352 -0.05532
 H4           -0.03282 -0.01031  0.11232 -0.00351  0.03716
              -0.01106  0.03736 -0.01141 -0.00325  0.00023
 H5            0.02342 -0.10046 -0.02358 -0.03329 -0.00791
               0.00796 -0.00783  0.00794 -0.03326  0.00014
 H6            0.09025  0.05379  0.01010  0.01824  0.00337
               0.02999  0.00354  0.03005  0.01801  0.00010
 BO21         -0.53689  0.05559  0.88202  0.01640  0.27560
              -0.17953  0.26838 -0.21019  0.01559  0.00410
 BO31         -0.39502  0.07947  0.29229  0.09639  0.03820
              -0.11641  0.04361 -0.17559  0.03877  0.03190
 BO43          0.44712  0.01463 -1.03761  0.01861 -0.34231
               0.15180 -0.33008  0.18092  0.00477  0.00048
 BO53         -0.17370  0.95513  0.48239  0.29736  0.14198
              -0.04161  0.19601 -0.09101  0.30563 -0.01458
 BO63         -0.83636 -0.61556  0.16314 -0.23375  0.06993
              -0.31273  0.01729 -0.28035 -0.19406  0.01305
 O1            0.89270  1.75269  0.06815  0.58946  0.02253
               0.30951  0.01812  0.29699  0.58580  0.00153
 H2            0.08806 -0.03425 -0.03149 -0.01527 -0.00769
               0.03038 -0.00999  0.03344 -0.01068  0.00057
 C3            0.58356 -0.70223 -0.28648 -0.16161 -0.12411
               0.08807  0.00161  0.09825 -0.38825 -0.06970
 H4           -0.11178 -0.02714  0.02410 -0.00951  0.00794
              -0.03686  0.00797 -0.03725 -0.00920  0.00017
 H5            0.02932  0.04662  0.09016  0.01567  0.02983
               0.00988  0.03000  0.00972  0.01578  0.00011
 H6           -0.01263  0.07437 -0.07356  0.02482 -0.02462
              -0.00418 -0.02482 -0.00440  0.02493  0.00005
 BO21         -0.88656 -0.51699  0.12163 -0.20048  0.05462
              -0.27364  0.04157 -0.27369 -0.17485  0.00654
 BO31         -0.30079 -0.44651  0.00635 -0.17194  0.01587
              -0.02752 -0.04214 -0.06122 -0.09282  0.03028
 BO43          1.03805  0.40127 -0.18076  0.16707 -0.06902
               0.33995 -0.06894  0.33151  0.14558 -0.00367
 BO53         -0.53533 -0.37516 -0.85991 -0.16188 -0.26886
              -0.16738 -0.26112 -0.20611 -0.12387 -0.02364
 BO63         -0.13437 -0.64369  0.83287 -0.22125  0.26328
              -0.04972  0.27676 -0.01501 -0.26203  0.02223

                  POLARIZABLE POINTS AND THE POLARIZABILITY TENSOR

              X       Y       Z       XX/YZ    YY/YX    ZZ/ZX    XY/ZY     XZ
 CT1       3.0104 -0.1843 -0.6351   2.86954  1.50086  2.13205 -1.25113  1.50372
                                   -0.95538 -1.28969  1.67953 -1.03126
 CT2       5.3489 -0.1208  0.2958   4.85345  3.40971  2.33074  1.65354 -0.02382
                                   -0.03396  1.55583  0.15969 -0.00408
 CT3       2.5650  0.3168 -2.0442   0.98946  0.78706  3.41116 -0.12713 -0.09659
                                   -0.56419 -0.04048 -0.49210 -0.39345
 CT4       4.4557 -2.1899 -0.1576   2.50219  5.39781  2.69387 -0.70405 -0.23480
                                    1.10952 -0.67450 -0.10720  0.94533
 CT5       3.6935 -0.9731  1.6190   2.72474  2.29629  5.48755  0.02456 -1.04011
                                   -0.25952  0.03314 -1.07929 -0.24263
 CT6       1.8013 -0.1115 -1.1235   2.72122  1.48034  1.39449  0.58999  0.44297
                                   -0.19955  0.56392  0.42943 -0.14290
 CT7       2.1904  0.7898 -0.9260   1.38946  2.71851  1.48807 -0.71691  0.20980
                                    0.19499 -0.67939  0.17105  0.16094
 CT1      -4.6616 -0.4382  0.3764   2.00079  3.45730  1.04436 -1.80790 -0.63021
                                    0.87573 -1.62119 -0.59873  0.92373
 CT2      -5.5813  1.8318 -0.2069   2.33032  4.01110  4.25248 -0.21435  0.10305
                                   -1.80444 -0.04920  0.03124 -1.69636
 CT3      -3.2857 -1.0194 -0.0751   3.35208  1.01143  0.82418  0.33422 -0.63878
                                    0.08369 -0.08581 -0.70962 -0.02420
 CT4      -5.0169  1.4611  1.9905   2.82079  2.98393  4.78915  0.40665  1.02695
                                    1.26048  0.57191  1.15449  1.23725
 CT5      -6.8636  0.4599  1.0935   5.46093  2.64940  2.39827  0.92501 -0.66784
                                   -0.16019  0.88341 -0.67484 -0.17087
 CT6      -4.1850 -1.6379  0.5753   1.37019  2.39229  1.83358 -0.47347 -0.02521
                                   -0.78829 -0.50181 -0.07633 -0.76270
 CT7      -4.4308 -1.4764 -0.3818   1.51037  1.80383  2.28184 -0.07201  0.25878
                                    0.95080 -0.09921  0.30052  0.91096

                  DYNAMIC POLARIZABLE POINTS AND DYNAMIC TENSOR

              X       Y       Z       XX/YZ    YY/YX    ZZ/ZX    XY/ZY     XZ
 CT        3.0104 -0.1843 -0.6351   2.86950  1.50067  2.13165 -1.25120  1.50374
                                   -0.95532 -1.28969  1.67942 -1.03117
 CT        5.3489 -0.1208  0.2958   4.85334  3.40962  2.33082  1.65360 -0.02399
                                   -0.03394  1.55566  0.15976 -0.00415
 CT        2.5650  0.3168 -2.0442   0.98969  0.78701  3.41109 -0.12719 -0.09684
                                   -0.56408 -0.04051 -0.49245 -0.39329
 CT        4.4557 -2.1899 -0.1576   2.50215  5.39767  2.69395 -0.70408 -0.23498
                                    1.10956 -0.67442 -0.10708  0.94522
 CT        3.6935 -0.9731  1.6190   2.72452  2.29628  5.48713  0.02459 -1.03983
                                   -0.25957  0.03320 -1.07913 -0.24260
 CT        1.8013 -0.1115 -1.1235   2.72139  1.48042  1.39464  0.59003  0.44298
                                   -0.19971  0.56382  0.42925 -0.14292
 CT        2.1904  0.7898 -0.9260   1.38962  2.71854  1.48830 -0.71708  0.20988
                                    0.19506 -0.67933  0.17095  0.16100
 CT        3.0104 -0.1843 -0.6351   2.86763  1.49984  2.13060 -1.25023  1.50249
                                   -0.95461 -1.28872  1.67818 -1.03046
 CT        5.3489 -0.1208  0.2958   4.84950  3.40744  2.32978  1.65185 -0.02395
                                   -0.03409  1.55380  0.15963 -0.00420
 CT        2.5650  0.3168 -2.0442   0.98959  0.78694  3.40911 -0.12717 -0.09673
                                   -0.56370 -0.04053 -0.49215 -0.39298
 CT        4.4557 -2.1899 -0.1576   2.50094  5.39319  2.69258 -0.70342 -0.23461
                                    1.10844 -0.67359 -0.10685  0.94414
 CT        3.6935 -0.9731  1.6190   2.72312  2.29526  5.48301  0.02447 -1.03852
                                   -0.25946  0.03312 -1.07802 -0.24240
 CT        1.8013 -0.1115 -1.1235   2.71936  1.47987  1.39413  0.58966  0.44241
                                   -0.19953  0.56309  0.42876 -0.14284
 CT        2.1904  0.7898 -0.9260   1.38902  2.71658  1.48775 -0.71641  0.20956
                                    0.19498 -0.67838  0.17087  0.16088
 CT        3.0104 -0.1843 -0.6351   2.85672  1.49502  2.12450 -1.24456  1.49524
                                   -0.95047 -1.28307  1.67098 -1.02634
 CT        5.3489 -0.1208  0.2958   4.82718  3.39472  2.32366  1.64161 -0.02369
                                   -0.03494  1.54299  0.15888 -0.00449
 CT        2.5650  0.3168 -2.0442   0.98903  0.78652  3.39756 -0.12706 -0.09608
                                   -0.56144 -0.04065 -0.49044 -0.39119
 CT        4.4557 -2.1899 -0.1576   2.49390  5.36711  2.68455 -0.69962 -0.23246
                                    1.10192 -0.66881 -0.10552  0.93785
 CT        3.6935 -0.9731  1.6190   2.71495  2.28933  5.45902  0.02373 -1.03089
                                   -0.25881  0.03265 -1.07156 -0.24125
 CT        1.8013 -0.1115 -1.1235   2.70753  1.47666  1.39114  0.58747  0.43910
                                   -0.19849  0.55889  0.42592 -0.14241
 CT        2.1904  0.7898 -0.9260   1.38556  2.70521  1.48456 -0.71248  0.20770
                                    0.19448 -0.67285  0.17044  0.16018
 CT        3.0104 -0.1843 -0.6351   2.81912  1.47842  2.10332 -1.22504  1.47031
                                   -0.93617 -1.26356  1.64606 -1.01205
 CT        5.3489 -0.1208  0.2958   4.75059  3.35086  2.30248  1.60652 -0.02270
                                   -0.03772  1.50617  0.15629 -0.00549
 CT        2.5650  0.3168 -2.0442   0.98700  0.78503  3.35760 -0.12663 -0.09395
                                   -0.55359 -0.04106 -0.48447 -0.38499
 CT        4.4557 -2.1899 -0.1576   2.46951  5.27766  2.65676 -0.68653 -0.22510
                                    1.07946 -0.65259 -0.10101  0.91638
 CT        3.6935 -0.9731  1.6190   2.68667  2.26871  5.37635  0.02126 -1.00489
                                   -0.25648  0.03101 -1.04936 -0.23728
 CT        1.8013 -0.1115 -1.1235   2.66707  1.46554  1.38071  0.57992  0.42777
                                   -0.19494  0.54476  0.41619 -0.14091
 CT        2.1904  0.7898 -0.9260   1.37354  2.66630  1.47348 -0.69898  0.20137
                                    0.19283 -0.65416  0.16887  0.15782
 CT        3.0104 -0.1843 -0.6351   2.71800  1.43385  2.04514 -1.17253  1.40363
                                   -0.89755 -1.21082  1.57835 -0.97298
 CT        5.3489 -0.1208  0.2958   4.54712  3.23279  2.24457  1.51337 -0.01951
                                   -0.04411  1.41025  0.14942 -0.00822
 CT        2.5650  0.3168 -2.0442   0.98077  0.78063  3.24900 -0.12506 -0.08896
                                   -0.53197 -0.04202 -0.46795 -0.36835
 CT        4.4557 -2.1899 -0.1576   2.40297  5.04044  2.58106 -0.65154 -0.20581
                                    1.01924 -0.61092 -0.08952  0.86022
 CT        3.6935 -0.9731  1.6190   2.60964  2.21199  5.15430  0.01503 -0.93717
                                   -0.24957  0.02663 -0.99011 -0.22672
 CT        1.8013 -0.1115 -1.1235   2.56047  1.43512  1.35187  0.55968  0.39795
                                   -0.18566  0.50919  0.39060 -0.13668
 CT        2.1904  0.7898 -0.9260   1.34066  2.56381  1.44299 -0.66299  0.18494
                                    0.18881 -0.60631  0.16405  0.15202
 CT        3.0104 -0.1843 -0.6351   2.48939  1.33333  1.90735 -1.05394  1.25500
                                   -0.80963 -1.09055  1.42208 -0.88176
 CT        5.3489 -0.1208  0.2958   4.09907  2.96499  2.10816  1.30958 -0.01017
                                   -0.05368  1.20827  0.13414 -0.01447
 CT        2.5650  0.3168 -2.0442   0.96219  0.76813  2.99758 -0.11956 -0.08122
                                   -0.48064 -0.04352 -0.42827 -0.33080
 CT        4.4557 -2.1899 -0.1576   2.24750  4.52001  2.40471 -0.57391 -0.16476
                                    0.88492 -0.52570 -0.06671  0.74108
 CT        3.6935 -0.9731  1.6190   2.43029  2.07699  4.65433  0.00303 -0.79516
                                   -0.23092  0.01702 -0.85898 -0.20337
 CT        1.8013 -0.1115 -1.1235   2.32975  1.36292  1.28234  0.51392  0.33399
                                   -0.16577  0.43965  0.33549 -0.12635
 CT        2.1904  0.7898 -0.9260   1.26356  2.34144  1.37000 -0.58379  0.15067
                                    0.18115 -0.50979  0.15039  0.14120
 CT        3.0104 -0.1843 -0.6351   2.06219  1.14442  1.62893 -0.83435  0.98596
                                   -0.64454 -0.86443  1.12325 -0.70382
 CT        5.3489 -0.1208  0.2958   3.29713  2.46016  1.83051  0.95575  0.01002
                                   -0.05892  0.87691  0.10566 -0.02505
 CT        2.5650  0.3168 -2.0442   0.90767  0.73234  2.50840 -0.10285 -0.07643
                                   -0.37845 -0.04347 -0.34745 -0.26144
 CT        4.4557 -2.1899 -0.1576   1.93698  3.59564  2.05518 -0.43579 -0.09779
                                    0.64641 -0.39185 -0.03418  0.54378
 CT        3.6935 -0.9731  1.6190   2.07495  1.79981  3.73161 -0.01220 -0.56642
                                   -0.18765  0.00121 -0.62758 -0.16124
 CT        1.8013 -0.1115 -1.1235   1.92703  1.21198  1.13568  0.42747  0.22749
                                   -0.13121  0.33812  0.24111 -0.10504
 CT        2.1904  0.7898 -0.9260   1.10932  1.94872  1.21666 -0.44599  0.09564
                                    0.16812 -0.36442  0.11749  0.12663
 CT        3.0104 -0.1843 -0.6351   1.44202  0.85987  1.18398 -0.52730  0.62000
                                   -0.40980 -0.54380  0.69530 -0.44231
 CT        5.3489 -0.1208  0.2958   2.19275  1.71309  1.36545  0.51669  0.03096
                                   -0.04874  0.48495  0.06453 -0.03276
 CT        2.5650  0.3168 -2.0442   0.76836  0.63753  1.76356 -0.06748 -0.07822
                                   -0.22724 -0.03562 -0.22363 -0.16446
 CT        4.4557 -2.1899 -0.1576   1.43062  2.34428  1.49638 -0.25549 -0.02712
                                    0.34694 -0.23569 -0.00621  0.30744
 CT        3.6935 -0.9731  1.6190   1.50782  1.33735  2.43827 -0.01976 -0.30677
                                   -0.11558 -0.01311 -0.33709 -0.10249
 CT        1.8013 -0.1115 -1.1235   1.37772  0.94796  0.87947  0.29953  0.10463
                                   -0.08451  0.22990  0.12343 -0.07117
 CT        2.1904  0.7898 -0.9260   0.85616  1.40165  0.94735 -0.27120  0.03502
                                    0.14332 -0.21161  0.06207  0.11019
 CT        3.0104 -0.1843 -0.6351   0.78217  0.52276  0.66695 -0.23445  0.27747
                                   -0.18268 -0.23812  0.29419 -0.18990
 CT        5.3489 -0.1208  0.2958   1.09040  0.90311  0.77662  0.17893  0.02718
                                   -0.02538  0.18180  0.02506 -0.02461
 CT        2.5650  0.3168 -2.0442   0.51088  0.44539  0.94529 -0.02531 -0.06591
                                   -0.08691 -0.01750 -0.10156 -0.07152
 CT        4.4557 -2.1899 -0.1576   0.80432  1.13727  0.82855 -0.09953  0.00611
                                    0.11845 -0.10131  0.00324  0.11984
 CT        3.6935 -0.9731  1.6190   0.83278  0.75959  1.17430 -0.01294 -0.11545
                                   -0.04440 -0.01310 -0.11474 -0.04470
 CT        1.8013 -0.1115 -1.1235   0.78981  0.59261  0.53719  0.16318  0.02177
                                   -0.03848  0.13680  0.03236 -0.03369
 CT        2.1904  0.7898 -0.9260   0.52739  0.80981  0.58241 -0.11769 -0.00127
                                    0.09829 -0.09639  0.01131  0.08350
 CT        3.0104 -0.1843 -0.6351   0.28858  0.21928  0.25402 -0.06266  0.07547
                                   -0.04842 -0.06238  0.07418 -0.04786
 CT        5.3489 -0.1208  0.2958   0.35372  0.31217  0.28325  0.03656  0.00882
                                   -0.00727  0.04229  0.00439 -0.00899
 CT        2.5650  0.3168 -2.0442   0.21979  0.20204  0.33653 -0.00343 -0.02994
                                   -0.01772 -0.00348 -0.02970 -0.01783
 CT        4.4557 -2.1899 -0.1576   0.29008  0.36276  0.29629 -0.02137  0.00510
                                    0.02460 -0.02534  0.00152  0.02977
 CT        3.6935 -0.9731  1.6190   0.29730  0.27821  0.37035 -0.00364 -0.02881
                                   -0.00862 -0.00479 -0.02356 -0.01088
 CT        1.8013 -0.1115 -1.1235   0.31125  0.25109  0.22021  0.06144 -0.00168
                                   -0.01021  0.05878  0.00046 -0.00933
 CT        2.1904  0.7898 -0.9260   0.21901  0.32418  0.23936 -0.03185 -0.00599
                                    0.04318 -0.03002 -0.00433  0.04066
 CT        3.0104 -0.1843 -0.6351   0.05497  0.04564  0.04957 -0.00837  0.01011
                                   -0.00631 -0.00823  0.00946 -0.00603
 CT        5.3489 -0.1208  0.2958   0.05945  0.05509  0.05118  0.00413  0.00107
                                   -0.00106  0.00536  0.00017 -0.00147
 CT        2.5650  0.3168 -2.0442   0.04546  0.04301  0.06122 -0.00007 -0.00547
                                   -0.00174 -0.00027 -0.00457 -0.00212
 CT        4.4557 -2.1899 -0.1576   0.05208  0.06060  0.05304 -0.00216  0.00093
                                    0.00302 -0.00303  0.00023  0.00413
 CT        3.6935 -0.9731  1.6190   0.05321  0.05057  0.06143 -0.00045 -0.00407
                                   -0.00072 -0.00071 -0.00287 -0.00124
 CT        1.8013 -0.1115 -1.1235   0.06195  0.05238  0.04534  0.01177 -0.00100
                                   -0.00127  0.01189 -0.00087 -0.00126
 CT        2.1904  0.7898 -0.9260   0.04525  0.06542  0.04899 -0.00461 -0.00159
                                    0.00855 -0.00477 -0.00156  0.00847
 CT        3.0104 -0.1843 -0.6351   0.00209  0.00177  0.00190 -0.00028  0.00033
                                   -0.00020 -0.00027  0.00030 -0.00019
 CT        5.3489 -0.1208  0.2958   0.00210  0.00198  0.00185  0.00013  0.00003
                                   -0.00004  0.00017 -0.00000 -0.00005
 CT        2.5650  0.3168 -2.0442   0.00176  0.00167  0.00227 -0.00000 -0.00020
                                   -0.00005 -0.00001 -0.00016 -0.00006
 CT        4.4557 -2.1899 -0.1576   0.00188  0.00214  0.00191 -0.00006  0.00003
                                    0.00010 -0.00009  0.00001  0.00014
 CT        3.6935 -0.9731  1.6190   0.00191  0.00183  0.00216 -0.00001 -0.00014
                                   -0.00002 -0.00002 -0.00009 -0.00004
 CT        1.8013 -0.1115 -1.1235   0.00238  0.00205  0.00178  0.00044 -0.00004
                                   -0.00004  0.00045 -0.00004 -0.00004
 CT        2.1904  0.7898 -0.9260   0.00177  0.00252  0.00191 -0.00015 -0.00006
                                    0.00032 -0.00016 -0.00006  0.00032
 CT       -4.6616 -0.4382  0.3764   2.00040  3.45726  1.04416 -1.80776 -0.63013
                                    0.87575 -1.62119 -0.59866  0.92368
 CT       -5.5813  1.8318 -0.2069   2.33040  4.01100  4.25237 -0.21443  0.10299
                                   -1.80452 -0.04904  0.03121 -1.69618
 CT       -3.2857 -1.0194 -0.0751   3.35202  1.01166  0.82411  0.33460 -0.63871
                                    0.08367 -0.08554 -0.70959 -0.02426
 CT       -5.0169  1.4611  1.9905   2.82087  2.98387  4.78904  0.40651  1.02686
                                    1.26048  0.57209  1.15448  1.23716
 CT       -6.8636  0.4599  1.0935   5.46050  2.64917  2.39826  0.92487 -0.66775
                                   -0.16016  0.88313 -0.67480 -0.17088
 CT       -4.1850 -1.6379  0.5753   1.37033  2.39247  1.83366 -0.47329 -0.02527
                                   -0.78835 -0.50187 -0.07649 -0.76263
 CT       -4.4308 -1.4764 -0.3818   1.51060  1.80401  2.28184 -0.07190  0.25881
                                    0.95094 -0.09926  0.30060  0.91085
 CT       -4.6616 -0.4382  0.3764   1.99945  3.45494  1.04369 -1.80645 -0.62973
                                    0.87507 -1.61987 -0.59825  0.92300
 CT       -5.5813  1.8318 -0.2069   2.32934  4.00812  4.24925 -0.21425  0.10284
                                   -1.80258 -0.04905  0.03101 -1.69415
 CT       -3.2857 -1.0194 -0.0751   3.35008  1.01157  0.82399  0.33443 -0.63824
                                    0.08365 -0.08552 -0.70908 -0.02423
 CT       -5.0169  1.4611  1.9905   2.81935  2.98214  4.78522  0.40593  1.02572
                                    1.25919  0.57138  1.15332  1.23570
 CT       -6.8636  0.4599  1.0935   5.45640  2.64789  2.39711  0.92391 -0.66713
                                   -0.15990  0.88195 -0.67420 -0.17068
 CT       -4.1850 -1.6379  0.5753   1.36984  2.39076  1.83276 -0.47277 -0.02533
                                   -0.78772 -0.50126 -0.07646 -0.76165
 CT       -4.4308 -1.4764 -0.3818   1.51004  1.80295  2.28037 -0.07194  0.25861
                                    0.95003 -0.09903  0.30036  0.90967
 CT       -4.6616 -0.4382  0.3764   1.99390  3.44141  1.04093 -1.79881 -0.62739
                                    0.87106 -1.61218 -0.59591  0.91900
 CT       -5.5813  1.8318 -0.2069   2.32315  3.99134  4.23106 -0.21316  0.10195
                                   -1.79130 -0.04911  0.02983 -1.68235
 CT       -3.2857 -1.0194 -0.0751   3.33878  1.01104  0.82329  0.33343 -0.63550
                                    0.08352 -0.08539 -0.70615 -0.02407
 CT       -5.0169  1.4611  1.9905   2.81052  2.97206  4.76297  0.40261  1.01904
                                    1.25172  0.56726  1.14660  1.22720
 CT       -6.8636  0.4599  1.0935   5.43248  2.64038  2.39043  0.91830 -0.66347
                                   -0.15839  0.87510 -0.67076 -0.16949
 CT       -4.1850 -1.6379  0.5753   1.36696  2.38084  1.82753 -0.46973 -0.02566
                                   -0.78405 -0.49773 -0.07627 -0.75595
 CT       -4.4308 -1.4764 -0.3818   1.50676  1.79674  2.27182 -0.07211  0.25743
                                    0.94473 -0.09768  0.29901  0.90286
 CT       -4.6616 -0.4382  0.3764   1.97461  3.39477  1.03147 -1.77235 -0.61927
                                    0.85724 -1.58570 -0.58778  0.90519
 CT       -5.5813  1.8318 -0.2069   2.30172  3.93370  4.16852 -0.20944  0.09888
                                   -1.75264 -0.04938  0.02594 -1.64217
 CT       -3.2857 -1.0194 -0.0751   3.29970  1.00910  0.82084  0.32991 -0.62604
                                    0.08304 -0.08483 -0.69600 -0.02350
 CT       -5.0169  1.4611  1.9905   2.77998  2.93731  4.68664  0.39131  0.99623
                                    1.22609  0.55312  1.12347  1.19830
 CT       -6.8636  0.4599  1.0935   5.35010  2.61438  2.36725  0.89902 -0.65091
                                   -0.15328  0.85179 -0.65887 -0.16541
 CT       -4.1850 -1.6379  0.5753   1.35694  2.34684  1.80954 -0.45934 -0.02674
                                   -0.77147 -0.48564 -0.07564 -0.73671
 CT       -4.4308 -1.4764 -0.3818   1.49541  1.77539  2.24253 -0.07259  0.25344
                                    0.92657 -0.09310  0.29444  0.87978
 CT       -4.6616 -0.4382  0.3764   1.92158  3.26928  1.00613 -1.70035 -0.59693
                                    0.82010 -1.51480 -0.56563  0.86777
 CT       -5.5813  1.8318 -0.2069   2.24317  3.78001  4.00129 -0.19970  0.09068
                                   -1.65027 -0.05041  0.01670 -1.53757
 CT       -3.2857 -1.0194 -0.0751   3.19346  1.00302  0.81391  0.31999 -0.60045
                                    0.08143 -0.08250 -0.66834 -0.02196
 CT       -5.0169  1.4611  1.9905   2.69700  2.84364  4.48383  0.36209  0.93646
                                    1.15822  0.51570  1.06154  1.12333
 CT       -6.8636  0.4599  1.0935   5.12886  2.54331  2.30377  0.84754 -0.61742
                                   -0.14010  0.79133 -0.62691 -0.15455
 CT       -4.1850 -1.6379  0.5753   1.32919  2.25688  1.76140 -0.43203 -0.02929
                                   -0.73816 -0.45381 -0.07403 -0.68789
 CT       -4.4308 -1.4764 -0.3818   1.46423  1.71821  2.16503 -0.07301  0.24318
                                    0.87853 -0.08121  0.28286  0.82056
 CT       -4.6616 -0.4382  0.3764   1.79567  2.98532  0.94909 -1.53373 -0.54401
                                    0.73643 -1.35629 -0.51408  0.78202
 CT       -5.5813  1.8318 -0.2069   2.10560  3.43863  3.62798 -0.17859  0.07251
                                   -1.42734 -0.05386  0.00128 -1.31781
 CT       -3.2857 -1.0194 -0.0751   2.94756  0.98424  0.79610  0.29530 -0.54193
                                    0.07621 -0.07328 -0.60410 -0.01847
 CT       -5.0169  1.4611  1.9905   2.50484  2.63039  4.03699  0.30177  0.80918
                                    1.01028  0.43443  0.92384  0.96687
 CT       -6.8636  0.4599  1.0935   4.63089  2.37649  2.15424  0.73360 -0.54342
                                   -0.11322  0.66583 -0.55485 -0.13063
 CT       -4.1850 -1.6379  0.5753   1.26206  2.06050  1.65244 -0.37324 -0.03346
                                   -0.66527 -0.38539 -0.07062 -0.59081
 CT       -4.4308 -1.4764 -0.3818   1.38993  1.59015  1.99492 -0.06990  0.22214
                                    0.77425 -0.05644  0.25952  0.70013
 CT       -4.6616 -0.4382  0.3764   1.53994  2.45477  0.84083 -1.21362 -0.43848
                                    0.58213 -1.06781 -0.41388  0.61958
 CT       -5.5813  1.8318 -0.2069   1.82659  2.81637  2.94485 -0.14095  0.04103
                                   -1.04280 -0.06084 -0.01361 -0.95849
 CT       -3.2857 -1.0194 -0.0751   2.46903  0.92751  0.75187  0.24242 -0.43136
                                    0.06174 -0.04540 -0.47991 -0.01220
 CT       -5.0169  1.4611  1.9905   2.12825  2.22304  3.23651  0.20731  0.59674
                                    0.75381  0.29633  0.67990  0.71295
 CT       -6.8636  0.4599  1.0935   3.71247  2.04112  1.85278  0.53272 -0.41190
                                   -0.07261  0.46776 -0.42286 -0.08929
 CT       -4.1850 -1.6379  0.5753   1.11972  1.71323  1.44173 -0.27252 -0.03684
                                   -0.53640 -0.27050 -0.06381 -0.44628
 CT       -4.4308 -1.4764 -0.3818   1.23467  1.35331  1.68670 -0.05304  0.18821
                                    0.59502 -0.01738  0.22154  0.51458
 CT       -4.6616 -0.4382  0.3764   1.12778  1.68908  0.66901 -0.75274 -0.27918
                                    0.36746 -0.67278 -0.26569  0.38800
 CT       -5.5813  1.8318 -0.2069   1.36112  1.92943  1.98073 -0.08834  0.00597
                                   -0.56768 -0.06143 -0.01709 -0.53401
 CT       -3.2857 -1.0194 -0.0751   1.73958  0.78151  0.64835  0.15779 -0.27322
                                    0.03442  0.00336 -0.29927 -0.00525
 CT       -5.0169  1.4611  1.9905   1.53635  1.59727  2.13767  0.10501  0.33923
                                    0.42984  0.13597  0.37206  0.41103
 CT       -6.8636  0.4599  1.0935   2.42608  1.49479  1.36257  0.28196 -0.24007
                                   -0.03237  0.24976 -0.24551 -0.04065
 CT       -4.1850 -1.6379  0.5753   0.86946  1.23190  1.10379 -0.14603 -0.03381
                                   -0.36217 -0.13481 -0.04998 -0.29151
 CT       -4.4308 -1.4764 -0.3818   0.96270  1.00330  1.23915 -0.01571  0.14479
                                    0.36840  0.02176  0.16917  0.31025
 CT       -4.6616 -0.4382  0.3764   0.64240  0.89084  0.43865 -0.31876 -0.12119
                                    0.16351 -0.30100 -0.11820  0.16807
 CT       -5.5813  1.8318 -0.2069   0.77381  0.99513  1.00120 -0.03696 -0.00958
                                   -0.19959 -0.03905 -0.00986 -0.20258
 CT       -3.2857 -1.0194 -0.0751   0.93571  0.51488  0.45097  0.07273 -0.12052
                                    0.00725  0.03487 -0.12691 -0.00247
 CT       -5.0169  1.4611  1.9905   0.84299  0.87061  1.05654  0.03570  0.13235
                                    0.16251  0.03248  0.13173  0.16414
 CT       -6.8636  0.4599  1.0935   1.16925  0.83083  0.76660  0.09338 -0.09343
                                   -0.00957  0.09414 -0.09331 -0.00938
 CT       -4.1850 -1.6379  0.5753   0.53290  0.70847  0.67824 -0.04505 -0.02087
                                   -0.18974 -0.03738 -0.02759 -0.16278
 CT       -4.4308 -1.4764 -0.3818   0.59340  0.59411  0.73210  0.01753  0.09501
                                    0.16849  0.03447  0.10588  0.14785
 CT       -4.6616 -0.4382  0.3764   0.24767  0.31725  0.19695 -0.08019 -0.03046
                                    0.04381 -0.08156 -0.03069  0.04346
 CT       -5.5813  1.8318 -0.2069   0.28232  0.33291  0.33390 -0.00801 -0.00572
                                   -0.04098 -0.01157 -0.00309 -0.04696
 CT       -3.2857 -1.0194 -0.0751   0.33443  0.21947  0.20447  0.02213 -0.03166
                                   -0.00190  0.02239 -0.03162 -0.00184
 CT       -5.0169  1.4611  1.9905   0.29955  0.30531  0.34428  0.00804  0.03249
                                    0.03509  0.00310  0.02842  0.03889
 CT       -6.8636  0.4599  1.0935   0.36925  0.29730  0.27931  0.01876 -0.02124
                                   -0.00237  0.02434 -0.02030 -0.00093
 CT       -4.1850 -1.6379  0.5753   0.21918  0.27930  0.28407 -0.00508 -0.00684
                                   -0.06825 -0.00337 -0.00816 -0.06547
 CT       -4.4308 -1.4764 -0.3818   0.24443  0.23930  0.29882  0.01679  0.04254
                                    0.05134  0.01910  0.04455  0.04959
 CT       -4.6616 -0.4382  0.3764   0.04876  0.05876  0.04267 -0.01018 -0.00378
                                    0.00584 -0.01087 -0.00390  0.00566
 CT       -5.5813  1.8318 -0.2069   0.05104  0.05698  0.05770 -0.00072 -0.00112
                                   -0.00450 -0.00143 -0.00053 -0.00578
 CT       -3.2857 -1.0194 -0.0751   0.06100  0.04523  0.04346  0.00359 -0.00414
                                   -0.00071  0.00454 -0.00398 -0.00046
 CT       -5.0169  1.4611  1.9905   0.05346  0.05380  0.05845  0.00105  0.00442
                                    0.00378  0.00005  0.00354  0.00463
 CT       -6.8636  0.4599  1.0935   0.06132  0.05321  0.05067  0.00232 -0.00249
                                   -0.00040  0.00360 -0.00228 -0.00007
 CT       -4.1850 -1.6379  0.5753   0.04522  0.05576  0.05868  0.00006 -0.00096
                                   -0.01262  0.00019 -0.00101 -0.01274
 CT       -4.4308 -1.4764 -0.3818   0.05003  0.04853  0.06111  0.00403  0.00864
                                    0.00846  0.00407  0.00872  0.00862
 CT       -4.6616 -0.4382  0.3764   0.00187  0.00221  0.00167 -0.00032 -0.00012
                                    0.00019 -0.00035 -0.00013  0.00018
 CT       -5.5813  1.8318 -0.2069   0.00184  0.00202  0.00206 -0.00002 -0.00004
                                   -0.00013 -0.00004 -0.00002 -0.00018
 CT       -3.2857 -1.0194 -0.0751   0.00226  0.00175  0.00169  0.00013 -0.00013
                                   -0.00003  0.00017 -0.00013 -0.00002
 CT       -5.0169  1.4611  1.9905   0.00192  0.00193  0.00207  0.00003  0.00015
                                    0.00011 -0.00000  0.00011  0.00014
 CT       -6.8636  0.4599  1.0935   0.00216  0.00191  0.00183  0.00008 -0.00008
                                   -0.00001  0.00012 -0.00007 -0.00000
 CT       -4.1850 -1.6379  0.5753   0.00178  0.00214  0.00228  0.00001 -0.00003
                                   -0.00046  0.00001 -0.00003 -0.00047
 CT       -4.4308 -1.4764 -0.3818   0.00195  0.00188  0.00237  0.00015  0.00032
                                    0.00030  0.00015  0.00032  0.00031

                    AO EXPANSION POINTS                             LMO CENTROIDS

                X          Y          Z                         X          Y          Z

  O1          2.24379    0.25489   -1.12890       CT1         3.01041   -0.18427   -0.63514
  H2          2.74912    0.40931   -2.82925       CT2         5.34891   -0.12082    0.29580
  C3          4.15356   -0.88456    0.30854       CT3         2.56503    0.31676   -2.04418
  H4          3.46736   -1.00910    2.22891       CT4         4.45565   -2.18986   -0.15756
  H5          4.57995   -2.78066   -0.35742       CT5         3.69352   -0.97309    1.61896
  H6          5.87955    0.22961    0.30218       CT6         1.80127   -0.11150   -1.12352
  O1         -4.19778   -1.29815    0.11216       CT7         2.19036    0.78977   -0.92604
  H2         -2.50603   -0.87860   -0.25165       CT1        -4.66158   -0.43823    0.37636
  C3         -5.55769    0.85910    0.82541       CT2        -5.58135    1.83181   -0.20687
  H4         -7.47182    0.26113    1.21625       CT3        -3.28565   -1.01940   -0.07513
  H5         -4.78326    1.72178    2.52144       CT4        -5.01688    1.46114    1.99048
  H6         -5.60451    2.26107   -0.67551       CT5        -6.86360    0.45988    1.09353
                                                  CT6        -4.18496   -1.63785    0.57534
                                                  CT7        -4.43083   -1.47639   -0.38182

          ----------------
          PROPERTIES INPUT
          ----------------

     MOMENTS            FIELD           POTENTIAL          DENSITY
 IEMOM =       1   IEFLD =       0   IEPOT =       0   IEDEN =       0
 WHERE =COMASS     WHERE =NUCLEI     WHERE =NUCLEI     WHERE =NUCLEI  
 OUTPUT=BOTH       OUTPUT=BOTH       OUTPUT=BOTH       OUTPUT=BOTH    
 IEMINT=       0   IEFINT=       0                     IEDINT=       0
                                                       MORB  =       0
          EXTRAPOLATION IN EFFECT
 ORBITAL PRINTING OPTION: NPREO=     1     0     2     1

     -------------------------------
     INTEGRAL TRANSFORMATION OPTIONS
     -------------------------------
     NWORD  =            0
     CUTOFF = 1.0E-09     MPTRAN =       0
     DIRTRF =       F     AOINTS =DUP     

          ----------------------
          INTEGRAL INPUT OPTIONS
          ----------------------
 NOPK  =       1 NORDER=       0 SCHWRZ=       F

 ..... DONE SETTING UP THE RUN .....
 STEP CPU TIME =     0.18 TOTAL CPU TIME =        0.2 (    0.0 MIN)
 TOTAL WALL CLOCK TIME=        0.2 SECONDS, CPU UTILIZATION IS  94.74%

                    --------------------------------
                    SINGLE POINT ENERGY AND GRADIENT
                    --------------------------------

                 INDUCED DIPOLE    ATOMIC UNITS   DEBYE
                 --------------    ------------   -----
                     X(IND)          0.13474    0.34247
                     Y(IND)         -0.00857   -0.02178
                     Z(IND)         -0.01132   -0.02878

                 --------------------------------------
                 FRAGMENT-FRAGMENT INTERACTION ENERGIES
                 --------------------------------------

                 CHARGE-CHARGE         =  -0.0017148120
                 CHARGE-DIPOLE         =  -0.0017767644
                 CHARGE-QUADRUPOLE     =  -0.0007214631
                 CHARGE-OCTUPOLE       =   0.0000169143
                 DIPOLE-DIPOLE         =  -0.0002923918
                 DIPOLE-QUADRUPOLE     =  -0.0000610229
                 QUADRUPOLE-QUADRUPOLE =  -0.0001126139
                 OVERLAP PEN. ENERGY   =  -0.0000794416
                                         --------------
                 ELECTROSTATIC ENERGY  =  -0.0047415956
                 REPULSION ENERGY      =   0.0007697964
                 POLARIZATION ENERGY   =  -0.0003599417
                 TOTAL DISPERSION ENERGY(E6+E7+E8) =  -0.0009185913
                 E7 DISPERSION ENERGY     =   0.0000000000
                 E6 DISPERSION ENERGY     =  -0.0006889435
                 CHARGE TRANSFER ENRGY =  -0.0001313166
                 --------------------------------------
                 FINAL EFP ENERGY      =  -0.0053816487


          ----------------------------------------
          EFFECTIVE FRAGMENT ELECTROSTATIC MOMENTS
          ----------------------------------------

 FRAGMENT   1  MEOH  
          X           Y           Z (BOHR)    CHARGE
     3.201701   -0.303290   -0.468833       -0.00 (A.U.)
         DX          DY          DZ         /D/  (DEBYE)
     1.752436   -0.570505   -0.624850    1.946008

 FRAGMENT   2  MEOH  
          X           Y           Z (BOHR)    CHARGE
    -4.819811   -0.220535    0.453735       -0.00 (A.U.)
         DX          DY          DZ         /D/  (DEBYE)
     0.848418    1.659512    0.063446    1.864891

          ----------------------------
          SYSTEM ELECTROSTATIC MOMENTS
          ----------------------------

 CENTER              X           Y           Z (BOHR)    CHARGE
               -0.809055   -0.261913   -0.007549       -0.00 (A.U.)
         DX          DY          DZ         /D/  (DEBYE)
     2.600854    1.089007   -0.561404    2.874988


 COMPUTING THE NUCLEAR GRADIENT BY NUMERIC DIFFERENTIATION
1 FRAGMENT  1                    -------------------
     TRANS  1                    NUCLEAR COORDINATES
       VIB  1                    -------------------
 COORDINATES OF FRAGMENT MULTIPOLE CENTERS (BOHR)
 MULTIPOLE NAME        X              Y              Z
 ------------------------------------------------------------
 FRAGNAME=MEOH  
 O1                2.2447900943   0.2548934600  -1.1289014803
 H2                2.7501190940   0.4093050680  -2.8292547386
 C3                4.1545554546  -0.8845614408   0.3085360155
 H4                3.4683571171  -1.0090983083   2.2289130766
 H5                4.5809456943  -2.7806550424  -0.3574181407
 H6                5.8805486094   0.2296118849   0.3021784113
 FRAGNAME=MEOH  
 O1               -4.1977765355  -1.2981491192   0.1121602262
 H2               -2.5060266076  -0.8785953514  -0.2516506629
 C3               -5.5576878556   0.8590960722   0.8254078285
 H4               -7.4718198634   0.2611262257   1.2162484173
 H5               -4.7832598047   1.7217775189   2.5214374379
 H6               -5.6045078460   2.2610721109  -0.6755072472

                 INDUCED DIPOLE    ATOMIC UNITS   DEBYE
                 --------------    ------------   -----
                     X(IND)          0.13467    0.34231
                     Y(IND)         -0.00857   -0.02179
                     Z(IND)         -0.01131   -0.02876

                 --------------------------------------
                 FRAGMENT-FRAGMENT INTERACTION ENERGIES
                 --------------------------------------

                 CHARGE-CHARGE         =  -0.0017138855
                 CHARGE-DIPOLE         =  -0.0017759063
                 CHARGE-QUADRUPOLE     =  -0.0007209965
                 CHARGE-OCTUPOLE       =   0.0000169011
                 DIPOLE-DIPOLE         =  -0.0002922274
                 DIPOLE-QUADRUPOLE     =  -0.0000609447
                 QUADRUPOLE-QUADRUPOLE =  -0.0001125304
                 OVERLAP PEN. ENERGY   =  -0.0000792891
                                         --------------
                 ELECTROSTATIC ENERGY  =  -0.0047388787
                 REPULSION ENERGY      =   0.0007685112
                 POLARIZATION ENERGY   =  -0.0003595668
                 TOTAL DISPERSION ENERGY(E6+E7+E8) =  -0.0009178404
                 E7 DISPERSION ENERGY     =   0.0000000000
                 E6 DISPERSION ENERGY     =  -0.0006883803
                 CHARGE TRANSFER ENRGY =  -0.0001310787
                 --------------------------------------
                 FINAL EFP ENERGY      =  -0.0053788533


          ----------------------------------------
          EFFECTIVE FRAGMENT ELECTROSTATIC MOMENTS
          ----------------------------------------

 FRAGMENT   1  MEOH  
          X           Y           Z (BOHR)    CHARGE
     3.202701   -0.303290   -0.468833       -0.00 (A.U.)
         DX          DY          DZ         /D/  (DEBYE)
     1.752347   -0.570507   -0.624853    1.945929

 FRAGMENT   2  MEOH  
          X           Y           Z (BOHR)    CHARGE
    -4.819811   -0.220535    0.453735       -0.00 (A.U.)
         DX          DY          DZ         /D/  (DEBYE)
     0.848342    1.659510    0.063473    1.864855

          ----------------------------
          SYSTEM ELECTROSTATIC MOMENTS
          ----------------------------

 CENTER              X           Y           Z (BOHR)    CHARGE
               -0.808555   -0.261913   -0.007549       -0.00 (A.U.)
         DX          DY          DZ         /D/  (DEBYE)
     2.600689    1.089003   -0.561380    2.874832

1 FRAGMENT  1                    -------------------
     TRANS  2                    NUCLEAR COORDINATES
       VIB  1                    -------------------
 COORDINATES OF FRAGMENT MULTIPOLE CENTERS (BOHR)
 MULTIPOLE NAME        X              Y              Z
 ------------------------------------------------------------
 FRAGNAME=MEOH  
 O1                2.2437900943   0.2558934600  -1.1289014803
 H2                2.7491190940   0.4103050680  -2.8292547386
 C3                4.1535554546  -0.8835614408   0.3085360155
 H4                3.4673571171  -1.0080983083   2.2289130766
 H5                4.5799456943  -2.7796550424  -0.3574181407
 H6                5.8795486094   0.2306118849   0.3021784113
 FRAGNAME=MEOH  
 O1               -4.1977765355  -1.2981491192   0.1121602262
 H2               -2.5060266076  -0.8785953514  -0.2516506629
 C3               -5.5576878556   0.8590960722   0.8254078285
 H4               -7.4718198634   0.2611262257   1.2162484173
 H5               -4.7832598047   1.7217775189   2.5214374379
 H6               -5.6045078460   2.2610721109  -0.6755072472

                 INDUCED DIPOLE    ATOMIC UNITS   DEBYE
                 --------------    ------------   -----
                     X(IND)          0.13472    0.34244
                     Y(IND)         -0.00854   -0.02172
                     Z(IND)         -0.01132   -0.02878

                 --------------------------------------
                 FRAGMENT-FRAGMENT INTERACTION ENERGIES
                 --------------------------------------

                 CHARGE-CHARGE         =  -0.0017147691
                 CHARGE-DIPOLE         =  -0.0017763412
                 CHARGE-QUADRUPOLE     =  -0.0007214718
                 CHARGE-OCTUPOLE       =   0.0000169055
                 DIPOLE-DIPOLE         =  -0.0002922704
                 DIPOLE-QUADRUPOLE     =  -0.0000609356
                 QUADRUPOLE-QUADRUPOLE =  -0.0001127185
                 OVERLAP PEN. ENERGY   =  -0.0000794133
                                         --------------
                 ELECTROSTATIC ENERGY  =  -0.0047410144
                 REPULSION ENERGY      =   0.0007695324
                 POLARIZATION ENERGY   =  -0.0003598679
                 TOTAL DISPERSION ENERGY(E6+E7+E8) =  -0.0009185126
                 E7 DISPERSION ENERGY     =   0.0000000000
                 E6 DISPERSION ENERGY     =  -0.0006888844
                 CHARGE TRANSFER ENRGY =  -0.0001312609
                 --------------------------------------
                 FINAL EFP ENERGY      =  -0.0053811232


          ----------------------------------------
          EFFECTIVE FRAGMENT ELECTROSTATIC MOMENTS
          ----------------------------------------

 FRAGMENT   1  MEOH  
          X           Y           Z (BOHR)    CHARGE
     3.201701   -0.302290   -0.468833       -0.00 (A.U.)
         DX          DY          DZ         /D/  (DEBYE)
     1.752427   -0.570469   -0.624854    1.945990

 FRAGMENT   2  MEOH  
          X           Y           Z (BOHR)    CHARGE
    -4.819811   -0.220535    0.453735       -0.00 (A.U.)
         DX          DY          DZ         /D/  (DEBYE)
     0.848395    1.659539    0.063450    1.864905

          ----------------------------
          SYSTEM ELECTROSTATIC MOMENTS
          ----------------------------

 CENTER              X           Y           Z (BOHR)    CHARGE
               -0.809055   -0.261413   -0.007549       -0.00 (A.U.)
         DX          DY          DZ         /D/  (DEBYE)
     2.600822    1.089070   -0.561403    2.874982

1 FRAGMENT  1                    -------------------
     TRANS  3                    NUCLEAR COORDINATES
       VIB  1                    -------------------
 COORDINATES OF FRAGMENT MULTIPOLE CENTERS (BOHR)
 MULTIPOLE NAME        X              Y              Z
 ------------------------------------------------------------
 FRAGNAME=MEOH  
 O1                2.2437900943   0.2548934600  -1.1279014803
 H2                2.7491190940   0.4093050680  -2.8282547386
 C3                4.1535554546  -0.8845614408   0.3095360155
 H4                3.4673571171  -1.0090983083   2.2299130766
 H5                4.5799456943  -2.7806550424  -0.3564181407
 H6                5.8795486094   0.2296118849   0.3031784113
 FRAGNAME=MEOH  
 O1               -4.1977765355  -1.2981491192   0.1121602262
 H2               -2.5060266076  -0.8785953514  -0.2516506629
 C3               -5.5576878556   0.8590960722   0.8254078285
 H4               -7.4718198634   0.2611262257   1.2162484173
 H5               -4.7832598047   1.7217775189   2.5214374379
 H6               -5.6045078460   2.2610721109  -0.6755072472

                 INDUCED DIPOLE    ATOMIC UNITS   DEBYE
                 --------------    ------------   -----
                     X(IND)          0.13475    0.34251
                     Y(IND)         -0.00857   -0.02178
                     Z(IND)         -0.01130   -0.02872

                 --------------------------------------
                 FRAGMENT-FRAGMENT INTERACTION ENERGIES
                 --------------------------------------

                 CHARGE-CHARGE         =  -0.0017149863
                 CHARGE-DIPOLE         =  -0.0017768681
                 CHARGE-QUADRUPOLE     =  -0.0007216518
                 CHARGE-OCTUPOLE       =   0.0000169127
                 DIPOLE-DIPOLE         =  -0.0002923796
                 DIPOLE-QUADRUPOLE     =  -0.0000610065
                 QUADRUPOLE-QUADRUPOLE =  -0.0001127082
                 OVERLAP PEN. ENERGY   =  -0.0000794742
                                         --------------
                 ELECTROSTATIC ENERGY  =  -0.0047421619
                 REPULSION ENERGY      =   0.0007700701
                 POLARIZATION ENERGY   =  -0.0003600290
                 TOTAL DISPERSION ENERGY(E6+E7+E8) =  -0.0009187078
                 E7 DISPERSION ENERGY     =   0.0000000000
                 E6 DISPERSION ENERGY     =  -0.0006890309
                 CHARGE TRANSFER ENRGY =  -0.0001313701
                 --------------------------------------
                 FINAL EFP ENERGY      =  -0.0053821988


          ----------------------------------------
          EFFECTIVE FRAGMENT ELECTROSTATIC MOMENTS
          ----------------------------------------

 FRAGMENT   1  MEOH  
          X           Y           Z (BOHR)    CHARGE
     3.201701   -0.303290   -0.467833       -0.00 (A.U.)
         DX          DY          DZ         /D/  (DEBYE)
     1.752456   -0.570506   -0.624810    1.946013

 FRAGMENT   2  MEOH  
          X           Y           Z (BOHR)    CHARGE
    -4.819811   -0.220535    0.453735       -0.00 (A.U.)
         DX          DY          DZ         /D/  (DEBYE)
     0.848441    1.659511    0.063471    1.864902

          ----------------------------
          SYSTEM ELECTROSTATIC MOMENTS
          ----------------------------

 CENTER              X           Y           Z (BOHR)    CHARGE
               -0.809055   -0.261913   -0.007049       -0.00 (A.U.)
         DX          DY          DZ         /D/  (DEBYE)
     2.600898    1.089005   -0.561339    2.875013

1 FRAGMENT  1                    -------------------
       ROT  1                    NUCLEAR COORDINATES
       VIB  1                    -------------------
 COORDINATES OF FRAGMENT MULTIPOLE CENTERS (BOHR)
 MULTIPOLE NAME        X              Y              Z
 ------------------------------------------------------------
 FRAGNAME=MEOH  
 O1                2.2437900943   0.2555532489  -1.1283429668
 H2                2.7491190940   0.4116651327  -2.8285409634
 C3                4.1535554546  -0.8853385194   0.3079543555
 H4                3.4673571171  -1.0117957014   2.2282059195
 H5                4.5799456943  -2.7807652190  -0.3598955610
 H6                5.8795486094   0.2288406068   0.3027109276
 FRAGNAME=MEOH  
 O1               -4.1977765355  -1.2981491192   0.1121602262
 H2               -2.5060266076  -0.8785953514  -0.2516506629
 C3               -5.5576878556   0.8590960722   0.8254078285
 H4               -7.4718198634   0.2611262257   1.2162484173
 H5               -4.7832598047   1.7217775189   2.5214374379
 H6               -5.6045078460   2.2610721109  -0.6755072472

                 INDUCED DIPOLE    ATOMIC UNITS   DEBYE
                 --------------    ------------   -----
                     X(IND)          0.13474    0.34247
                     Y(IND)         -0.00857   -0.02179
                     Z(IND)         -0.01131   -0.02875

                 --------------------------------------
                 FRAGMENT-FRAGMENT INTERACTION ENERGIES
                 --------------------------------------

                 CHARGE-CHARGE         =  -0.0017149711
                 CHARGE-DIPOLE         =  -0.0017765679
                 CHARGE-QUADRUPOLE     =  -0.0007213554
                 CHARGE-OCTUPOLE       =   0.0000169114
                 DIPOLE-DIPOLE         =  -0.0002924181
                 DIPOLE-QUADRUPOLE     =  -0.0000610489
                 QUADRUPOLE-QUADRUPOLE =  -0.0001125505
                 OVERLAP PEN. ENERGY   =  -0.0000794312
                                         --------------
                 ELECTROSTATIC ENERGY  =  -0.0047414318
                 REPULSION ENERGY      =   0.0007697090
                 POLARIZATION ENERGY   =  -0.0003599304
                 TOTAL DISPERSION ENERGY(E6+E7+E8) =  -0.0009185901
                 E7 DISPERSION ENERGY     =   0.0000000000
                 E6 DISPERSION ENERGY     =  -0.0006889425
                 CHARGE TRANSFER ENRGY =  -0.0001313096
                 --------------------------------------
                 FINAL EFP ENERGY      =  -0.0053815529


          ----------------------------------------
          EFFECTIVE FRAGMENT ELECTROSTATIC MOMENTS
          ----------------------------------------

 FRAGMENT   1  MEOH  
          X           Y           Z (BOHR)    CHARGE
     3.201701   -0.303290   -0.468833       -0.00 (A.U.)
         DX          DY          DZ         /D/  (DEBYE)
     1.752432   -0.569881   -0.625389    1.945994

 FRAGMENT   2  MEOH  
          X           Y           Z (BOHR)    CHARGE
    -4.819811   -0.220535    0.453735       -0.00 (A.U.)
         DX          DY          DZ         /D/  (DEBYE)
     0.848422    1.659519    0.063475    1.864900

          ----------------------------
          SYSTEM ELECTROSTATIC MOMENTS
          ----------------------------

 CENTER              X           Y           Z (BOHR)    CHARGE
               -0.809055   -0.261913   -0.007549       -0.00 (A.U.)
         DX          DY          DZ         /D/  (DEBYE)
     2.600855    1.089638   -0.561913    2.875326

1 FRAGMENT  1                    -------------------
       ROT  2                    NUCLEAR COORDINATES
       VIB  1                    -------------------
 COORDINATES OF FRAGMENT MULTIPOLE CENTERS (BOHR)
 MULTIPOLE NAME        X              Y              Z
 ------------------------------------------------------------
 FRAGNAME=MEOH  
 O1                2.2431305053   0.2548934600  -1.1279432396
 H2                2.7467588993   0.4093050680  -2.8288009767
 C3                4.1543323479  -0.8845614408   0.3075837724
 H4                3.4700547303  -1.0090983083   2.2286460715
 H5                4.5800564204  -2.7806550424  -0.3587964409
 H6                5.8803182821   0.2296118849   0.2995001785
 FRAGNAME=MEOH  
 O1               -4.1977765355  -1.2981491192   0.1121602262
 H2               -2.5060266076  -0.8785953514  -0.2516506629
 C3               -5.5576878556   0.8590960722   0.8254078285
 H4               -7.4718198634   0.2611262257   1.2162484173
 H5               -4.7832598047   1.7217775189   2.5214374379
 H6               -5.6045078460   2.2610721109  -0.6755072472

                 INDUCED DIPOLE    ATOMIC UNITS   DEBYE
                 --------------    ------------   -----
                     X(IND)          0.13482    0.34268
                     Y(IND)         -0.00857   -0.02179
                     Z(IND)         -0.01129   -0.02870

                 --------------------------------------
                 FRAGMENT-FRAGMENT INTERACTION ENERGIES
                 --------------------------------------

                 CHARGE-CHARGE         =  -0.0017154715
                 CHARGE-DIPOLE         =  -0.0017773450
                 CHARGE-QUADRUPOLE     =  -0.0007222548
                 CHARGE-OCTUPOLE       =   0.0000169171
                 DIPOLE-DIPOLE         =  -0.0002922678
                 DIPOLE-QUADRUPOLE     =  -0.0000610849
                 QUADRUPOLE-QUADRUPOLE =  -0.0001130646
                 OVERLAP PEN. ENERGY   =  -0.0000795918
                                         --------------
                 ELECTROSTATIC ENERGY  =  -0.0047441633
                 REPULSION ENERGY      =   0.0007710746
                 POLARIZATION ENERGY   =  -0.0003603344
                 TOTAL DISPERSION ENERGY(E6+E7+E8) =  -0.0009189359
                 E7 DISPERSION ENERGY     =   0.0000000000
                 E6 DISPERSION ENERGY     =  -0.0006892020
                 CHARGE TRANSFER ENRGY =  -0.0001315619
                 --------------------------------------
                 FINAL EFP ENERGY      =  -0.0053839209


          ----------------------------------------
          EFFECTIVE FRAGMENT ELECTROSTATIC MOMENTS
          ----------------------------------------

 FRAGMENT   1  MEOH  
          X           Y           Z (BOHR)    CHARGE
     3.201701   -0.303290   -0.468833       -0.00 (A.U.)
         DX          DY          DZ         /D/  (DEBYE)
     1.751907   -0.570499   -0.626450    1.946044

 FRAGMENT   2  MEOH  
          X           Y           Z (BOHR)    CHARGE
    -4.819811   -0.220535    0.453735       -0.00 (A.U.)
         DX          DY          DZ         /D/  (DEBYE)
     0.848519    1.659497    0.063544    1.864927

          ----------------------------
          SYSTEM ELECTROSTATIC MOMENTS
          ----------------------------

 CENTER              X           Y           Z (BOHR)    CHARGE
               -0.809055   -0.261913   -0.007549       -0.00 (A.U.)
         DX          DY          DZ         /D/  (DEBYE)
     2.600425    1.088998   -0.562906    2.874890

1 FRAGMENT  1                    -------------------
       ROT  3                    NUCLEAR COORDINATES
       VIB  1                    -------------------
 COORDINATES OF FRAGMENT MULTIPOLE CENTERS (BOHR)
 MULTIPOLE NAME        X              Y              Z
 ------------------------------------------------------------
 FRAGNAME=MEOH  
 O1                2.2432323899   0.2539352702  -1.1289014803
 H2                2.7484067253   0.4088521300  -2.8292547386
 C3                4.1541362500  -0.8836092957   0.3085360155
 H4                3.4680627924  -1.0088322992   2.2289130766
 H5                4.5824223697  -2.7792755592  -0.3574181407
 H6                5.8790143686   0.2322894657   0.3021784113
 FRAGNAME=MEOH  
 O1               -4.1977765355  -1.2981491192   0.1121602262
 H2               -2.5060266076  -0.8785953514  -0.2516506629
 C3               -5.5576878556   0.8590960722   0.8254078285
 H4               -7.4718198634   0.2611262257   1.2162484173
 H5               -4.7832598047   1.7217775189   2.5214374379
 H6               -5.6045078460   2.2610721109  -0.6755072472

                 INDUCED DIPOLE    ATOMIC UNITS   DEBYE
                 --------------    ------------   -----
                     X(IND)          0.13480    0.34262
                     Y(IND)         -0.00859   -0.02183
                     Z(IND)         -0.01133   -0.02879

                 --------------------------------------
                 FRAGMENT-FRAGMENT INTERACTION ENERGIES
                 --------------------------------------

                 CHARGE-CHARGE         =  -0.0017148592
                 CHARGE-DIPOLE         =  -0.0017784997
                 CHARGE-QUADRUPOLE     =  -0.0007211742
                 CHARGE-OCTUPOLE       =   0.0000169480
                 DIPOLE-DIPOLE         =  -0.0002930394
                 DIPOLE-QUADRUPOLE     =  -0.0000613564
                 QUADRUPOLE-QUADRUPOLE =  -0.0001120414
                 OVERLAP PEN. ENERGY   =  -0.0000795233
                                         --------------
                 ELECTROSTATIC ENERGY  =  -0.0047435455
                 REPULSION ENERGY      =   0.0007706167
                 POLARIZATION ENERGY   =  -0.0003601854
                 TOTAL DISPERSION ENERGY(E6+E7+E8) =  -0.0009188527
                 E7 DISPERSION ENERGY     =   0.0000000000
                 E6 DISPERSION ENERGY     =  -0.0006891395
                 CHARGE TRANSFER ENRGY =  -0.0001315037
                 --------------------------------------
                 FINAL EFP ENERGY      =  -0.0053834706


          ----------------------------------------
          EFFECTIVE FRAGMENT ELECTROSTATIC MOMENTS
          ----------------------------------------

 FRAGMENT   1  MEOH  
          X           Y           Z (BOHR)    CHARGE
     3.201701   -0.303290   -0.468833       -0.00 (A.U.)
         DX          DY          DZ         /D/  (DEBYE)
     1.753036   -0.568894   -0.624844    1.946075

 FRAGMENT   2  MEOH  
          X           Y           Z (BOHR)    CHARGE
    -4.819811   -0.220535    0.453735       -0.00 (A.U.)
         DX          DY          DZ         /D/  (DEBYE)
     0.848511    1.659438    0.063432    1.864867

          ----------------------------
          SYSTEM ELECTROSTATIC MOMENTS
          ----------------------------

 CENTER              X           Y           Z (BOHR)    CHARGE
               -0.809055   -0.261913   -0.007549       -0.00 (A.U.)
         DX          DY          DZ         /D/  (DEBYE)
     2.601547    1.090544   -0.561413    2.876198

1 FRAGMENT  2                    -------------------
     TRANS  1                    NUCLEAR COORDINATES
       VIB  1                    -------------------
 COORDINATES OF FRAGMENT MULTIPOLE CENTERS (BOHR)
 MULTIPOLE NAME        X              Y              Z
 ------------------------------------------------------------
 FRAGNAME=MEOH  
 O1                2.2437900943   0.2548934600  -1.1289014803
 H2                2.7491190940   0.4093050680  -2.8292547386
 C3                4.1535554546  -0.8845614408   0.3085360155
 H4                3.4673571171  -1.0090983083   2.2289130766
 H5                4.5799456943  -2.7806550424  -0.3574181407
 H6                5.8795486094   0.2296118849   0.3021784113
 FRAGNAME=MEOH  
 O1               -4.1967765355  -1.2981491192   0.1121602262
 H2               -2.5050266076  -0.8785953514  -0.2516506629
 C3               -5.5566878556   0.8590960722   0.8254078285
 H4               -7.4708198634   0.2611262257   1.2162484173
 H5               -4.7822598047   1.7217775189   2.5214374379
 H6               -5.6035078460   2.2610721109  -0.6755072472

                 INDUCED DIPOLE    ATOMIC UNITS   DEBYE
                 --------------    ------------   -----
                     X(IND)          0.13480    0.34264
                     Y(IND)         -0.00857   -0.02178
                     Z(IND)         -0.01133   -0.02880

                 --------------------------------------
                 FRAGMENT-FRAGMENT INTERACTION ENERGIES
                 --------------------------------------

                 CHARGE-CHARGE         =  -0.0017157392
                 CHARGE-DIPOLE         =  -0.0017776231
                 CHARGE-QUADRUPOLE     =  -0.0007219300
                 CHARGE-OCTUPOLE       =   0.0000169274
                 DIPOLE-DIPOLE         =  -0.0002925564
                 DIPOLE-QUADRUPOLE     =  -0.0000611013
                 QUADRUPOLE-QUADRUPOLE =  -0.0001126975
                 OVERLAP PEN. ENERGY   =  -0.0000795945
                                         --------------
                 ELECTROSTATIC ENERGY  =  -0.0047443145
                 REPULSION ENERGY      =   0.0007710839
                 POLARIZATION ENERGY   =  -0.0003603171
                 TOTAL DISPERSION ENERGY(E6+E7+E8) =  -0.0009193429
                 E7 DISPERSION ENERGY     =   0.0000000000
                 E6 DISPERSION ENERGY     =  -0.0006895072
                 CHARGE TRANSFER ENRGY =  -0.0001315549
                 --------------------------------------
                 FINAL EFP ENERGY      =  -0.0053844455


          ----------------------------------------
          EFFECTIVE FRAGMENT ELECTROSTATIC MOMENTS
          ----------------------------------------

 FRAGMENT   1  MEOH  
[...]
       VIB  2                    -------------------
 COORDINATES OF FRAGMENT MULTIPOLE CENTERS (BOHR)
 MULTIPOLE NAME        X              Y              Z
 ------------------------------------------------------------
 FRAGNAME=MEOH  
 O1                2.2437900943   0.2548934600  -1.1289014803
 H2                2.7491190940   0.4093050680  -2.8292547386
 C3                4.1535554546  -0.8845614408   0.3085360155
 H4                3.4673571171  -1.0090983083   2.2289130766
 H5                4.5799456943  -2.7806550424  -0.3574181407
 H6                5.8795486094   0.2296118849   0.3021784113
 FRAGNAME=MEOH  
 O1               -4.1977765355  -1.2991491192   0.1121602262
 H2               -2.5060266076  -0.8795953514  -0.2516506629
 C3               -5.5576878556   0.8580960722   0.8254078285
 H4               -7.4718198634   0.2601262257   1.2162484173
 H5               -4.7832598047   1.7207775189   2.5214374379
 H6               -5.6045078460   2.2600721109  -0.6755072472

                 INDUCED DIPOLE    ATOMIC UNITS   DEBYE
                 --------------    ------------   -----
                     X(IND)          0.13472    0.34244
                     Y(IND)         -0.00854   -0.02172
                     Z(IND)         -0.01132   -0.02878

                 --------------------------------------
                 FRAGMENT-FRAGMENT INTERACTION ENERGIES
                 --------------------------------------

                 CHARGE-CHARGE         =  -0.0017147691
                 CHARGE-DIPOLE         =  -0.0017763412
                 CHARGE-QUADRUPOLE     =  -0.0007214718
                 CHARGE-OCTUPOLE       =   0.0000169055
                 DIPOLE-DIPOLE         =  -0.0002922704
                 DIPOLE-QUADRUPOLE     =  -0.0000609356
                 QUADRUPOLE-QUADRUPOLE =  -0.0001127185
                 OVERLAP PEN. ENERGY   =  -0.0000794133
                                         --------------
                 ELECTROSTATIC ENERGY  =  -0.0047410144
                 REPULSION ENERGY      =   0.0007695324
                 POLARIZATION ENERGY   =  -0.0003598679
                 TOTAL DISPERSION ENERGY(E6+E7+E8) =  -0.0009185126
                 E7 DISPERSION ENERGY     =   0.0000000000
                 E6 DISPERSION ENERGY     =  -0.0006888844
                 CHARGE TRANSFER ENRGY =  -0.0001312609
                 --------------------------------------
                 FINAL EFP ENERGY      =  -0.0053811232


          ----------------------------------------
          EFFECTIVE FRAGMENT ELECTROSTATIC MOMENTS
          ----------------------------------------

 FRAGMENT   1  MEOH  
          X           Y           Z (BOHR)    CHARGE
     3.201701   -0.303290   -0.468833       -0.00 (A.U.)
         DX          DY          DZ         /D/  (DEBYE)
     1.752427   -0.570469   -0.624854    1.945990

 FRAGMENT   2  MEOH  
          X           Y           Z (BOHR)    CHARGE
    -4.819811   -0.221535    0.453735       -0.00 (A.U.)
         DX          DY          DZ         /D/  (DEBYE)
     0.848395    1.659539    0.063450    1.864905

          ----------------------------
          SYSTEM ELECTROSTATIC MOMENTS
          ----------------------------

 CENTER              X           Y           Z (BOHR)    CHARGE
               -0.809055   -0.262413   -0.007549       -0.00 (A.U.)
         DX          DY          DZ         /D/  (DEBYE)
     2.600822    1.089070   -0.561403    2.874982

1 FRAGMENT  2                    -------------------
     TRANS  3                    NUCLEAR COORDINATES
       VIB  2                    -------------------
 COORDINATES OF FRAGMENT MULTIPOLE CENTERS (BOHR)
 MULTIPOLE NAME        X              Y              Z
 ------------------------------------------------------------
 FRAGNAME=MEOH  
 O1                2.2437900943   0.2548934600  -1.1289014803
 H2                2.7491190940   0.4093050680  -2.8292547386
 C3                4.1535554546  -0.8845614408   0.3085360155
 H4                3.4673571171  -1.0090983083   2.2289130766
 H5                4.5799456943  -2.7806550424  -0.3574181407
 H6                5.8795486094   0.2296118849   0.3021784113
 FRAGNAME=MEOH  
 O1               -4.1977765355  -1.2981491192   0.1111602262
 H2               -2.5060266076  -0.8785953514  -0.2526506629
 C3               -5.5576878556   0.8590960722   0.8244078285
 H4               -7.4718198634   0.2611262257   1.2152484173
 H5               -4.7832598047   1.7217775189   2.5204374379
 H6               -5.6045078460   2.2610721109  -0.6765072472

                 INDUCED DIPOLE    ATOMIC UNITS   DEBYE
                 --------------    ------------   -----
                     X(IND)          0.13475    0.34251
                     Y(IND)         -0.00857   -0.02178
                     Z(IND)         -0.01130   -0.02872

                 --------------------------------------
                 FRAGMENT-FRAGMENT INTERACTION ENERGIES
                 --------------------------------------

                 CHARGE-CHARGE         =  -0.0017149863
                 CHARGE-DIPOLE         =  -0.0017768681
                 CHARGE-QUADRUPOLE     =  -0.0007216518
                 CHARGE-OCTUPOLE       =   0.0000169127
                 DIPOLE-DIPOLE         =  -0.0002923796
                 DIPOLE-QUADRUPOLE     =  -0.0000610065
                 QUADRUPOLE-QUADRUPOLE =  -0.0001127082
                 OVERLAP PEN. ENERGY   =  -0.0000794742
                                         --------------
                 ELECTROSTATIC ENERGY  =  -0.0047421619
                 REPULSION ENERGY      =   0.0007700701
                 POLARIZATION ENERGY   =  -0.0003600290
                 TOTAL DISPERSION ENERGY(E6+E7+E8) =  -0.0009187078
                 E7 DISPERSION ENERGY     =   0.0000000000
                 E6 DISPERSION ENERGY     =  -0.0006890309
                 CHARGE TRANSFER ENRGY =  -0.0001313701
                 --------------------------------------
                 FINAL EFP ENERGY      =  -0.0053821988


          ----------------------------------------
          EFFECTIVE FRAGMENT ELECTROSTATIC MOMENTS
          ----------------------------------------

 FRAGMENT   1  MEOH  
          X           Y           Z (BOHR)    CHARGE
     3.201701   -0.303290   -0.468833       -0.00 (A.U.)
         DX          DY          DZ         /D/  (DEBYE)
     1.752456   -0.570506   -0.624810    1.946013

 FRAGMENT   2  MEOH  
          X           Y           Z (BOHR)    CHARGE
    -4.819811   -0.220535    0.452735       -0.00 (A.U.)
         DX          DY          DZ         /D/  (DEBYE)
     0.848441    1.659511    0.063471    1.864902

          ----------------------------
          SYSTEM ELECTROSTATIC MOMENTS
          ----------------------------

 CENTER              X           Y           Z (BOHR)    CHARGE
               -0.809055   -0.261913   -0.008049       -0.00 (A.U.)
         DX          DY          DZ         /D/  (DEBYE)
     2.600898    1.089005   -0.561339    2.875013

1 FRAGMENT  2                    -------------------
       ROT  1                    NUCLEAR COORDINATES
       VIB  2                    -------------------
 COORDINATES OF FRAGMENT MULTIPOLE CENTERS (BOHR)
 MULTIPOLE NAME        X              Y              Z
 ------------------------------------------------------------
 FRAGNAME=MEOH  
 O1                2.2437900943   0.2548934600  -1.1289014803
 H2                2.7491190940   0.4093050680  -2.8292547386
 C3                4.1535554546  -0.8845614408   0.3085360155
 H4                3.4673571171  -1.0090983083   2.2289130766
 H5                4.5799456943  -2.7806550424  -0.3574181407
 H6                5.8795486094   0.2296118849   0.3021784113
 FRAGNAME=MEOH  
 O1               -4.1977765355  -1.2984901549   0.1132380106
 H2               -2.5060266076  -0.8793004078  -0.2509922503
 C3               -5.5576878556   0.8594672053   0.8243280114
 H4               -7.4718198634   0.2618884983   1.2157663746
 H5               -4.7832598047   1.7238442500   2.5194940916
 H6               -5.6045078460   2.2599416282  -0.6779882896

                 INDUCED DIPOLE    ATOMIC UNITS   DEBYE
                 --------------    ------------   -----
                     X(IND)          0.13472    0.34244
                     Y(IND)         -0.00856   -0.02176
                     Z(IND)         -0.01130   -0.02873

                 --------------------------------------
                 FRAGMENT-FRAGMENT INTERACTION ENERGIES
                 --------------------------------------

                 CHARGE-CHARGE         =  -0.0017149170
                 CHARGE-DIPOLE         =  -0.0017761688
                 CHARGE-QUADRUPOLE     =  -0.0007213477
                 CHARGE-OCTUPOLE       =   0.0000169034
                 DIPOLE-DIPOLE         =  -0.0002923071
                 DIPOLE-QUADRUPOLE     =  -0.0000609697
                 QUADRUPOLE-QUADRUPOLE =  -0.0001126392
                 OVERLAP PEN. ENERGY   =  -0.0000794024
                                         --------------
                 ELECTROSTATIC ENERGY  =  -0.0047408486
                 REPULSION ENERGY      =   0.0007694428
                 POLARIZATION ENERGY   =  -0.0003598550
                 TOTAL DISPERSION ENERGY(E6+E7+E8) =  -0.0009185078
                 E7 DISPERSION ENERGY     =   0.0000000000
                 E6 DISPERSION ENERGY     =  -0.0006888808
                 CHARGE TRANSFER ENRGY =  -0.0001312537
                 --------------------------------------
                 FINAL EFP ENERGY      =  -0.0053810223


          ----------------------------------------
          EFFECTIVE FRAGMENT ELECTROSTATIC MOMENTS
          ----------------------------------------

 FRAGMENT   1  MEOH  
          X           Y           Z (BOHR)    CHARGE
     3.201701   -0.303290   -0.468833       -0.00 (A.U.)
         DX          DY          DZ         /D/  (DEBYE)
     1.752422   -0.570473   -0.624825    1.945977

 FRAGMENT   2  MEOH  
          X           Y           Z (BOHR)    CHARGE
    -4.819811   -0.220535    0.453735       -0.00 (A.U.)
         DX          DY          DZ         /D/  (DEBYE)
     0.848399    1.659607    0.061818    1.864912

          ----------------------------
          SYSTEM ELECTROSTATIC MOMENTS
          ----------------------------

 CENTER              X           Y           Z (BOHR)    CHARGE
               -0.809055   -0.261913   -0.007549       -0.00 (A.U.)
         DX          DY          DZ         /D/  (DEBYE)
     2.600821    1.089133   -0.563007    2.875319

1 FRAGMENT  2                    -------------------
       ROT  2                    NUCLEAR COORDINATES
       VIB  2                    -------------------
 COORDINATES OF FRAGMENT MULTIPOLE CENTERS (BOHR)
 MULTIPOLE NAME        X              Y              Z
 ------------------------------------------------------------
 FRAGNAME=MEOH  
 O1                2.2437900943   0.2548934600  -1.1289014803
 H2                2.7491190940   0.4093050680  -2.8292547386
 C3                4.1535554546  -0.8845614408   0.3085360155
 H4                3.4673571171  -1.0090983083   2.2289130766
 H5                4.5799456943  -2.7806550424  -0.3574181407
 H6                5.8795486094   0.2296118849   0.3021784113
 FRAGNAME=MEOH  
 O1               -4.1974352720  -1.2981491192   0.1127824316
 H2               -2.5053223791  -0.8785953514  -0.2493365259
 C3               -5.5580591596   0.8590960722   0.8246697661
 H4               -7.4725810509   0.2611262257   1.2135960279
 H5               -4.7853275252   1.7217775189   2.5214729555
 H6               -5.6033782117   2.2610721109  -0.6762913790

                 INDUCED DIPOLE    ATOMIC UNITS   DEBYE
                 --------------    ------------   -----
                     X(IND)          0.13475    0.34251
                     Y(IND)         -0.00856   -0.02177
                     Z(IND)         -0.01137   -0.02891

                 --------------------------------------
                 FRAGMENT-FRAGMENT INTERACTION ENERGIES
                 --------------------------------------

                 CHARGE-CHARGE         =  -0.0017149233
                 CHARGE-DIPOLE         =  -0.0017773054
                 CHARGE-QUADRUPOLE     =  -0.0007211680
                 CHARGE-OCTUPOLE       =   0.0000169413
                 DIPOLE-DIPOLE         =  -0.0002925176
                 DIPOLE-QUADRUPOLE     =  -0.0000612883
                 QUADRUPOLE-QUADRUPOLE =  -0.0001123853
                 OVERLAP PEN. ENERGY   =  -0.0000794715
                                         --------------
                 ELECTROSTATIC ENERGY  =  -0.0047421180
                 REPULSION ENERGY      =   0.0007700632
                 POLARIZATION ENERGY   =  -0.0003599789
                 TOTAL DISPERSION ENERGY(E6+E7+E8) =  -0.0009186934
                 E7 DISPERSION ENERGY     =   0.0000000000
                 E6 DISPERSION ENERGY     =  -0.0006890200
                 CHARGE TRANSFER ENRGY =  -0.0001313515
                 --------------------------------------
                 FINAL EFP ENERGY      =  -0.0053820786


          ----------------------------------------
          EFFECTIVE FRAGMENT ELECTROSTATIC MOMENTS
          ----------------------------------------

 FRAGMENT   1  MEOH  
          X           Y           Z (BOHR)    CHARGE
     3.201701   -0.303290   -0.468833       -0.00 (A.U.)
         DX          DY          DZ         /D/  (DEBYE)
     1.752453   -0.570488   -0.625020    1.946072

 FRAGMENT   2  MEOH  
          X           Y           Z (BOHR)    CHARGE
    -4.819811   -0.220535    0.453735       -0.00 (A.U.)
         DX          DY          DZ         /D/  (DEBYE)
     0.848339    1.659507    0.064167    1.864876

          ----------------------------
          SYSTEM ELECTROSTATIC MOMENTS
          ----------------------------

 CENTER              X           Y           Z (BOHR)    CHARGE
               -0.809055   -0.261913   -0.007549       -0.00 (A.U.)
         DX          DY          DZ         /D/  (DEBYE)
     2.600792    1.089019   -0.560853    2.874829

1 FRAGMENT  2                    -------------------
       ROT  3                    NUCLEAR COORDINATES
       VIB  2                    -------------------
 COORDINATES OF FRAGMENT MULTIPOLE CENTERS (BOHR)
 MULTIPOLE NAME        X              Y              Z
 ------------------------------------------------------------
 FRAGNAME=MEOH  
 O1                2.2437900943   0.2548934600  -1.1289014803
 H2                2.7491190940   0.4093050680  -2.8292547386
 C3                4.1535554546  -0.8845614408   0.3085360155
 H4                3.4673571171  -1.0090983083   2.2289130766
 H5                4.5799456943  -2.7806550424  -0.3574181407
 H6                5.8795486094   0.2296118849   0.3021784113
 FRAGNAME=MEOH  
 O1               -4.1988544602  -1.2987706150   0.1121602262
 H2               -2.5066858244  -0.8809088067  -0.2516506629
 C3               -5.5566078554   0.8598334088   0.8254078285
 H4               -7.4713368759   0.2637779930   1.2162484173
 H5               -4.7813175104   1.7217399963   2.5214374379
 H6               -5.6020258466   2.2618555666  -0.6755072472

                 INDUCED DIPOLE    ATOMIC UNITS   DEBYE
                 --------------    ------------   -----
                     X(IND)          0.13468    0.34233
                     Y(IND)         -0.00852   -0.02166
                     Z(IND)         -0.01132   -0.02878

                 --------------------------------------
                 FRAGMENT-FRAGMENT INTERACTION ENERGIES
                 --------------------------------------

                 CHARGE-CHARGE         =  -0.0017144369
                 CHARGE-DIPOLE         =  -0.0017750346
                 CHARGE-QUADRUPOLE     =  -0.0007212042
                 CHARGE-OCTUPOLE       =   0.0000168760
                 DIPOLE-DIPOLE         =  -0.0002920526
                 DIPOLE-QUADRUPOLE     =  -0.0000606488
                 QUADRUPOLE-QUADRUPOLE =  -0.0001128737
                 OVERLAP PEN. ENERGY   =  -0.0000792832
                                         --------------
                 ELECTROSTATIC ENERGY  =  -0.0047386580
                 REPULSION ENERGY      =   0.0007683933
                 POLARIZATION ENERGY   =  -0.0003595620
                 TOTAL DISPERSION ENERGY(E6+E7+E8) =  -0.0009181596
                 E7 DISPERSION ENERGY     =   0.0000000000
                 E6 DISPERSION ENERGY     =  -0.0006886197
                 CHARGE TRANSFER ENRGY =  -0.0001310369
                 --------------------------------------
                 FINAL EFP ENERGY      =  -0.0053790233


          ----------------------------------------
          EFFECTIVE FRAGMENT ELECTROSTATIC MOMENTS
          ----------------------------------------

 FRAGMENT   1  MEOH  
          X           Y           Z (BOHR)    CHARGE
     3.201701   -0.303290   -0.468833       -0.00 (A.U.)
         DX          DY          DZ         /D/  (DEBYE)
     1.752383   -0.570360   -0.624875    1.945925

 FRAGMENT   2  MEOH  
          X           Y           Z (BOHR)    CHARGE
    -4.819811   -0.220535    0.453735       -0.00 (A.U.)
         DX          DY          DZ         /D/  (DEBYE)
     0.849981    1.658807    0.063470    1.864976

          ----------------------------
          SYSTEM ELECTROSTATIC MOMENTS
          ----------------------------

 CENTER              X           Y           Z (BOHR)    CHARGE
               -0.809055   -0.261913   -0.007549       -0.00 (A.U.)
         DX          DY          DZ         /D/  (DEBYE)
     2.602363    1.088447   -0.561404    2.876141


                         ----------------------
                         GRADIENT OF THE ENERGY
                         ----------------------

 UNITS ARE HARTREE/BOHR    E'X               E'Y               E'Z 
      TOTAL QM TRANS.  0.000000000       0.000000000       0.000000000
      TOTAL QM TORQUE  0.000000000       0.000000000       0.000000000
  EFP           TRANS GRADIENT                           TORQUE
    1   0.0027961  0.0005252 -0.0005506     0.0000958 -0.0022779 -0.0018247
    2  -0.0027961 -0.0005252  0.0005506    -0.0006259  0.0004409 -0.0026194

                   MAXIMUM GRADIENT =    0.002796081
                       RMS GRADIENT =    0.001652491
  $VIB   
          IVIB=   0 IATOM=   0 ICOORD=   0 E=       -0.0053816487
 2.796080568E-03 5.251720556E-04-5.505906900E-04
 9.582145522E-05-2.277889729E-03-1.824680127E-03
-2.796080569E-03-5.251720556E-04 5.505906900E-04
-6.258923377E-04 4.408979495E-04-2.619374198E-03
  0.000000000E+00 0.000000000E+00 0.000000000E+00

..... END OF SINGLE POINT GRADIENT .....
 STEP CPU TIME =     2.82 TOTAL CPU TIME =        3.0 (    0.1 MIN)
 TOTAL WALL CLOCK TIME=        3.0 SECONDS, CPU UTILIZATION IS  99.34%
               180830  WORDS OF DYNAMIC MEMORY USED
 EXECUTION OF GAMESS TERMINATED NORMALLY Wed Aug  9 20:33:59 2017
 DDI: 263640 bytes (0.3 MB / 0 MWords) used by master data server.

 ----------------------------------------
 CPU timing information for all processes
 ========================================
 0: 2.987 + 0.20 = 3.08
 ----------------------------------------
 ddikick.x: exited gracefully.
unset echo
----- accounting info -----
Files used on the master node compute-1-1.local were:
-rw-rw-r-- 1 sarom sarom 195K Aug  9 20:33 /scratch/efp2-fo-numgrd.F05
-rw-rw-r-- 1 sarom sarom    0 Aug  9 20:33 /scratch/efp2-fo-numgrd.F08
-rw-rw-r-- 1 sarom sarom 288K Aug  9 20:34 /scratch/efp2-fo-numgrd.F10
-rw-rw-r-- 1 sarom sarom    0 Aug  9 20:33 /scratch/efp2-fo-numgrd.F25
rm: cannot remove `/scratch/tmp': Is a directory
ls: No match.
ls: No match.
ls: No match.
Wed Aug  9 20:34:02 CDT 2017
0.265u 0.141s 0:06.50 6.1%	0+0k 0+752io 0pf+0w
/opt/gridengine/default/spool/compute-1-1/active_jobs/35881.1/pe_hostfile compute-1-1.local
