-catch_rsh /opt/gridengine/default/spool/compute-0-6/active_jobs/35884.1/pe_hostfile
compute-0-6
The primary node assigned by SGE to this run is compute-0-6
Warning: no access to tty (Bad file descriptor).
Thus no job control in this shell.
source /home/sarom/dir.git.branch.saromleang-travis-ci/install.info
setenv GMS_PATH /home/sarom/dir.git.branch.saromleang-travis-ci
setenv GMS_BUILD_DIR /home/sarom/dir.git.branch.saromleang-travis-ci
setenv GMS_TARGET linux64
setenv GMS_FORTRAN gfortran
setenv GMS_GFORTRAN_VERNO 4.4
setenv GMS_MATHLIB mkl-so
setenv GMS_MATHLIB none
setenv GMS_MATHLIB_PATH /share/apps/intel/compilers_and_libraries_2017.1.132/linux/mkl/lib/intel64
setenv GMS_MKL_VERNO 12
setenv GMS_DDI_COMM sockets
setenv GMS_LIBCCHEM false
setenv GMS_EIGEN_PATH
setenv GMS_PHI false
setenv GMS_SHMTYPE sysv
setenv GMS_OPENMP false
unset echo
h2o-opt-numgrd
/home/sarom/dir.git.branch.saromleang-travis-ci/tests/numdiff/parallel
----- GAMESS execution script 'rungms' -----
This job is running on host compute-0-6.local
under operating system Linux at Wed Aug 9 20:34:11 CDT 2017
Available scratch disk space (Kbyte units) at beginning of the job is
Filesystem           1K-blocks      Used Available Use% Mounted on
/dev/sda1             16126920   3962040  11345680  26% /
GAMESS temporary binary files will be written to /scratch
GAMESS supplementary output files will be written to /home/sarom/restart
Copying input file h2o-opt-numgrd.inp to your run's scratch directory...
cp /home/sarom/dir.git.branch.saromleang-travis-ci/tests/numdiff/parallel/h2o-opt-numgrd.inp /scratch/h2o-opt-numgrd.F05
unset echo
The generated host list is
compute-0-6.local
/home/sarom/dir.git.branch.saromleang-travis-ci/ddikick.x /home/sarom/dir.git.branch.saromleang-travis-ci/gamess.00.x h2o-opt-numgrd -ddi 1 1 compute-0-6.local -scr /scratch

 Distributed Data Interface kickoff program.
 Initiating 1 compute processes on 1 nodes to run the following command:
 /home/sarom/dir.git.branch.saromleang-travis-ci/gamess.00.x h2o-opt-numgrd 

          ******************************************************
          *         GAMESS VERSION = 20 APR 2017 (R1)          *
          *             FROM IOWA STATE UNIVERSITY             *
          * M.W.SCHMIDT, K.K.BALDRIDGE, J.A.BOATZ, S.T.ELBERT, *
          *   M.S.GORDON, J.H.JENSEN, S.KOSEKI, N.MATSUNAGA,   *
          *          K.A.NGUYEN, S.J.SU, T.L.WINDUS,           *
          *       TOGETHER WITH M.DUPUIS, J.A.MONTGOMERY       *
          *         J.COMPUT.CHEM.  14, 1347-1363(1993)        *
          **************** 64 BIT LINUX VERSION ****************

  SINCE 1993, STUDENTS AND POSTDOCS WORKING AT IOWA STATE UNIVERSITY
  AND ALSO IN THEIR VARIOUS JOBS AFTER LEAVING ISU HAVE MADE IMPORTANT
  CONTRIBUTIONS TO THE CODE:
     IVANA ADAMOVIC, CHRISTINE AIKENS, YURI ALEXEEV, POOJA ARORA,
     ANDREY ASADCHEV, ROB BELL, PRADIPTA BANDYOPADHYAY, JONATHAN BENTZ,
     BRETT BODE, KURT BRORSEN, CALEB CARLIN, GALINA CHABAN, WEI CHEN,
     CHEOL HO CHOI, PAUL DAY, ALBERT DEFUSCO, NUWAN DESILVA, TIM DUDLEY,
     DMITRI FEDOROV, GRAHAM FLETCHER, MARK FREITAG, KURT GLAESEMANN,
     DAN KEMP, GRANT MERRILL, NORIYUKI MINEZAWA, JONATHAN MULLIN,
     TAKESHI NAGATA, SEAN NEDD, HEATHER NETZLOFF, BOSILJKA NJEGIC, RYAN OLSON,
     MIKE PAK, SPENCER PRUITT, LUKE ROSKOP, JIM SHOEMAKER, LYUDMILA SLIPCHENKO,
     TONY SMITH, SAROM SOK LEANG, JIE SONG, TETSUYA TAKETSUGU, SIMON WEBB,
     PENG XU, SOOHAENG YOO, FEDERICO ZAHARIEV

  ADDITIONAL CODE HAS BEEN PROVIDED BY COLLABORATORS IN OTHER GROUPS:
     IOWA STATE UNIVERSITY:
          JOE IVANIC, AARON WEST, LAIMUTIS BYTAUTAS, KLAUS RUEDENBERG
     UNIVERSITY OF TOKYO: KIMIHIKO HIRAO, TAKAHITO NAKAJIMA,
          TAKAO TSUNEDA, MUNEAKI KAMIYA, SUSUMU YANAGISAWA,
          KIYOSHI YAGI, MAHITO CHIBA, SEIKEN TOKURA, NAOAKI KAWAKAMI
     UNIVERSITY OF AARHUS: FRANK JENSEN
     UNIVERSITY OF IOWA: VISVALDAS KAIRYS, HUI LI
     NATIONAL INST. OF STANDARDS AND TECHNOLOGY: WALT STEVENS, DAVID GARMER
     UNIVERSITY OF PISA: BENEDETTA MENNUCCI, JACOPO TOMASI
     UNIVERSITY OF MEMPHIS: HENRY KURTZ, PRAKASHAN KORAMBATH
     UNIVERSITY OF ALBERTA: TOBY ZENG, MARIUSZ KLOBUKOWSKI
     UNIVERSITY OF NEW ENGLAND: MARK SPACKMAN
     MIE UNIVERSITY: HIROAKI UMEDA
     NAT. INST. OF ADVANCED INDUSTRIAL SCIENCE AND TECHNOLOGY: KAZUO KITAURA
     MICHIGAN STATE UNIVERSITY:
          KAROL KOWALSKI, MARTA WLOCH, JEFFREY GOUR, JESSE LUTZ,
          WEI LI, PIOTR PIECUCH
     UNIVERSITY OF SILESIA: MONIKA MUSIAL, STANISLAW KUCHARSKI
     FACULTES UNIVERSITAIRES NOTRE-DAME DE LA PAIX:
          OLIVIER QUINET, BENOIT CHAMPAGNE
     UNIVERSITY OF CALIFORNIA - SANTA BARBARA: BERNARD KIRTMAN
     INSTITUTE FOR MOLECULAR SCIENCE:
          KAZUYA ISHIMURA, MICHIO KATOUDA, AND SHIGERU NAGASE
     UNIVERSITY OF NOTRE DAME: ANNA POMOGAEVA, DAN CHIPMAN
     KYUSHU UNIVERSITY:
          HARUYUKI NAKANO,
          FENG LONG GU, JACEK KORCHOWIEC, MARCIN MAKOWSKI, AND YURIKO AOKI,
          HIROTOSHI MORI AND EISAKU MIYOSHI
     PENNSYLVANIA STATE UNIVERSITY:
          TZVETELIN IORDANOV, CHET SWALINA, JONATHAN SKONE,
          SHARON HAMMES-SCHIFFER
     WASEDA UNIVERSITY:
          MASATO KOBAYASHI, TOMOKO AKAMA, TSUGUKI TOUMA,
          TAKESHI YOSHIKAWA, YASUHIRO IKABATA, JUNJI SEINO,
          YUYA NAKAJIMA, HIROMI NAKAI
     NANJING UNIVERSITY: SHUHUA LI
     UNIVERSITY OF NEBRASKA:
          PEIFENG SU, DEJUN SI, NANDUN THELLAMUREGE, YALI WANG, HUI LI
     UNIVERSITY OF ZURICH: ROBERTO PEVERATI, KIM BALDRIDGE
     N. COPERNICUS UNIVERSITY AND JACKSON STATE UNIVERSITY:
          MARIA BARYSZ
     UNIVERSITY OF COPENHAGEN: Jimmy Kromann, CASPER STEINMANN
     TOKYO INSTITUTE OF TECHNOLOGY: HIROYA NAKATA
     NAGOYA UNIVERSITY: YOSHIO NISHIMOTO, STEPHAN IRLE
     MOSCOW STATE UNIVERSITY: VLADIMIR MIRONOV

 EXECUTION OF GAMESS BEGUN Wed Aug  9 20:34:11 2017

            ECHO OF THE FIRST FEW INPUT CARDS -
 INPUT CARD>!    water.  parallel CCSD(T) numerical gradient (w/spherical harmonics).       
 INPUT CARD>!                                                                               
 INPUT CARD>!    CCSD(T) will optimize in the following way,                                
 INPUT CARD>!        NSERCH:   0  E=      -76.2048294586  R.M.S.=  0.0057418                
 INPUT CARD>!        NSERCH:   1  E=      -76.2049676778  R.M.S.=  0.0021506                
 INPUT CARD>!        NSERCH:   2  E=      -76.2049685023  R.M.S.=  0.0011832                
 INPUT CARD>!        NSERCH:   3  E=      -76.2050025809  R.M.S.=  0.0002375                
 INPUT CARD>!        NSERCH:   4  E=      -76.2050028724  R.M.S.=  0.0000385                
 INPUT CARD>!        NSERCH:   5  E=      -76.2050028818  R.M.S.=  0.0000002                
 INPUT CARD>!                                                                               
 INPUT CARD>!   this run takes 1 second on 2.66 GHz Cloverton (15 Apr 2015)                 
 INPUT CARD>!   results have not changed much since November 2006                           
 INPUT CARD>!                                                                               
 INPUT CARD>!    -----------------------------------------------------------------          
 INPUT CARD>!    it is good to run this as CCSD and CCSD(T) and as serial or parallel       
 INPUT CARD>!    the run is very fast so the parallel job ought to be run just p=1.         
 INPUT CARD>!                                                                               
 INPUT CARD>!    SCF energy is -76.0088976950.                                              
 INPUT CARD>!    Serial or parallel CCSD= -76.2030759547  CCSD(T)= -76.2048294586           
 INPUT CARD>!    Very small differences in CC energies at displaced geometries              
 INPUT CARD>!    due to the parallel code not restarting with previous amplitudes           
 INPUT CARD>!    leads to the small differences in gradient:                                
 INPUT CARD>!       RMS   serial CCSD= 0.004981391   CCSD(T)= 0.005741820                   
 INPUT CARD>!       RMS parallel CCSD= 0.004981351   CCSD(T)= 0.005741775                   
 INPUT CARD>!                                                                               
 INPUT CARD> $contrl scftyp=rhf cctyp=ccsd(t) runtyp=optimize ispher=1 numgrd=.true. $end   
 INPUT CARD> $system parall=.true. mwords=1 memddi=1 $end                                   
 INPUT CARD> $basis  gbasis=n31 ngauss=6 ndfunc=1 $end                                      
 INPUT CARD> $data                                                                          
 INPUT CARD>water CC gradient test                                                          
 INPUT CARD>Cnv 2                                                                           
 INPUT CARD>                                                                                
 INPUT CARD>O           8.0    .0000000000    .0000000000   -.0615544042                    
 INPUT CARD>H           1.0    .7574776761    .0000000000    .5307772021                    
 INPUT CARD> $end                                                                           
    1000000 WORDS OF MEMORY AVAILABLE

     BASIS OPTIONS
     -------------
     GBASIS=N31          IGAUSS=       6      POLAR=POPN31  
     NDFUNC=       1     NFFUNC=       0     DIFFSP=       F
     NPFUNC=       0      DIFFS=       F     BASNAM=        


     RUN TITLE
     ---------
 water CC gradient test                                                          

 THE POINT GROUP OF THE MOLECULE IS CNV     
 THE ORDER OF THE PRINCIPAL AXIS IS     2

 ATOM      ATOMIC                      COORDINATES (BOHR)
           CHARGE         X                   Y                   Z
 O           8.0     0.0000000000        0.0000000000       -0.1163209573
 H           1.0    -1.4314252496        0.0000000000        1.0030234725
 H           1.0     1.4314252496        0.0000000000        1.0030234725

          INTERNUCLEAR DISTANCES (ANGS.)
          ------------------------------

                1 O          2 H          3 H     

   1 O       0.0000000    0.9615764 *  0.9615764 *
   2 H       0.9615764 *  0.0000000    1.5149554 *
   3 H       0.9615764 *  1.5149554 *  0.0000000  

  * ... LESS THAN  3.000


     ATOMIC BASIS SET
     ----------------
 THE CONTRACTED PRIMITIVE FUNCTIONS HAVE BEEN UNNORMALIZED
 THE CONTRACTED BASIS FUNCTIONS ARE NOW NORMALIZED TO UNITY

  SHELL TYPE  PRIMITIVE        EXPONENT          CONTRACTION COEFFICIENT(S)

 O         

      1   S       1          5484.6716600    0.001831074430
      1   S       2           825.2349460    0.013950172200
      1   S       3           188.0469580    0.068445078098
      1   S       4            52.9645000    0.232714335992
      1   S       5            16.8975704    0.470192897984
      1   S       6             5.7996353    0.358520852987

      2   L       7            15.5396162   -0.110777549525    0.070874268231
      2   L       8             3.5999336   -0.148026262701    0.339752839147
      2   L       9             1.0137618    1.130767015354    0.727158577316

      3   L      10             0.2700058    1.000000000000    1.000000000000

      4   D      11             0.8000000    1.000000000000

 H         

      7   S      12            18.7311370    0.033494604338
      7   S      13             2.8253944    0.234726953484
      7   S      14             0.6401217    0.813757326146

      8   S      15             0.1612778    1.000000000000

 TOTAL NUMBER OF BASIS SET SHELLS             =    8
 NUMBER OF CARTESIAN GAUSSIAN BASIS FUNCTIONS =   19
 NOTE: THIS RUN WILL RESTRICT THE MO VARIATION SPACE TO SPHERICAL HARMONICS.
 THE NUMBER OF ORBITALS KEPT IN THE VARIATIONAL SPACE WILL BE PRINTED LATER.
 NUMBER OF ELECTRONS                          =   10
 CHARGE OF MOLECULE                           =    0
 SPIN MULTIPLICITY                            =    1
 NUMBER OF OCCUPIED ORBITALS (ALPHA)          =    5
 NUMBER OF OCCUPIED ORBITALS (BETA )          =    5
 TOTAL NUMBER OF ATOMS                        =    3
 THE NUCLEAR REPULSION ENERGY IS        9.1544642731

     $CONTRL OPTIONS
     ---------------
 SCFTYP=RHF          RUNTYP=OPTIMIZE     EXETYP=RUN     
 MPLEVL=       0     CITYP =NONE         CCTYP =CCSD(T)      VBTYP =NONE    
 DFTTYP=NONE         TDDFT =NONE    
 MULT  =       1     ICHARG=       0     NZVAR =       0     COORD =UNIQUE  
 PP    =NONE         RELWFN=NONE         LOCAL =NONE         NUMGRD=       T
 ISPHER=       1     NOSYM =       0     MAXIT =      30     UNITS =ANGS    
 PLTORB=       F     MOLPLT=       F     AIMPAC=       F     FRIEND=        
 NPRINT=       7     IREST =       0     GEOM  =INPUT   
 NORMF =       0     NORMP =       0     ITOL  =      20     ICUT  =       9
 INTTYP=BEST         GRDTYP=BEST         QMTTOL= 1.0E-06

     $SYSTEM OPTIONS
     ---------------
  REPLICATED MEMORY=     1000000 WORDS (ON EVERY NODE).
 DISTRIBUTED MEMDDI=           1 MILLION WORDS IN AGGREGATE,
 MEMDDI DISTRIBUTED OVER   1 PROCESSORS IS     1000000 WORDS/PROCESSOR.
 TOTAL MEMORY REQUESTED ON EACH PROCESSOR=     2000000 WORDS.
 TIMLIM=      525600.00 MINUTES, OR     365.0 DAYS.
 PARALL= T  BALTYP=  DLB     KDIAG=    0  COREFL= F
 MXSEQ2=     300 MXSEQ3=     150  mem10=         0

          ----------------
          PROPERTIES INPUT
          ----------------

     MOMENTS            FIELD           POTENTIAL          DENSITY
 IEMOM =       1   IEFLD =       0   IEPOT =       0   IEDEN =       0
 WHERE =COMASS     WHERE =NUCLEI     WHERE =NUCLEI     WHERE =NUCLEI  
 OUTPUT=BOTH       OUTPUT=BOTH       OUTPUT=BOTH       OUTPUT=BOTH    
 IEMINT=       0   IEFINT=       0                     IEDINT=       0
                                                       MORB  =       0
          EXTRAPOLATION IN EFFECT
          SOSCF IN EFFECT
 ORBITAL PRINTING OPTION: NPREO=     1    19     2     1

     -------------------------------
     INTEGRAL TRANSFORMATION OPTIONS
     -------------------------------
     NWORD  =            0
     CUTOFF = 1.0E-09     MPTRAN =       0
     DIRTRF =       F     AOINTS =DUP     

          ----------------------
          INTEGRAL INPUT OPTIONS
          ----------------------
 NOPK  =       1 NORDER=       0 SCHWRZ=       F

     ------------------------------------------
     THE POINT GROUP IS CNV, NAXIS= 2, ORDER= 4
     ------------------------------------------

 -- VARIATIONAL SPACE WILL BE RESTRICTED TO PURE SPHERICAL HARMONICS ONLY --
 AFTER EXCLUDING CONTAMINANT COMBINATIONS FROM THE CARTESIAN GAUSSIAN BASIS
 SET, THE NUMBER OF SPHERICAL HARMONICS KEPT IN THE VARIATION SPACE IS   18

     DIMENSIONS OF THE SYMMETRY SUBSPACES ARE
 A1  =    9     A2  =    1     B1  =    5     B2  =    3

 ..... DONE SETTING UP THE RUN .....
 CPU     0: STEP CPU TIME=     0.02 TOTAL CPU TIME=        0.0 (    0.0 MIN)
 TOTAL WALL CLOCK TIME=        0.0 SECONDS, CPU UTILIZATION IS  66.67%


          -----------------------------
          STATIONARY POINT LOCATION RUN
          -----------------------------

 OBTAINING INITIAL HESSIAN, HESS=GUESS   
 CARTESIAN COORDINATE OPTIMIZATION USING BADGER'S RULE FORCE CONSTANT GUESS

          PARAMETERS CONTROLLING GEOMETRY SEARCH ARE
          METHOD =QA                  UPHESS =BFGS    
          NNEG   =         0          NFRZ   =         0
          NSTEP  =        50          IFOLOW =         1
          HESS   =GUESS               RESTAR =         F
          IHREP  =         0          HSSEND =         F
          NPRT   =         0          NPUN   =         0
          OPTTOL = 1.000E-04          RMIN   = 1.500E-03
          RMAX   = 1.000E-01          RLIM   = 7.000E-02
          DXMAX  = 3.000E-01          PURIFY =         F
          MOVIE  =         F          TRUPD  =         T
          TRMAX  = 5.000E-01          TRMIN  = 5.000E-02
          ITBMAT =         5          STPT   =         F
          STSTEP = 1.000E-02          PROJCT=          T

 BEGINNING GEOMETRY SEARCH POINT NSERCH=   0 ...

 COORDINATES OF SYMMETRY UNIQUE ATOMS (ANGS)
   ATOM   CHARGE       X              Y              Z
 ------------------------------------------------------------
 O           8.0   0.0000000000   0.0000000000  -0.0615544042
 H           1.0   0.7574776761   0.0000000000   0.5307772021
 COORDINATES OF ALL ATOMS ARE (ANGS)
   ATOM   CHARGE       X              Y              Z
 ------------------------------------------------------------
 O           8.0   0.0000000000   0.0000000000  -0.0615544042
 H           1.0  -0.7574776761   0.0000000000   0.5307772021
 H           1.0   0.7574776761   0.0000000000   0.5307772021

          ********************
          1 ELECTRON INTEGRALS
          ********************
 ...... END OF ONE-ELECTRON INTEGRALS ......
 STEP CPU TIME =     0.00 TOTAL CPU TIME =        0.0 (    0.0 MIN)
 TOTAL WALL CLOCK TIME=        0.0 SECONDS, CPU UTILIZATION IS  66.67%

          -------------
          GUESS OPTIONS
          -------------
          GUESS =HUCKEL            NORB  =       0          NORDER=       0
          MIX   =       F          PRTMO =       F          PUNMO =       F
          TOLZ  = 1.0E-08          TOLE  = 1.0E-05
          SYMDEN=       F          PURIFY=       F

 INITIAL GUESS ORBITALS GENERATED BY HUCKEL   ROUTINE.
 HUCKEL GUESS REQUIRES      5056 WORDS.

 STATISTICS FOR GENERATION OF SYMMETRY ORBITAL -Q- MATRIX
 NUMBER OF CARTESIAN ATOMIC ORBITALS=         19
 NUMBER OF SPHERICAL CONTAMINANTS DROPPED=     1
 NUMBER OF LINEARLY DEPENDENT MOS DROPPED=     0
 TOTAL NUMBER OF MOS IN VARIATION SPACE=      18

 SYMMETRIES FOR INITIAL GUESS ORBITALS FOLLOW.   BOTH SET(S).
     5 ORBITALS ARE OCCUPIED (    1 CORE ORBITALS).
     2=A1       3=B1       4=A1       5=B2       6=B1       7=A1       8=A1  
     9=A1      10=A1      11=A1      12=A1      13=A2      14=B1      15=B1  
 ...... END OF INITIAL ORBITAL SELECTION ......
 STEP CPU TIME =     0.00 TOTAL CPU TIME =        0.0 (    0.0 MIN)
 TOTAL WALL CLOCK TIME=        0.0 SECONDS, CPU UTILIZATION IS  66.67%

                    ----------------------
                    AO INTEGRAL TECHNOLOGY
                    ----------------------
     S,P,L SHELL ROTATED AXIS INTEGRALS, REPROGRAMMED BY
        KAZUYA ISHIMURA (IMS) AND JOSE SIERRA (SYNSTAR).
     S,P,D,L SHELL ROTATED AXIS INTEGRALS PROGRAMMED BY
        KAZUYA ISHIMURA (INSTITUTE FOR MOLECULAR SCIENCE).
     S,P,D,F,G SHELL TO TOTAL QUARTET ANGULAR MOMENTUM SUM 5,
        ERIC PROGRAM BY GRAHAM FLETCHER (ELORET AND NASA ADVANCED
        SUPERCOMPUTING DIVISION, AMES RESEARCH CENTER).
     S,P,D,F,G,L SHELL GENERAL RYS QUADRATURE PROGRAMMED BY
        MICHEL DUPUIS (PACIFIC NORTHWEST NATIONAL LABORATORY).

          --------------------
          2 ELECTRON INTEGRALS
          --------------------

 THE -PK- OPTION IS OFF, THE INTEGRALS ARE NOT IN SUPERMATRIX FORM.
 STORING   15000 INTEGRALS/RECORD ON DISK, USING 12 BYTES/INTEGRAL.
 TWO ELECTRON INTEGRAL EVALUATION REQUIRES   90432 WORDS OF MEMORY.
 II,JST,KST,LST =  1  1  1  1 NREC =         1 INTLOC =    1
 II,JST,KST,LST =  2  1  1  1 NREC =         1 INTLOC =    2
 II,JST,KST,LST =  3  1  1  1 NREC =         1 INTLOC =   34
 II,JST,KST,LST =  4  1  1  1 NREC =         1 INTLOC =  214
 II,JST,KST,LST =  5  1  1  1 NREC =         1 INTLOC = 1189
 II,JST,KST,LST =  6  1  1  1 NREC =         1 INTLOC = 1189
 II,JST,KST,LST =  7  1  1  1 NREC =         1 INTLOC = 1189
 II,JST,KST,LST =  8  1  1  1 NREC =         1 INTLOC = 2528
 TOTAL NUMBER OF NONZERO TWO-ELECTRON INTEGRALS =                4469
          1 INTEGRAL RECORDS WERE STORED ON DISK FILE  8.
  ...... END OF TWO-ELECTRON INTEGRALS .....
 STEP CPU TIME =     0.02 TOTAL CPU TIME =        0.0 (    0.0 MIN)
 TOTAL WALL CLOCK TIME=        0.0 SECONDS, CPU UTILIZATION IS  80.00%

          --------------------------
                 RHF SCF CALCULATION
          --------------------------

     NUCLEAR ENERGY =         9.1544642731
     MAXIT =   30     NPUNCH=    2
     EXTRAP=T  DAMP=F  SHIFT=F  RSTRCT=F  DIIS=F  DEM=F  SOSCF=T
     DENSITY MATRIX CONV=  1.00E-06
     SOSCF WILL OPTIMIZE      65 ORBITAL ROTATIONS, SOGTOL=   0.250
     MEMORY REQUIRED FOR RHF ITERS=     33053 WORDS.

 ITER EX DEM     TOTAL ENERGY        E CHANGE  DENSITY CHANGE     ORB. GRAD
   1  0  0      -75.7692329576   -75.7692329576   0.280928483   0.000000000
          ---------------START SECOND ORDER SCF---------------
   2  1  0      -75.9964362762    -0.2272033186   0.059434746   0.050027491
   3  2  0      -76.0078207920    -0.0113845158   0.020169219   0.012313788
   4  3  0      -76.0088740653    -0.0010532732   0.002677505   0.001477834
   5  4  0      -76.0088938538    -0.0000197885   0.001419622   0.000641178
   6  5  0      -76.0088976596    -0.0000038058   0.000225702   0.000148436
   7  6  0      -76.0088976871    -0.0000000276   0.000059916   0.000053101
   8  7  0      -76.0088976947    -0.0000000075   0.000012257   0.000006277
   9  8  0      -76.0088976949    -0.0000000003   0.000004377   0.000002212
  10  9  0      -76.0088976950    -0.0000000000   0.000000622   0.000000327
  11 10  0      -76.0088976950    -0.0000000000   0.000000080   0.000000044

 RHF HAS CONVERGED, NOW COMPUTING EXACT TOTAL FOCK MATRIX
 FOR USE DURING THE COUPLED CLUSTER CALCULATION THAT FOLLOWS.

          -----------------
          DENSITY CONVERGED
          -----------------
     TIME TO FORM FOCK OPERATORS=       0.0 SECONDS (       0.0 SEC/ITER)
     TIME TO SOLVE SCF EQUATIONS=       0.0 SECONDS (       0.0 SEC/ITER)

 FINAL RHF ENERGY IS      -76.0088976950 AFTER  11 ITERATIONS

          ------------
          EIGENVECTORS
          ------------

                      1          2          3          4          5
                  -20.5560    -1.3396    -0.7033    -0.5713    -0.4975
                     A1         A1         B1         A1         B2  
    1  O  1  S    0.995793  -0.214018  -0.000000   0.070318   0.000000
    2  O  1  S    0.021955   0.468660  -0.000000  -0.171874   0.000000
    3  O  1  X   -0.000000  -0.000000   0.506774  -0.000000   0.000000
    4  O  1  Y   -0.000000  -0.000000  -0.000000  -0.000000   0.639344
    5  O  1  Z    0.001636   0.091574  -0.000000   0.553720   0.000000
    6  O  1  S   -0.008098   0.494213  -0.000000  -0.282874   0.000000
    7  O  1  X   -0.000000  -0.000000   0.308250  -0.000000   0.000000
    8  O  1  Y   -0.000000  -0.000000  -0.000000  -0.000000   0.511765
    9  O  1  Z   -0.001830   0.057243  -0.000000   0.407460   0.000000
   10  O  1 XX   -0.000237   0.010839  -0.000000  -0.011472   0.000000
   11  O  1 YY    0.000266  -0.017037  -0.000000  -0.023527   0.000000
   12  O  1 ZZ   -0.000030   0.006198  -0.000000   0.034999   0.000000
   13  O  1 XY   -0.000000  -0.000000  -0.000000  -0.000000   0.000000
   14  O  1 XZ   -0.000000  -0.000000   0.051337  -0.000000   0.000000
   15  O  1 YZ   -0.000000  -0.000000  -0.000000  -0.000000   0.033874
   16  H  2  S    0.000280   0.130024  -0.230282   0.142004   0.000000
   17  H  2  S    0.001918  -0.008008  -0.112297   0.077993   0.000000
   18  H  3  S    0.000280   0.130024   0.230282   0.142004   0.000000
   19  H  3  S    0.001918  -0.008008   0.112297   0.077993   0.000000

                      6          7          8          9         10
                    0.2136     0.3033     1.0180     1.1618     1.1681
                     A1         B1         B1         A1         B2  
    1  O  1  S   -0.085900   0.000000   0.000000   0.065532   0.000000
    2  O  1  S    0.101797   0.000000   0.000000  -0.319580   0.000000
    3  O  1  X   -0.000000   0.330880   0.098592   0.000000   0.000000
    4  O  1  Y   -0.000000   0.000000   0.000000   0.000000  -0.962928
    5  O  1  Z    0.220227   0.000000   0.000000  -0.343434   0.000000
    6  O  1  S    1.188431   0.000000   0.000000   0.109432   0.000000
    7  O  1  X   -0.000000   0.830399   0.640828   0.000000   0.000000
    8  O  1  Y   -0.000000   0.000000   0.000000   0.000000   1.035893
    9  O  1  Z    0.489934   0.000000   0.000000  -0.204450   0.000000
   10  O  1 XX    0.000505   0.000000   0.000000   0.201886   0.000000
   11  O  1 YY   -0.014138   0.000000   0.000000  -0.184629   0.000000
   12  O  1 ZZ    0.013633   0.000000   0.000000  -0.017257   0.000000
   13  O  1 XY   -0.000000   0.000000   0.000000   0.000000   0.000000
   14  O  1 XZ   -0.000000   0.022163  -0.197602   0.000000   0.000000
   15  O  1 YZ   -0.000000   0.000000   0.000000   0.000000   0.014805
   16  H  2  S   -0.056520   0.051678   0.838457   0.879253   0.000000
   17  H  2  S   -0.996313   1.386645  -0.477542  -0.480621   0.000000
   18  H  3  S   -0.056520  -0.051678  -0.838457   0.879253   0.000000
   19  H  3  S   -0.996313  -1.386645   0.477542  -0.480621   0.000000

                     11         12         13         14         15
                    1.1983     1.3793     1.6603     2.0199     2.0350
                     A1         B1         A1         A1         A2  
    1  O  1  S   -0.044526   0.000000   0.064950  -0.000715   0.000000
    2  O  1  S    0.356342   0.000000  -1.602351   0.116244   0.000000
    3  O  1  X   -0.000000  -1.036140   0.000000   0.000000   0.000000
    4  O  1  Y   -0.000000   0.000000   0.000000   0.000000   0.000000
    5  O  1  Z   -0.912169   0.000000  -0.244730   0.007103   0.000000
    6  O  1  S   -0.086477   0.000000   2.503210  -0.227773   0.000000
    7  O  1  X   -0.000000   1.534123   0.000000   0.000000   0.000000
    8  O  1  Y   -0.000000   0.000000   0.000000   0.000000   0.000000
    9  O  1  Z    1.142399   0.000000   0.720764  -0.134922   0.000000
   10  O  1 XX   -0.046220   0.000000  -0.240766  -0.602152   0.000000
   11  O  1 YY    0.024189   0.000000   0.196089  -0.384551   0.000000
   12  O  1 ZZ    0.022031   0.000000   0.044677   0.986703   0.000000
   13  O  1 XY   -0.000000   0.000000   0.000000   0.000000   1.000000
   14  O  1 XZ   -0.000000   0.015516   0.000000   0.000000   0.000000
   15  O  1 YZ   -0.000000   0.000000   0.000000   0.000000   0.000000
   16  H  2  S   -0.149885  -0.094428  -0.208447   0.077543   0.000000
   17  H  2  S   -0.116096   0.905696  -0.637241   0.043120   0.000000
   18  H  3  S   -0.149885   0.094428  -0.208447   0.077543   0.000000
   19  H  3  S   -0.116096  -0.905696  -0.637241   0.043120   0.000000

                     16         17         18
                    2.0677     2.6250     2.9387
                     B2         A1         B1  
    1  O  1  S   -0.000000  -0.019810  -0.000000
    2  O  1  S   -0.000000  -0.570675  -0.000000
    3  O  1  X   -0.000000   0.000000  -0.022241
    4  O  1  Y   -0.007406   0.000000  -0.000000
    5  O  1  Z   -0.000000  -0.046143  -0.000000
    6  O  1  S   -0.000000   1.372210  -0.000000
    7  O  1  X   -0.000000   0.000000   0.849942
    8  O  1  Y   -0.032694   0.000000  -0.000000
    9  O  1  Z   -0.000000   0.731752  -0.000000
   10  O  1 XX   -0.000000   0.847008  -0.000000
   11  O  1 YY   -0.000000  -1.010900  -0.000000
   12  O  1 ZZ   -0.000000   0.163892  -0.000000
   13  O  1 XY   -0.000000   0.000000  -0.000000
   14  O  1 XZ   -0.000000   0.000000   1.279690
   15  O  1 YZ    0.999316   0.000000  -0.000000
   16  H  2  S   -0.000000  -0.846410   0.942840
   17  H  2  S   -0.000000  -0.121987  -0.043920
   18  H  3  S   -0.000000  -0.846410  -0.942840
   19  H  3  S   -0.000000  -0.121987   0.043920
 ...... END OF RHF CALCULATION ......
 STEP CPU TIME =     0.01 TOTAL CPU TIME =        0.0 (    0.0 MIN)
 TOTAL WALL CLOCK TIME=        0.0 SECONDS, CPU UTILIZATION IS 100.00%

     ----------------------------------------------------------------
     PROPERTY VALUES FOR THE RHF   SELF-CONSISTENT FIELD WAVEFUNCTION
     ----------------------------------------------------------------

          ---------------------------------------
          MULLIKEN AND LOWDIN POPULATION ANALYSES
          ---------------------------------------

               ----- POPULATIONS IN EACH AO -----
                             MULLIKEN      LOWDIN
              1  O  1  S      1.99774     1.97869
              2  O  1  S      0.89478     0.71358
              3  O  1  X      0.80176     0.74312
              4  O  1  Y      1.14571     1.12591
              5  O  1  Z      0.94066     0.89837
              6  O  1  S      1.00159     0.49337
              7  O  1  X      0.52969     0.59041
              8  O  1  Y      0.85200     0.87180
              9  O  1  Z      0.70116     0.73968
             10  O  1 XX      0.00320     0.19955
             11  O  1 YY      0.00325     0.16704
             12  O  1 ZZ      0.00000     0.17728
             13  O  1 XY      0.02207     0.00000
             14  O  1 XZ      0.00229     0.02774
             15  O  1 YZ      0.00000     0.00229
             16  H  2  S      0.46169     0.42964
             17  H  2  S      0.09036     0.20594
             18  H  3  S      0.46169     0.42964
             19  H  3  S      0.09036     0.20594

          ----- MULLIKEN ATOMIC OVERLAP POPULATIONS -----
          (OFF-DIAGONAL ELEMENTS NEED TO BE MULTIPLIED BY 2)

             1           2           3

    1    8.3712315
    2    0.2623363   0.3122419
    3    0.2623363  -0.0225302   0.3122419

          TOTAL MULLIKEN AND LOWDIN ATOMIC POPULATIONS
       ATOM         MULL.POP.    CHARGE          LOW.POP.     CHARGE
    1 O             8.895904   -0.895904         8.728838   -0.728838
    2 H             0.552048    0.447952         0.635581    0.364419
    3 H             0.552048    0.447952         0.635581    0.364419

          MULLIKEN SPHERICAL HARMONIC POPULATIONS
       ATOM           S       P       D      F      G      H      I    TOTAL
    1 O             3.89    4.97    0.03   0.00   0.00   0.00   0.00    8.90
    2 H             0.55    0.00    0.00   0.00   0.00   0.00   0.00    0.55
    3 H             0.55    0.00    0.00   0.00   0.00   0.00   0.00    0.55

          -------------------------------
          BOND ORDER AND VALENCE ANALYSIS     BOND ORDER THRESHOLD=0.050
          -------------------------------

                   BOND                       BOND                       BOND
  ATOM PAIR DIST  ORDER      ATOM PAIR DIST  ORDER      ATOM PAIR DIST  ORDER
    1   2  0.962  0.770        1   3  0.962  0.770

                       TOTAL       BONDED        FREE
      ATOM            VALENCE     VALENCE     VALENCE
    1 O                 1.541       1.541       0.000
    2 H                 0.766       0.766      -0.000
    3 H                 0.766       0.766      -0.000

          ---------------------
          ELECTROSTATIC MOMENTS
          ---------------------

 POINT   1           X           Y           Z (BOHR)    CHARGE
                 0.000000    0.000000    0.008950        0.00 (A.U.)
         DX          DY          DZ         /D/  (DEBYE)
     0.000000    0.000000    2.232321    2.232321
 ...... END OF PROPERTY EVALUATION ......
 STEP CPU TIME =     0.00 TOTAL CPU TIME =        0.0 (    0.0 MIN)
 TOTAL WALL CLOCK TIME=        0.0 SECONDS, CPU UTILIZATION IS 100.00%

     ---------------------------
     COUPLED CLUSTER CALCULATION
     ---------------------------
 CCTYP                        =CCSD(T) 
 TOTAL NUMBER OF MOS          =    18
 NUMBER OF OCCUPIED MOS       =     5
 NUMBER OF FROZEN CORE MOS    =     1
 NUMBER OF FROZEN VIRTUAL MOS =     0
 MAXIMUM CC ITERATIONS        =    30
 MAXIMUM DIIS ITERATIONS      =     5
 CONVERGENCE CRITERION FOR CC =     7
 AMPLITUDE ACCURACY THRESHOLD = 0.0E+00

     --------------------------------------------
     PARTIAL TWO ELECTRON INTEGRAL TRANSFORMATION
     --------------------------------------------

 NUMBER OF CORE MOLECULAR ORBITALS     =    1
 NUMBER OF OCCUPIED MOLECULAR ORBITALS =   18
 TOTAL NUMBER OF MOLECULAR ORBITALS    =   18
 TOTAL NUMBER OF ATOMIC ORBITALS       =   19
 THRESHOLD FOR KEEPING TRANSFORMED 2E- INTEGRALS = 1.000E-09
 AO INTEGRALS WILL BE READ IN FROM DISK...
 EVALUATING THE FROZEN CORE ENERGY...
 ----- FROZEN CORE ENERGY =       -61.3023403559

 PLAN A: REQUIREMENTS FOR FULLY IN-MEMORY TRANSFORMATION:
 # OF WORDS AVAILABLE =               999964
 # OF WORDS NEEDED    =               123215

 CHOOSING IN MEMORY PARTIAL TRANSFORMATION...
 TOTAL NUMBER OF TRANSFORMED 2E- INTEGRALS KEPT =         3368
 ... END OF INTEGRAL TRANSFORMATION ...
 STEP CPU TIME =     0.00 TOTAL CPU TIME =        0.0 (    0.0 MIN)
 TOTAL WALL CLOCK TIME=        0.0 SECONDS, CPU UTILIZATION IS 100.00%

   -----------------------
   COUPLED-CLUSTER PROGRAM
   -----------------------

   -------------------------------------------------------
   P.PIECUCH, S.A.KUCHARSKI, M.WLOCH, K.KOWALSKI, M.MUSIAL
   -------------------------------------------------------

 *****************************************************************
 THE FOLLOWING PAPERS SHOULD BE CITED WHEN USING COUPLED-CLUSTER
 OPTIONS:

 CCTYP = LCCD, CCD, CCSD, CCSD(T)
 P. PIECUCH, S.A. KUCHARSKI, K. KOWALSKI, AND M. MUSIAL,
 COMP. PHYS. COMMUN. 149, 71-96 (2002).

 CCTYP = R-CC, CR-CC, CCSD(TQ), CR-CC(Q)
 P. PIECUCH, S.A. KUCHARSKI, K. KOWALSKI, AND M. MUSIAL,
 COMP. PHYS. COMMUN. 149, 71-96 (2002);
 K. KOWALSKI AND P. PIECUCH, J. CHEM. PHYS. 113, 18-35 (2000);
 K. KOWALSKI AND P. PIECUCH, J. CHEM. PHYS. 113, 5644-5652 (2000).

 CCTYP = EOM-CCSD, CR-EOM
 P. PIECUCH, S.A. KUCHARSKI, K. KOWALSKI, AND M. MUSIAL,
 COMP. PHYS. COMMUN. 149, 71-96 (2002);
 K. KOWALSKI AND P. PIECUCH, J. CHEM. PHYS. 120, 1715-1738 (2004);
 M. WLOCH, J.R. GOUR, K. KOWALSKI, AND P. PIECUCH,
 J. CHEM. PHYS. 122, 214107-1 - 214107-15 (2005).

 CCTYP = CR-CCL
 P. PIECUCH, S.A. KUCHARSKI, K. KOWALSKI, AND M. MUSIAL,
 COMP. PHYS. COMMUN. 149, 71-96 (2002);
 P. PIECUCH AND M. WLOCH, J. CHEM. PHYS. 123,
 224105-1 - 224105-10 (2005).

 CCTYP = CR-EOML
 P. PIECUCH, S.A. KUCHARSKI, K. KOWALSKI, AND M. MUSIAL,
 COMP. PHYS. COMMUN. 149, 71-96 (2002);
 P. PIECUCH, J. R. GOUR, AND M. WLOCH,
 INT. J. QUANTUM CHEM. 109, 3268-3304 (2009);
 K. KOWALSKI AND P. PIECUCH,
 J. CHEM. PHYS. 120, 1715-1738 (2004).

 IN ADDITION, THE USE OF CCPRP=.TRUE. IN $CCINP AND/OR THE USE
 OF CCPRPE=.TRUE. IN $EOMINP SHOULD REFERENCE

 M. WLOCH, J.R. GOUR, K. KOWALSKI, AND P. PIECUCH,
 J. CHEM. PHYS. 122, 214107-1 - 214107-15 (2005).
 *****************************************************************


 THE FOLLOWING CALCULATIONS WILL BE PERFORMED:
                                                     CCSD   
                                                     CCSD[T]
                                                     CCSD(T)

 THE FOLLOWING ENERGY WILL BE CONSIDERED THE HIGHEST LEVEL:    CCSD(T)
 THE AVAILABLE REPLICATED MEMORY IS      999964 WORDS.
 CONVERGENCE THRESHOLD:   1.0E-07
 MAXIMUM NUMBER OF ITERATIONS:   30

 MEMORY TO BE USED IN CC INTEGRAL SORTING IS       60758 WORDS.
 THE MINIMUM MEMORY TO ACCOMPLISH SORTING IS       40985 WORDS.
         3368 NON-ZERO TRANSFORMED 2E- INTEGRALS WERE SORTED INTO FILE 72:
           22 [IJ|KL] TYPE,         150 [AJ|KL] TYPE,
          273 [AB|IJ] TYPE,         393 [IA|BJ] TYPE,
         1308 [AB|CI] TYPE,        1222 [AB|CD] TYPE.
 TRANSFORMED INTEGRAL FILE  9 WAS READ    3 TIMES.
 ....... DONE WITH CC INTEGRAL PREPARATION .......
 STEP CPU TIME =     0.00 TOTAL CPU TIME =        0.0 (    0.0 MIN)
 TOTAL WALL CLOCK TIME=        0.1 SECONDS, CPU UTILIZATION IS  83.33%

 MEMORY REQUIRED FOR THE CCSD ITERATIONS IS       23230 WORDS.
 ITER:  1   CCSD    CORR. ENERGY:  -0.1898787046   CONV.: -3.4617E-03
 ITER:  2   CCSD    CORR. ENERGY:  -0.1924653150   CONV.: -1.6893E-03
 ITER:  3   CCSD    CORR. ENERGY:  -0.1934312901   CONV.: -3.2092E-04
 ITER:  4   CCSD    CORR. ENERGY:  -0.1935574529   CONV.:  5.4909E-03
 ITER:  5   CCSD    CORR. ENERGY:  -0.1935594825   CONV.:  5.4710E-03
 ITER:  6   CCSD    CORR. ENERGY:  -0.1936546430   CONV.: -4.6849E-03
 ITER:  7   CCSD    CORR. ENERGY:  -0.1939734805   CONV.: -1.9660E-03
 ITER:  8   CCSD    CORR. ENERGY:  -0.1941729486   CONV.: -1.1440E-04
 ITER:  9   CCSD    CORR. ENERGY:  -0.1941770837   CONV.: -3.6252E-06
 ITER: 10   CCSD    CORR. ENERGY:  -0.1941779173   CONV.: -1.0021E-06
 ITER: 11   CCSD    CORR. ENERGY:  -0.1941781852   CONV.: -2.0627E-07
 ITER: 12   CCSD    CORR. ENERGY:  -0.1941782535   CONV.: -7.6624E-08
 ITER: 13   CCSD    CORR. ENERGY:  -0.1941782597   CONV.: -7.6624E-08

     THE    CCSD     ITERATIONS HAVE CONVERGED

    MBPT(2) CORRELATION ENERGY:  -0.1849482784
    CCSD    CORRELATION ENERGY:  -0.1941782597

 T1 DIAGNOSTIC        =     0.00571574
 NORM OF THE T1 VECTOR=     0.01616657
 NORM OF THE T2 VECTOR=     0.21557759

 THE FIVE LARGEST T1 AMPLITUDES ARE:
 T1 AMPLITUDE IS -0.008338 FOR I=   4 -> A=   6
 T1 AMPLITUDE IS  0.007214 FOR I=   3 -> A=  12
 T1 AMPLITUDE IS  0.006766 FOR I=   5 -> A=  10
 T1 AMPLITUDE IS -0.004882 FOR I=   2 -> A=  11
 T1 AMPLITUDE IS  0.004674 FOR I=   3 -> A=   7

 THE FIVE LARGEST SPIN-UNIQUE T2 AMPLITUDES ARE:
 T2 AMPLITUDE IS -0.052382 FOR I,J=   5   5 -> A,B=  10  10
 T2 AMPLITUDE IS -0.044255 FOR I,J=   4   4 -> A,B=  11  11
 T2 AMPLITUDE IS -0.039394 FOR I,J=   3   3 -> A,B=   7   7
 T2 AMPLITUDE IS -0.033005 FOR I,J=   4   5 -> A,B=  11  10
 T2 AMPLITUDE IS -0.028066 FOR I,J=   3   3 -> A,B=  12  12
 PRINTED T2(I-ALPHA,J-BETA -> A-ALPHA,B-BETA) VALUES
 EQUAL   T2(J-ALPHA,I-BETA -> B-ALPHA,A-BETA) AMPLITUDES.

 ....... DONE WITH CC AMPLITUDE ITERATIONS .......
 STEP CPU TIME =     0.03 TOTAL CPU TIME =        0.1 (    0.0 MIN)
 TOTAL WALL CLOCK TIME=        0.1 SECONDS, CPU UTILIZATION IS  88.89%

 MEMORY REQUIRED FOR NONITERATIVE TRIPLES (T3WT2  ) IS        19526 WORDS.

                      SUMMARY OF RESULTS

      REFERENCE ENERGY:      -76.0088976950
        MBPT(2) ENERGY:      -76.1938459734   CORR.E=  -0.1849482784
        CCSD    ENERGY:      -76.2030759547   CORR.E=  -0.1941782597
        CCSD[T] ENERGY:      -76.2049158883   CORR.E=  -0.1960181934
        CCSD(T) ENERGY:      -76.2048294586   CORR.E=  -0.1959317636

 THE FOLLOWING METHOD AND ENERGY WILL BE CONSIDERED THE HIGHEST LEVEL RESULT:
 COUPLED-CLUSTER ENERGY E(   CCSD(T)) =      -76.2048294586

 ..... DONE WITH CC NON-ITERATIVE TRIPLES CORRECTIONS .....
 STEP CPU TIME =     0.00 TOTAL CPU TIME =        0.1 (    0.0 MIN)
 TOTAL WALL CLOCK TIME=        0.1 SECONDS, CPU UTILIZATION IS  88.89%
 DDI: Creating Array [0] - 2 x 4 = 8 words.

 COMPUTING THE NUCLEAR GRADIENT BY NUMERIC DIFFERENTIATION
 PROJECTION FINDS   2 TOTALLY SYMMETRIC MODES OUT OF 3N=     9
 SO     4 SINGLE POINT ENERGIES MUST BE COMPUTED TO GET A GRADIENT.

 -------------------------------
 WORKING ON IMODE=   1 IVIB=1...
 -------------------------------

 COORDINATES OF ALL ATOMS ARE (ANGS)
   ATOM   CHARGE       X              Y              Z
 ------------------------------------------------------------
 O           8.0   0.0000000000   0.0000000000  -0.0658751183
 H           1.0  -0.7574776761   0.0000000000   0.5329375592
 H           1.0   0.7574776761   0.0000000000   0.5329375592
 ...... END OF ONE-ELECTRON INTEGRALS ......
 STEP CPU TIME =     0.00 TOTAL CPU TIME =        0.1 (    0.0 MIN)
 TOTAL WALL CLOCK TIME=        0.1 SECONDS, CPU UTILIZATION IS  88.89%
 TOTAL NUMBER OF NONZERO TWO-ELECTRON INTEGRALS =                4469
          1 INTEGRAL RECORDS WERE STORED ON DISK FILE  8.
  ...... END OF TWO-ELECTRON INTEGRALS .....
 STEP CPU TIME =     0.00 TOTAL CPU TIME =        0.1 (    0.0 MIN)
 TOTAL WALL CLOCK TIME=        0.1 SECONDS, CPU UTILIZATION IS  88.89%

          --------------------------
                 RHF SCF CALCULATION
          --------------------------
     DENSITY MATRIX CONV=  1.00E-06

 ITER EX DEM     TOTAL ENERGY        E CHANGE  DENSITY CHANGE     ORB. GRAD
          ---------------START SECOND ORDER SCF---------------
   1  0  0      -76.0085831988   -76.0085831988   0.002311263   0.001450477
   2  1  0      -76.0085980821    -0.0000148833   0.001184340   0.000926698
   3  2  0      -76.0086005037    -0.0000024216   0.000159066   0.000147119
   4  3  0      -76.0086006129    -0.0000001092   0.000088686   0.000039968
   5  4  0      -76.0086006251    -0.0000000122   0.000013326   0.000005957
   6  5  0      -76.0086006254    -0.0000000003   0.000005004   0.000002097
   7  6  0      -76.0086006254    -0.0000000000   0.000000568   0.000000350
   8  7  0      -76.0086006254    -0.0000000000   0.000000238   0.000000114

 RHF HAS CONVERGED, NOW COMPUTING EXACT TOTAL FOCK MATRIX
 FOR USE DURING THE COUPLED CLUSTER CALCULATION THAT FOLLOWS.

          -----------------
          DENSITY CONVERGED
          -----------------
     TIME TO FORM FOCK OPERATORS=       0.0 SECONDS (       0.0 SEC/ITER)
     TIME TO SOLVE SCF EQUATIONS=       0.0 SECONDS (       0.0 SEC/ITER)

 FINAL RHF ENERGY IS      -76.0086006254 AFTER   8 ITERATIONS
 ...... END OF RHF CALCULATION ......
 STEP CPU TIME =     0.00 TOTAL CPU TIME =        0.1 (    0.0 MIN)
 TOTAL WALL CLOCK TIME=        0.1 SECONDS, CPU UTILIZATION IS  80.00%

     ---------------------------
     COUPLED CLUSTER CALCULATION
     ---------------------------
 CCTYP                        =CCSD(T) 
 TOTAL NUMBER OF MOS          =    18
 NUMBER OF OCCUPIED MOS       =     5
 NUMBER OF FROZEN CORE MOS    =     1
 NUMBER OF FROZEN VIRTUAL MOS =     0
 MAXIMUM CC ITERATIONS        =    30
 MAXIMUM DIIS ITERATIONS      =     5
 CONVERGENCE CRITERION FOR CC =     7
 AMPLITUDE ACCURACY THRESHOLD = 0.0E+00

     --------------------------------------------
     PARTIAL TWO ELECTRON INTEGRAL TRANSFORMATION
     --------------------------------------------

 NUMBER OF CORE MOLECULAR ORBITALS     =    1
 NUMBER OF OCCUPIED MOLECULAR ORBITALS =   18
 TOTAL NUMBER OF MOLECULAR ORBITALS    =   18
 TOTAL NUMBER OF ATOMIC ORBITALS       =   19
 THRESHOLD FOR KEEPING TRANSFORMED 2E- INTEGRALS = 1.000E-09
 AO INTEGRALS WILL BE READ IN FROM DISK...
 EVALUATING THE FROZEN CORE ENERGY...
 ----- FROZEN CORE ENERGY =       -61.2932188368

 PLAN A: REQUIREMENTS FOR FULLY IN-MEMORY TRANSFORMATION:
 # OF WORDS AVAILABLE =               993371
 # OF WORDS NEEDED    =               123215

 CHOOSING IN MEMORY PARTIAL TRANSFORMATION...
 TOTAL NUMBER OF TRANSFORMED 2E- INTEGRALS KEPT =         3368
 ... END OF INTEGRAL TRANSFORMATION ...
 STEP CPU TIME =     0.00 TOTAL CPU TIME =        0.1 (    0.0 MIN)
 TOTAL WALL CLOCK TIME=        0.1 SECONDS, CPU UTILIZATION IS  80.00%

   -----------------------
   COUPLED-CLUSTER PROGRAM
   -----------------------

   -------------------------------------------------------
   P.PIECUCH, S.A.KUCHARSKI, M.WLOCH, K.KOWALSKI, M.MUSIAL
   -------------------------------------------------------

 THE FOLLOWING CALCULATIONS WILL BE PERFORMED:
                                                     CCSD   
                                                     CCSD[T]
                                                     CCSD(T)

 THE FOLLOWING ENERGY WILL BE CONSIDERED THE HIGHEST LEVEL:    CCSD(T)
 THE AVAILABLE REPLICATED MEMORY IS      993371 WORDS.
 CONVERGENCE THRESHOLD:   1.0E-07
 MAXIMUM NUMBER OF ITERATIONS:   30

 MEMORY TO BE USED IN CC INTEGRAL SORTING IS       60758 WORDS.
 THE MINIMUM MEMORY TO ACCOMPLISH SORTING IS       40985 WORDS.
         3368 NON-ZERO TRANSFORMED 2E- INTEGRALS WERE SORTED INTO FILE 72:
           22 [IJ|KL] TYPE,         150 [AJ|KL] TYPE,
          273 [AB|IJ] TYPE,         393 [IA|BJ] TYPE,
         1308 [AB|CI] TYPE,        1222 [AB|CD] TYPE.
 TRANSFORMED INTEGRAL FILE  9 WAS READ    3 TIMES.
 ....... DONE WITH CC INTEGRAL PREPARATION .......
 STEP CPU TIME =     0.01 TOTAL CPU TIME =        0.1 (    0.0 MIN)
 TOTAL WALL CLOCK TIME=        0.1 SECONDS, CPU UTILIZATION IS  90.00%

 MEMORY REQUIRED FOR THE CCSD ITERATIONS IS       23230 WORDS.
 RESTARTING USING PREVIOUS AMPLITUDES READ FROM A DISK FILE.
 ITER:  4   CCSD    CORR. ENERGY:  -0.1944995146   CONV.:  1.1921E-03
 ITER:  5   CCSD    CORR. ENERGY:  -0.1945309961   CONV.: -4.5974E-04
 ITER:  6   CCSD    CORR. ENERGY:  -0.1945427376   CONV.: -9.1936E-05
 ITER:  7   CCSD    CORR. ENERGY:  -0.1945472017   CONV.: -3.2587E-05
 ITER:  8   CCSD    CORR. ENERGY:  -0.1945487529   CONV.: -1.6891E-05
 ITER:  9   CCSD    CORR. ENERGY:  -0.1945491518   CONV.: -5.0888E-06
 ITER: 10   CCSD    CORR. ENERGY:  -0.1945491855   CONV.: -1.3398E-06
 ITER: 11   CCSD    CORR. ENERGY:  -0.1945491850   CONV.: -9.6517E-08
 ITER: 12   CCSD    CORR. ENERGY:  -0.1945491779   CONV.: -9.6517E-08

     THE    CCSD     ITERATIONS HAVE CONVERGED

    MBPT(2) CORRELATION ENERGY:  -0.1853091661
    CCSD    CORRELATION ENERGY:  -0.1945491779

 T1 DIAGNOSTIC        =     0.00577801
 NORM OF THE T1 VECTOR=     0.01634268
 NORM OF THE T2 VECTOR=     0.21629471

 THE FIVE LARGEST T1 AMPLITUDES ARE:
 T1 AMPLITUDE IS -0.008491 FOR I=   4 -> A=   6
 T1 AMPLITUDE IS  0.007326 FOR I=   3 -> A=  12
 T1 AMPLITUDE IS  0.006812 FOR I=   5 -> A=  10
 T1 AMPLITUDE IS -0.004908 FOR I=   2 -> A=  11
 T1 AMPLITUDE IS  0.004668 FOR I=   3 -> A=   7

 THE FIVE LARGEST SPIN-UNIQUE T2 AMPLITUDES ARE:
 T2 AMPLITUDE IS -0.052374 FOR I,J=   5   5 -> A,B=  10  10
 T2 AMPLITUDE IS -0.043309 FOR I,J=   4   4 -> A,B=  11  11
 T2 AMPLITUDE IS -0.040063 FOR I,J=   3   3 -> A,B=   7   7
 T2 AMPLITUDE IS -0.032610 FOR I,J=   4   5 -> A,B=  11  10
 T2 AMPLITUDE IS -0.028133 FOR I,J=   3   3 -> A,B=   8   8
 PRINTED T2(I-ALPHA,J-BETA -> A-ALPHA,B-BETA) VALUES
 EQUAL   T2(J-ALPHA,I-BETA -> B-ALPHA,A-BETA) AMPLITUDES.

 ....... DONE WITH CC AMPLITUDE ITERATIONS .......
 STEP CPU TIME =     0.02 TOTAL CPU TIME =        0.1 (    0.0 MIN)
 TOTAL WALL CLOCK TIME=        0.1 SECONDS, CPU UTILIZATION IS  91.67%

 MEMORY REQUIRED FOR NONITERATIVE TRIPLES (T3WT2  ) IS        19526 WORDS.

                      SUMMARY OF RESULTS

      REFERENCE ENERGY:      -76.0086006254
        MBPT(2) ENERGY:      -76.1939097915   CORR.E=  -0.1853091661
        CCSD    ENERGY:      -76.2031498033   CORR.E=  -0.1945491779
        CCSD[T] ENERGY:      -76.2050108958   CORR.E=  -0.1964102704
        CCSD(T) ENERGY:      -76.2049237168   CORR.E=  -0.1963230913

 THE FOLLOWING METHOD AND ENERGY WILL BE CONSIDERED THE HIGHEST LEVEL RESULT:
 COUPLED-CLUSTER ENERGY E(   CCSD(T)) =      -76.2049237168

 ..... DONE WITH CC NON-ITERATIVE TRIPLES CORRECTIONS .....
 STEP CPU TIME =     0.00 TOTAL CPU TIME =        0.1 (    0.0 MIN)
 TOTAL WALL CLOCK TIME=        0.1 SECONDS, CPU UTILIZATION IS  91.67%
 IMODE=    1 IVIB= 1 E=       -76.2049237168

 -------------------------------
 WORKING ON IMODE=   1 IVIB=2...
 -------------------------------

 COORDINATES OF ALL ATOMS ARE (ANGS)
   ATOM   CHARGE       X              Y              Z
 ------------------------------------------------------------
 O           8.0   0.0000000000   0.0000000000  -0.0572336901
 H           1.0  -0.7574776761   0.0000000000   0.5286168450
 H           1.0   0.7574776761   0.0000000000   0.5286168450
 ...... END OF ONE-ELECTRON INTEGRALS ......
 STEP CPU TIME =     0.00 TOTAL CPU TIME =        0.1 (    0.0 MIN)
 TOTAL WALL CLOCK TIME=        0.1 SECONDS, CPU UTILIZATION IS  91.67%
 TOTAL NUMBER OF NONZERO TWO-ELECTRON INTEGRALS =                4469
          1 INTEGRAL RECORDS WERE STORED ON DISK FILE  8.
  ...... END OF TWO-ELECTRON INTEGRALS .....
 STEP CPU TIME =     0.00 TOTAL CPU TIME =        0.1 (    0.0 MIN)
 TOTAL WALL CLOCK TIME=        0.1 SECONDS, CPU UTILIZATION IS  84.62%

          --------------------------
                 RHF SCF CALCULATION
          --------------------------
     DENSITY MATRIX CONV=  1.00E-06

 ITER EX DEM     TOTAL ENERGY        E CHANGE  DENSITY CHANGE     ORB. GRAD
          ---------------START SECOND ORDER SCF---------------
   1  0  0      -76.0091012441   -76.0091012441   0.002325243   0.001457852
   2  1  0      -76.0091161719    -0.0000149278   0.001180753   0.000924471
   3  2  0      -76.0091185605    -0.0000023886   0.000159853   0.000149396
   4  3  0      -76.0091186709    -0.0000001104   0.000086576   0.000039751
   5  4  0      -76.0091186829    -0.0000000120   0.000013649   0.000006293
   6  5  0      -76.0091186832    -0.0000000003   0.000004792   0.000002077
   7  6  0      -76.0091186832    -0.0000000000   0.000000543   0.000000335
   8  7  0      -76.0091186832    -0.0000000000   0.000000218   0.000000107

 RHF HAS CONVERGED, NOW COMPUTING EXACT TOTAL FOCK MATRIX
 FOR USE DURING THE COUPLED CLUSTER CALCULATION THAT FOLLOWS.

          -----------------
          DENSITY CONVERGED
          -----------------
     TIME TO FORM FOCK OPERATORS=       0.0 SECONDS (       0.0 SEC/ITER)
     TIME TO SOLVE SCF EQUATIONS=       0.0 SECONDS (       0.0 SEC/ITER)

 FINAL RHF ENERGY IS      -76.0091186832 AFTER   8 ITERATIONS
 ...... END OF RHF CALCULATION ......
 STEP CPU TIME =     0.01 TOTAL CPU TIME =        0.1 (    0.0 MIN)
 TOTAL WALL CLOCK TIME=        0.1 SECONDS, CPU UTILIZATION IS  92.31%

     ---------------------------
     COUPLED CLUSTER CALCULATION
     ---------------------------
 CCTYP                        =CCSD(T) 
 TOTAL NUMBER OF MOS          =    18
 NUMBER OF OCCUPIED MOS       =     5
 NUMBER OF FROZEN CORE MOS    =     1
 NUMBER OF FROZEN VIRTUAL MOS =     0
 MAXIMUM CC ITERATIONS        =    30
 MAXIMUM DIIS ITERATIONS      =     5
 CONVERGENCE CRITERION FOR CC =     7
 AMPLITUDE ACCURACY THRESHOLD = 0.0E+00

     --------------------------------------------
     PARTIAL TWO ELECTRON INTEGRAL TRANSFORMATION
     --------------------------------------------

 NUMBER OF CORE MOLECULAR ORBITALS     =    1
 NUMBER OF OCCUPIED MOLECULAR ORBITALS =   18
 TOTAL NUMBER OF MOLECULAR ORBITALS    =   18
 TOTAL NUMBER OF ATOMIC ORBITALS       =   19
 THRESHOLD FOR KEEPING TRANSFORMED 2E- INTEGRALS = 1.000E-09
 AO INTEGRALS WILL BE READ IN FROM DISK...
 EVALUATING THE FROZEN CORE ENERGY...
 ----- FROZEN CORE ENERGY =       -61.3114755988

 PLAN A: REQUIREMENTS FOR FULLY IN-MEMORY TRANSFORMATION:
 # OF WORDS AVAILABLE =               993371
 # OF WORDS NEEDED    =               123215

 CHOOSING IN MEMORY PARTIAL TRANSFORMATION...
 TOTAL NUMBER OF TRANSFORMED 2E- INTEGRALS KEPT =         3368
 ... END OF INTEGRAL TRANSFORMATION ...
 STEP CPU TIME =     0.00 TOTAL CPU TIME =        0.1 (    0.0 MIN)
 TOTAL WALL CLOCK TIME=        0.1 SECONDS, CPU UTILIZATION IS  92.31%

   -----------------------
   COUPLED-CLUSTER PROGRAM
   -----------------------

   -------------------------------------------------------
   P.PIECUCH, S.A.KUCHARSKI, M.WLOCH, K.KOWALSKI, M.MUSIAL
   -------------------------------------------------------

 THE FOLLOWING CALCULATIONS WILL BE PERFORMED:
                                                     CCSD   
                                                     CCSD[T]
                                                     CCSD(T)

 THE FOLLOWING ENERGY WILL BE CONSIDERED THE HIGHEST LEVEL:    CCSD(T)
 THE AVAILABLE REPLICATED MEMORY IS      993371 WORDS.
 CONVERGENCE THRESHOLD:   1.0E-07
 MAXIMUM NUMBER OF ITERATIONS:   30

 MEMORY TO BE USED IN CC INTEGRAL SORTING IS       60758 WORDS.
 THE MINIMUM MEMORY TO ACCOMPLISH SORTING IS       40985 WORDS.
         3368 NON-ZERO TRANSFORMED 2E- INTEGRALS WERE SORTED INTO FILE 72:
           22 [IJ|KL] TYPE,         150 [AJ|KL] TYPE,
          273 [AB|IJ] TYPE,         393 [IA|BJ] TYPE,
         1308 [AB|CI] TYPE,        1222 [AB|CD] TYPE.
 TRANSFORMED INTEGRAL FILE  9 WAS READ    3 TIMES.
 ....... DONE WITH CC INTEGRAL PREPARATION .......
 STEP CPU TIME =     0.00 TOTAL CPU TIME =        0.1 (    0.0 MIN)
 TOTAL WALL CLOCK TIME=        0.1 SECONDS, CPU UTILIZATION IS  92.31%

 MEMORY REQUIRED FOR THE CCSD ITERATIONS IS       23230 WORDS.
 RESTARTING USING PREVIOUS AMPLITUDES READ FROM A DISK FILE.
 ITER:  4   CCSD    CORR. ENERGY:  -0.1867734472   CONV.: -3.7233E-02
 ITER:  5   CCSD    CORR. ENERGY:  -0.1910576125   CONV.:  6.1375E-03
 ITER:  6   CCSD    CORR. ENERGY:  -0.1931844228   CONV.: -1.4999E-03
 ITER:  7   CCSD    CORR. ENERGY:  -0.1936464301   CONV.:  6.5965E-04
 ITER:  8   CCSD    CORR. ENERGY:  -0.1938061484   CONV.:  3.2873E-04
 ITER:  9   CCSD    CORR. ENERGY:  -0.1938135968   CONV.:  1.1408E-04
 ITER: 10   CCSD    CORR. ENERGY:  -0.1938131973   CONV.:  4.5099E-05
 ITER: 11   CCSD    CORR. ENERGY:  -0.1938122794   CONV.:  6.8791E-06
 ITER: 12   CCSD    CORR. ENERGY:  -0.1938120845   CONV.:  1.0338E-06
 ITER: 13   CCSD    CORR. ENERGY:  -0.1938120548   CONV.: -2.1037E-07
 ITER: 14   CCSD    CORR. ENERGY:  -0.1938120401   CONV.: -4.2236E-08
 ITER: 15   CCSD    CORR. ENERGY:  -0.1938120367   CONV.: -4.2236E-08

     THE    CCSD     ITERATIONS HAVE CONVERGED

    MBPT(2) CORRELATION ENERGY:  -0.1845921014
    CCSD    CORRELATION ENERGY:  -0.1938120367

 T1 DIAGNOSTIC        =     0.00565489
 NORM OF THE T1 VECTOR=     0.01599443
 NORM OF THE T2 VECTOR=     0.21487324

 THE FIVE LARGEST T1 AMPLITUDES ARE:
 T1 AMPLITUDE IS -0.008184 FOR I=   4 -> A=   6
 T1 AMPLITUDE IS  0.007104 FOR I=   3 -> A=  12
 T1 AMPLITUDE IS  0.006720 FOR I=   5 -> A=  10
 T1 AMPLITUDE IS  0.004845 FOR I=   2 -> A=  11
 T1 AMPLITUDE IS  0.004682 FOR I=   3 -> A=   7

 THE FIVE LARGEST SPIN-UNIQUE T2 AMPLITUDES ARE:
 T2 AMPLITUDE IS -0.052390 FOR I,J=   5   5 -> A,B=  10  10
 T2 AMPLITUDE IS -0.045180 FOR I,J=   4   4 -> A,B=  11  11
 T2 AMPLITUDE IS -0.038736 FOR I,J=   3   3 -> A,B=   7   7
 T2 AMPLITUDE IS -0.033380 FOR I,J=   4   5 -> A,B=  11  10
 T2 AMPLITUDE IS -0.028153 FOR I,J=   3   3 -> A,B=  12  12
 PRINTED T2(I-ALPHA,J-BETA -> A-ALPHA,B-BETA) VALUES
 EQUAL   T2(J-ALPHA,I-BETA -> B-ALPHA,A-BETA) AMPLITUDES.

 ....... DONE WITH CC AMPLITUDE ITERATIONS .......
 STEP CPU TIME =     0.03 TOTAL CPU TIME =        0.1 (    0.0 MIN)
 TOTAL WALL CLOCK TIME=        0.2 SECONDS, CPU UTILIZATION IS  93.75%

 MEMORY REQUIRED FOR NONITERATIVE TRIPLES (T3WT2  ) IS        19526 WORDS.

                      SUMMARY OF RESULTS

      REFERENCE ENERGY:      -76.0091186832
        MBPT(2) ENERGY:      -76.1937107846   CORR.E=  -0.1845921014
        CCSD    ENERGY:      -76.2029307199   CORR.E=  -0.1938120367
        CCSD[T] ENERGY:      -76.2047500475   CORR.E=  -0.1956313642
        CCSD(T) ENERGY:      -76.2046643179   CORR.E=  -0.1955456346

 THE FOLLOWING METHOD AND ENERGY WILL BE CONSIDERED THE HIGHEST LEVEL RESULT:
 COUPLED-CLUSTER ENERGY E(   CCSD(T)) =      -76.2046643179

 ..... DONE WITH CC NON-ITERATIVE TRIPLES CORRECTIONS .....
 STEP CPU TIME =     0.00 TOTAL CPU TIME =        0.1 (    0.0 MIN)
 TOTAL WALL CLOCK TIME=        0.2 SECONDS, CPU UTILIZATION IS  93.75%
 IMODE=    2 IVIB= 1 E=       -76.2046643179

 -------------------------------
 WORKING ON IMODE=   2 IVIB=1...
 -------------------------------

 COORDINATES OF ALL ATOMS ARE (ANGS)
   ATOM   CHARGE       X              Y              Z
 ------------------------------------------------------------
 O           8.0   0.0000000000   0.0000000000  -0.0615544042
 H           1.0  -0.7612195243   0.0000000000   0.5307772021
 H           1.0   0.7612195243   0.0000000000   0.5307772021
 ...... END OF ONE-ELECTRON INTEGRALS ......
 STEP CPU TIME =     0.01 TOTAL CPU TIME =        0.2 (    0.0 MIN)
 TOTAL WALL CLOCK TIME=        0.2 SECONDS, CPU UTILIZATION IS 100.00%
 TOTAL NUMBER OF NONZERO TWO-ELECTRON INTEGRALS =                4469
          1 INTEGRAL RECORDS WERE STORED ON DISK FILE  8.
  ...... END OF TWO-ELECTRON INTEGRALS .....
 STEP CPU TIME =     0.00 TOTAL CPU TIME =        0.2 (    0.0 MIN)
 TOTAL WALL CLOCK TIME=        0.2 SECONDS, CPU UTILIZATION IS 100.00%

          --------------------------
                 RHF SCF CALCULATION
          --------------------------
     DENSITY MATRIX CONV=  1.00E-06

 ITER EX DEM     TOTAL ENERGY        E CHANGE  DENSITY CHANGE     ORB. GRAD
          ---------------START SECOND ORDER SCF---------------
   1  0  0      -76.0087294559   -76.0087294559   0.001267543   0.000958280
   2  1  0      -76.0087350339    -0.0000055780   0.000669343   0.000561771
   3  2  0      -76.0087357250    -0.0000006911   0.000081180   0.000098361
   4  3  0      -76.0087357694    -0.0000000444   0.000035619   0.000021534
   5  4  0      -76.0087357727    -0.0000000032   0.000010690   0.000004943
   6  5  0      -76.0087357729    -0.0000000002   0.000002136   0.000001201
   7  6  0      -76.0087357729    -0.0000000000   0.000000859   0.000000346
   8  7  0      -76.0087357729    -0.0000000000   0.000000126   0.000000075

 RHF HAS CONVERGED, NOW COMPUTING EXACT TOTAL FOCK MATRIX
 FOR USE DURING THE COUPLED CLUSTER CALCULATION THAT FOLLOWS.

          -----------------
          DENSITY CONVERGED
          -----------------
     TIME TO FORM FOCK OPERATORS=       0.0 SECONDS (       0.0 SEC/ITER)
     TIME TO SOLVE SCF EQUATIONS=       0.0 SECONDS (       0.0 SEC/ITER)

 FINAL RHF ENERGY IS      -76.0087357729 AFTER   8 ITERATIONS
 ...... END OF RHF CALCULATION ......
 STEP CPU TIME =     0.00 TOTAL CPU TIME =        0.2 (    0.0 MIN)
 TOTAL WALL CLOCK TIME=        0.2 SECONDS, CPU UTILIZATION IS 100.00%

     ---------------------------
     COUPLED CLUSTER CALCULATION
     ---------------------------
 CCTYP                        =CCSD(T) 
 TOTAL NUMBER OF MOS          =    18
 NUMBER OF OCCUPIED MOS       =     5
 NUMBER OF FROZEN CORE MOS    =     1
 NUMBER OF FROZEN VIRTUAL MOS =     0
 MAXIMUM CC ITERATIONS        =    30
 MAXIMUM DIIS ITERATIONS      =     5
 CONVERGENCE CRITERION FOR CC =     7
 AMPLITUDE ACCURACY THRESHOLD = 0.0E+00

     --------------------------------------------
     PARTIAL TWO ELECTRON INTEGRAL TRANSFORMATION
     --------------------------------------------

 NUMBER OF CORE MOLECULAR ORBITALS     =    1
 NUMBER OF OCCUPIED MOLECULAR ORBITALS =   18
 TOTAL NUMBER OF MOLECULAR ORBITALS    =   18
 TOTAL NUMBER OF ATOMIC ORBITALS       =   19
 THRESHOLD FOR KEEPING TRANSFORMED 2E- INTEGRALS = 1.000E-09
 AO INTEGRALS WILL BE READ IN FROM DISK...
 EVALUATING THE FROZEN CORE ENERGY...
 ----- FROZEN CORE ENERGY =       -61.2956115363

 PLAN A: REQUIREMENTS FOR FULLY IN-MEMORY TRANSFORMATION:
 # OF WORDS AVAILABLE =               993371
 # OF WORDS NEEDED    =               123215

 CHOOSING IN MEMORY PARTIAL TRANSFORMATION...
 TOTAL NUMBER OF TRANSFORMED 2E- INTEGRALS KEPT =         3368
 ... END OF INTEGRAL TRANSFORMATION ...
 STEP CPU TIME =     0.00 TOTAL CPU TIME =        0.2 (    0.0 MIN)
 TOTAL WALL CLOCK TIME=        0.2 SECONDS, CPU UTILIZATION IS  94.12%

   -----------------------
   COUPLED-CLUSTER PROGRAM
   -----------------------

   -------------------------------------------------------
   P.PIECUCH, S.A.KUCHARSKI, M.WLOCH, K.KOWALSKI, M.MUSIAL
   -------------------------------------------------------

 THE FOLLOWING CALCULATIONS WILL BE PERFORMED:
                                                     CCSD   
                                                     CCSD[T]
                                                     CCSD(T)

 THE FOLLOWING ENERGY WILL BE CONSIDERED THE HIGHEST LEVEL:    CCSD(T)
 THE AVAILABLE REPLICATED MEMORY IS      993371 WORDS.
 CONVERGENCE THRESHOLD:   1.0E-07
 MAXIMUM NUMBER OF ITERATIONS:   30

 MEMORY TO BE USED IN CC INTEGRAL SORTING IS       60758 WORDS.
 THE MINIMUM MEMORY TO ACCOMPLISH SORTING IS       40985 WORDS.
         3368 NON-ZERO TRANSFORMED 2E- INTEGRALS WERE SORTED INTO FILE 72:
           22 [IJ|KL] TYPE,         150 [AJ|KL] TYPE,
          273 [AB|IJ] TYPE,         393 [IA|BJ] TYPE,
         1308 [AB|CI] TYPE,        1222 [AB|CD] TYPE.
 TRANSFORMED INTEGRAL FILE  9 WAS READ    3 TIMES.
 ....... DONE WITH CC INTEGRAL PREPARATION .......
 STEP CPU TIME =     0.00 TOTAL CPU TIME =        0.2 (    0.0 MIN)
 TOTAL WALL CLOCK TIME=        0.2 SECONDS, CPU UTILIZATION IS  94.12%

 MEMORY REQUIRED FOR THE CCSD ITERATIONS IS       23230 WORDS.
 RESTARTING USING PREVIOUS AMPLITUDES READ FROM A DISK FILE.
 ITER:  4   CCSD    CORR. ENERGY:  -0.1915792965   CONV.:  5.7634E-02
 ITER:  5   CCSD    CORR. ENERGY:  -0.1920305532   CONV.:  1.1837E-02
 ITER:  6   CCSD    CORR. ENERGY:  -0.1939889424   CONV.:  2.3352E-03
 ITER:  7   CCSD    CORR. ENERGY:  -0.1943200879   CONV.:  5.8050E-04
 ITER:  8   CCSD    CORR. ENERGY:  -0.1944056378   CONV.:  5.1335E-04
 ITER:  9   CCSD    CORR. ENERGY:  -0.1944199497   CONV.:  1.8322E-04
 ITER: 10   CCSD    CORR. ENERGY:  -0.1944227940   CONV.:  6.3631E-05
 ITER: 11   CCSD    CORR. ENERGY:  -0.1944219343   CONV.:  9.5391E-06
 ITER: 12   CCSD    CORR. ENERGY:  -0.1944213532   CONV.:  1.0502E-06
 ITER: 13   CCSD    CORR. ENERGY:  -0.1944212164   CONV.: -2.7971E-07
 ITER: 14   CCSD    CORR. ENERGY:  -0.1944211896   CONV.:  6.6065E-08
 ITER: 15   CCSD    CORR. ENERGY:  -0.1944211858   CONV.:  6.6065E-08

     THE    CCSD     ITERATIONS HAVE CONVERGED

    MBPT(2) CORRELATION ENERGY:  -0.1851804182
    CCSD    CORRELATION ENERGY:  -0.1944211858

 T1 DIAGNOSTIC        =     0.00575468
 NORM OF THE T1 VECTOR=     0.01627668
 NORM OF THE T2 VECTOR=     0.21603954

 THE FIVE LARGEST T1 AMPLITUDES ARE:
 T1 AMPLITUDE IS -0.008451 FOR I=   4 -> A=   6
 T1 AMPLITUDE IS  0.007279 FOR I=   3 -> A=  12
 T1 AMPLITUDE IS -0.006781 FOR I=   5 -> A=  10
 T1 AMPLITUDE IS -0.004908 FOR I=   2 -> A=  11
 T1 AMPLITUDE IS  0.004639 FOR I=   3 -> A=   7

 THE FIVE LARGEST SPIN-UNIQUE T2 AMPLITUDES ARE:
 T2 AMPLITUDE IS -0.052381 FOR I,J=   5   5 -> A,B=  10  10
 T2 AMPLITUDE IS -0.044198 FOR I,J=   4   4 -> A,B=  11  11
 T2 AMPLITUDE IS -0.039672 FOR I,J=   3   3 -> A,B=   7   7
 T2 AMPLITUDE IS  0.032982 FOR I,J=   4   5 -> A,B=  11  10
 T2 AMPLITUDE IS -0.028062 FOR I,J=   3   3 -> A,B=   8   8
 PRINTED T2(I-ALPHA,J-BETA -> A-ALPHA,B-BETA) VALUES
 EQUAL   T2(J-ALPHA,I-BETA -> B-ALPHA,A-BETA) AMPLITUDES.

 ....... DONE WITH CC AMPLITUDE ITERATIONS .......
 STEP CPU TIME =     0.03 TOTAL CPU TIME =        0.2 (    0.0 MIN)
 TOTAL WALL CLOCK TIME=        0.2 SECONDS, CPU UTILIZATION IS  95.00%

 MEMORY REQUIRED FOR NONITERATIVE TRIPLES (T3WT2  ) IS        19526 WORDS.

                      SUMMARY OF RESULTS

      REFERENCE ENERGY:      -76.0087357729
        MBPT(2) ENERGY:      -76.1939161911   CORR.E=  -0.1851804182
        CCSD    ENERGY:      -76.2031569587   CORR.E=  -0.1944211858
        CCSD[T] ENERGY:      -76.2050091280   CORR.E=  -0.1962733551
        CCSD(T) ENERGY:      -76.2049222517   CORR.E=  -0.1961864788

 THE FOLLOWING METHOD AND ENERGY WILL BE CONSIDERED THE HIGHEST LEVEL RESULT:
 COUPLED-CLUSTER ENERGY E(   CCSD(T)) =      -76.2049222517

 ..... DONE WITH CC NON-ITERATIVE TRIPLES CORRECTIONS .....
 STEP CPU TIME =     0.00 TOTAL CPU TIME =        0.2 (    0.0 MIN)
 TOTAL WALL CLOCK TIME=        0.2 SECONDS, CPU UTILIZATION IS  95.00%
 IMODE=    1 IVIB= 2 E=       -76.2049222517

 -------------------------------
 WORKING ON IMODE=   2 IVIB=2...
 -------------------------------

 COORDINATES OF ALL ATOMS ARE (ANGS)
   ATOM   CHARGE       X              Y              Z
 ------------------------------------------------------------
 O           8.0   0.0000000000   0.0000000000  -0.0615544042
 H           1.0  -0.7537358279   0.0000000000   0.5307772021
 H           1.0   0.7537358279   0.0000000000   0.5307772021
 ...... END OF ONE-ELECTRON INTEGRALS ......
 STEP CPU TIME =     0.00 TOTAL CPU TIME =        0.2 (    0.0 MIN)
 TOTAL WALL CLOCK TIME=        0.2 SECONDS, CPU UTILIZATION IS  95.00%
 TOTAL NUMBER OF NONZERO TWO-ELECTRON INTEGRALS =                4469
          1 INTEGRAL RECORDS WERE STORED ON DISK FILE  8.
  ...... END OF TWO-ELECTRON INTEGRALS .....
 STEP CPU TIME =     0.00 TOTAL CPU TIME =        0.2 (    0.0 MIN)
 TOTAL WALL CLOCK TIME=        0.2 SECONDS, CPU UTILIZATION IS  95.00%

          --------------------------
                 RHF SCF CALCULATION
          --------------------------
     DENSITY MATRIX CONV=  1.00E-06

 ITER EX DEM     TOTAL ENERGY        E CHANGE  DENSITY CHANGE     ORB. GRAD
          ---------------START SECOND ORDER SCF---------------
   1  0  0      -76.0090112976   -76.0090112976   0.001272297   0.000959519
   2  1  0      -76.0090169176    -0.0000056201   0.000671382   0.000564469
   3  2  0      -76.0090176088    -0.0000006911   0.000083460   0.000097331
   4  3  0      -76.0090176537    -0.0000000449   0.000035127   0.000021213
   5  4  0      -76.0090176569    -0.0000000032   0.000010853   0.000005085
   6  5  0      -76.0090176571    -0.0000000002   0.000002024   0.000001148
   7  6  0      -76.0090176571    -0.0000000000   0.000000807   0.000000329
   8  7  0      -76.0090176571    -0.0000000000   0.000000114   0.000000069

 RHF HAS CONVERGED, NOW COMPUTING EXACT TOTAL FOCK MATRIX
 FOR USE DURING THE COUPLED CLUSTER CALCULATION THAT FOLLOWS.

          -----------------
          DENSITY CONVERGED
          -----------------
     TIME TO FORM FOCK OPERATORS=       0.0 SECONDS (       0.0 SEC/ITER)
     TIME TO SOLVE SCF EQUATIONS=       0.0 SECONDS (       0.0 SEC/ITER)

 FINAL RHF ENERGY IS      -76.0090176571 AFTER   8 ITERATIONS
 ...... END OF RHF CALCULATION ......
 STEP CPU TIME =     0.00 TOTAL CPU TIME =        0.2 (    0.0 MIN)
 TOTAL WALL CLOCK TIME=        0.2 SECONDS, CPU UTILIZATION IS  95.00%

     ---------------------------
     COUPLED CLUSTER CALCULATION
     ---------------------------
 CCTYP                        =CCSD(T) 
 TOTAL NUMBER OF MOS          =    18
 NUMBER OF OCCUPIED MOS       =     5
 NUMBER OF FROZEN CORE MOS    =     1
 NUMBER OF FROZEN VIRTUAL MOS =     0
 MAXIMUM CC ITERATIONS        =    30
 MAXIMUM DIIS ITERATIONS      =     5
 CONVERGENCE CRITERION FOR CC =     7
 AMPLITUDE ACCURACY THRESHOLD = 0.0E+00

     --------------------------------------------
     PARTIAL TWO ELECTRON INTEGRAL TRANSFORMATION
     --------------------------------------------

 NUMBER OF CORE MOLECULAR ORBITALS     =    1
 NUMBER OF OCCUPIED MOLECULAR ORBITALS =   18
 TOTAL NUMBER OF MOLECULAR ORBITALS    =   18
 TOTAL NUMBER OF ATOMIC ORBITALS       =   19
 THRESHOLD FOR KEEPING TRANSFORMED 2E- INTEGRALS = 1.000E-09
 AO INTEGRALS WILL BE READ IN FROM DISK...
 EVALUATING THE FROZEN CORE ENERGY...
 ----- FROZEN CORE ENERGY =       -61.3090978757

 PLAN A: REQUIREMENTS FOR FULLY IN-MEMORY TRANSFORMATION:
 # OF WORDS AVAILABLE =               993371
 # OF WORDS NEEDED    =               123215

 CHOOSING IN MEMORY PARTIAL TRANSFORMATION...
 TOTAL NUMBER OF TRANSFORMED 2E- INTEGRALS KEPT =         3368
 ... END OF INTEGRAL TRANSFORMATION ...
 STEP CPU TIME =     0.01 TOTAL CPU TIME =        0.2 (    0.0 MIN)
 TOTAL WALL CLOCK TIME=        0.2 SECONDS, CPU UTILIZATION IS 100.00%

   -----------------------
   COUPLED-CLUSTER PROGRAM
   -----------------------

   -------------------------------------------------------
   P.PIECUCH, S.A.KUCHARSKI, M.WLOCH, K.KOWALSKI, M.MUSIAL
   -------------------------------------------------------

 THE FOLLOWING CALCULATIONS WILL BE PERFORMED:
                                                     CCSD   
                                                     CCSD[T]
                                                     CCSD(T)

 THE FOLLOWING ENERGY WILL BE CONSIDERED THE HIGHEST LEVEL:    CCSD(T)
 THE AVAILABLE REPLICATED MEMORY IS      993371 WORDS.
 CONVERGENCE THRESHOLD:   1.0E-07
 MAXIMUM NUMBER OF ITERATIONS:   30

 MEMORY TO BE USED IN CC INTEGRAL SORTING IS       60758 WORDS.
 THE MINIMUM MEMORY TO ACCOMPLISH SORTING IS       40985 WORDS.
         3368 NON-ZERO TRANSFORMED 2E- INTEGRALS WERE SORTED INTO FILE 72:
           22 [IJ|KL] TYPE,         150 [AJ|KL] TYPE,
          273 [AB|IJ] TYPE,         393 [IA|BJ] TYPE,
         1308 [AB|CI] TYPE,        1222 [AB|CD] TYPE.
 TRANSFORMED INTEGRAL FILE  9 WAS READ    3 TIMES.
 ....... DONE WITH CC INTEGRAL PREPARATION .......
 STEP CPU TIME =     0.00 TOTAL CPU TIME =        0.2 (    0.0 MIN)
 TOTAL WALL CLOCK TIME=        0.2 SECONDS, CPU UTILIZATION IS  95.24%

 MEMORY REQUIRED FOR THE CCSD ITERATIONS IS       23230 WORDS.
 RESTARTING USING PREVIOUS AMPLITUDES READ FROM A DISK FILE.
 ITER:  4   CCSD    CORR. ENERGY:  -0.1944133156   CONV.: -5.7338E-02
 ITER:  5   CCSD    CORR. ENERGY:  -0.1931775959   CONV.:  1.2468E-02
 ITER:  6   CCSD    CORR. ENERGY:  -0.1939514332   CONV.:  3.0575E-03
 ITER:  7   CCSD    CORR. ENERGY:  -0.1939298498   CONV.:  5.6271E-04
 ITER:  8   CCSD    CORR. ENERGY:  -0.1939379007   CONV.:  2.5791E-04
 ITER:  9   CCSD    CORR. ENERGY:  -0.1939362010   CONV.:  9.1881E-05
 ITER: 10   CCSD    CORR. ENERGY:  -0.1939361608   CONV.:  3.7996E-05
 ITER: 11   CCSD    CORR. ENERGY:  -0.1939361371   CONV.:  7.5721E-06
 ITER: 12   CCSD    CORR. ENERGY:  -0.1939360366   CONV.:  1.0836E-06
 ITER: 13   CCSD    CORR. ENERGY:  -0.1939360142   CONV.:  1.6792E-07
 ITER: 14   CCSD    CORR. ENERGY:  -0.1939360001   CONV.:  6.0058E-08
 ITER: 15   CCSD    CORR. ENERGY:  -0.1939359976   CONV.:  6.0058E-08

     THE    CCSD     ITERATIONS HAVE CONVERGED

    MBPT(2) CORRELATION ENERGY:  -0.1847166344
    CCSD    CORRELATION ENERGY:  -0.1939359976

 T1 DIAGNOSTIC        =     0.00567765
 NORM OF THE T1 VECTOR=     0.01605882
 NORM OF THE T2 VECTOR=     0.21511943

 THE FIVE LARGEST T1 AMPLITUDES ARE:
 T1 AMPLITUDE IS -0.008227 FOR I=   4 -> A=   6
 T1 AMPLITUDE IS  0.007151 FOR I=   3 -> A=  12
 T1 AMPLITUDE IS  0.006751 FOR I=   5 -> A=  10
 T1 AMPLITUDE IS -0.004856 FOR I=   2 -> A=  11
 T1 AMPLITUDE IS  0.004708 FOR I=   3 -> A=   7

 THE FIVE LARGEST SPIN-UNIQUE T2 AMPLITUDES ARE:
 T2 AMPLITUDE IS -0.052382 FOR I,J=   5   5 -> A,B=  10  10
 T2 AMPLITUDE IS -0.044329 FOR I,J=   4   4 -> A,B=  11  11
 T2 AMPLITUDE IS -0.039118 FOR I,J=   3   3 -> A,B=   7   7
 T2 AMPLITUDE IS -0.033034 FOR I,J=   4   5 -> A,B=  11  10
 T2 AMPLITUDE IS -0.028183 FOR I,J=   3   3 -> A,B=  12  12
 PRINTED T2(I-ALPHA,J-BETA -> A-ALPHA,B-BETA) VALUES
 EQUAL   T2(J-ALPHA,I-BETA -> B-ALPHA,A-BETA) AMPLITUDES.

 ....... DONE WITH CC AMPLITUDE ITERATIONS .......
 STEP CPU TIME =     0.03 TOTAL CPU TIME =        0.2 (    0.0 MIN)
 TOTAL WALL CLOCK TIME=        0.2 SECONDS, CPU UTILIZATION IS  95.83%

 MEMORY REQUIRED FOR NONITERATIVE TRIPLES (T3WT2  ) IS        19526 WORDS.

                      SUMMARY OF RESULTS

      REFERENCE ENERGY:      -76.0090176571
        MBPT(2) ENERGY:      -76.1937342915   CORR.E=  -0.1847166344
        CCSD    ENERGY:      -76.2029536547   CORR.E=  -0.1939359976
        CCSD[T] ENERGY:      -76.2047815426   CORR.E=  -0.1957638855
        CCSD(T) ENERGY:      -76.2046955421   CORR.E=  -0.1956778850

 THE FOLLOWING METHOD AND ENERGY WILL BE CONSIDERED THE HIGHEST LEVEL RESULT:
 COUPLED-CLUSTER ENERGY E(   CCSD(T)) =      -76.2046955421

 ..... DONE WITH CC NON-ITERATIVE TRIPLES CORRECTIONS .....
 STEP CPU TIME =     0.00 TOTAL CPU TIME =        0.2 (    0.0 MIN)
 TOTAL WALL CLOCK TIME=        0.2 SECONDS, CPU UTILIZATION IS  95.83%
 IMODE=    2 IVIB= 2 E=       -76.2046955421

          NSERCH=  0     ENERGY=     -76.2048295

                                 -----------------------
                                 GRADIENT (HARTREE/BOHR)
                                 -----------------------
        ATOM     ZNUC       DE/DX         DE/DY         DE/DZ
 --------------------------------------------------------------
    1  O            8.0     0.0000000     0.0000000     0.0105899
    2  H            1.0     0.0080154     0.0000000    -0.0052950
    3  H            1.0    -0.0080154     0.0000000    -0.0052950

          MAXIMUM GRADIENT = 0.0105899    RMS GRADIENT = 0.0057418

 NSERCH:   0  E=      -76.2048294586  GRAD. MAX=  0.0105899  R.M.S.=  0.0057418

          FORCE CONSTANT MATRIX NOT UPDATED --- TAKING FIRST STEP
          MIN SEARCH, CORRECT HESSIAN, TRYING PURE NR STEP
               NR STEP HAS LENGTH         =   0.025547
          RADIUS OF STEP TAKEN=   0.02555  CURRENT TRUST RADIUS=   0.30000

 BEGINNING GEOMETRY SEARCH POINT NSERCH=   1 ...

 COORDINATES OF SYMMETRY UNIQUE ATOMS (ANGS)
   ATOM   CHARGE       X              Y              Z
 ------------------------------------------------------------
 O           8.0   0.0000000000   0.0000000000  -0.0706515623
 H           1.0   0.7628913768  -0.0000000000   0.5353257812
 COORDINATES OF ALL ATOMS ARE (ANGS)
   ATOM   CHARGE       X              Y              Z
 ------------------------------------------------------------
 O           8.0   0.0000000000   0.0000000000  -0.0706515623
 H           1.0  -0.7628913768   0.0000000000   0.5353257812
 H           1.0   0.7628913768  -0.0000000000   0.5353257812

          INTERNUCLEAR DISTANCES (ANGS.)
          ------------------------------

                1 O          2 H          3 H     

   1 O       0.0000000    0.9742750 *  0.9742750 *
   2 H       0.9742750 *  0.0000000    1.5257828 *
   3 H       0.9742750 *  1.5257828 *  0.0000000  

  * ... LESS THAN  3.000

 ...... END OF ONE-ELECTRON INTEGRALS ......
 STEP CPU TIME =     0.00 TOTAL CPU TIME =        0.2 (    0.0 MIN)
 TOTAL WALL CLOCK TIME=        0.2 SECONDS, CPU UTILIZATION IS  95.83%
 TOTAL NUMBER OF NONZERO TWO-ELECTRON INTEGRALS =                4469
          1 INTEGRAL RECORDS WERE STORED ON DISK FILE  8.
  ...... END OF TWO-ELECTRON INTEGRALS .....
 STEP CPU TIME =     0.00 TOTAL CPU TIME =        0.2 (    0.0 MIN)
 TOTAL WALL CLOCK TIME=        0.2 SECONDS, CPU UTILIZATION IS  95.83%

          --------------------------
                 RHF SCF CALCULATION
          --------------------------
     DENSITY MATRIX CONV=  5.00E-06

 ITER EX DEM     TOTAL ENERGY        E CHANGE  DENSITY CHANGE     ORB. GRAD
          ---------------START SECOND ORDER SCF---------------
   1  0  0      -76.0077069894   -76.0077069894   0.006236999   0.004386036
   2  1  0      -76.0078194486    -0.0001124592   0.003324288   0.002743369
   3  2  0      -76.0078386988    -0.0000192502   0.000394357   0.000328362
   4  3  0      -76.0078395964    -0.0000008976   0.000240439   0.000112386
   5  4  0      -76.0078396908    -0.0000000944   0.000042990   0.000021284
   6  5  0      -76.0078396934    -0.0000000027   0.000015678   0.000006660
   7  6  0      -76.0078396938    -0.0000000003   0.000001769   0.000000997
   8  7  0      -76.0078396938    -0.0000000000   0.000000718   0.000000329

 RHF HAS CONVERGED, NOW COMPUTING EXACT TOTAL FOCK MATRIX
 FOR USE DURING THE COUPLED CLUSTER CALCULATION THAT FOLLOWS.

          -----------------
          DENSITY CONVERGED
          -----------------
     TIME TO FORM FOCK OPERATORS=       0.0 SECONDS (       0.0 SEC/ITER)
     TIME TO SOLVE SCF EQUATIONS=       0.0 SECONDS (       0.0 SEC/ITER)

 FINAL RHF ENERGY IS      -76.0078396938 AFTER   8 ITERATIONS
 ...... END OF RHF CALCULATION ......
 STEP CPU TIME =     0.01 TOTAL CPU TIME =        0.2 (    0.0 MIN)
 TOTAL WALL CLOCK TIME=        0.3 SECONDS, CPU UTILIZATION IS  96.00%

     ---------------------------
     COUPLED CLUSTER CALCULATION
     ---------------------------
 CCTYP                        =CCSD(T) 
 TOTAL NUMBER OF MOS          =    18
 NUMBER OF OCCUPIED MOS       =     5
 NUMBER OF FROZEN CORE MOS    =     1
 NUMBER OF FROZEN VIRTUAL MOS =     0
 MAXIMUM CC ITERATIONS        =    30
 MAXIMUM DIIS ITERATIONS      =     5
 CONVERGENCE CRITERION FOR CC =     7
 AMPLITUDE ACCURACY THRESHOLD = 0.0E+00

     --------------------------------------------
     PARTIAL TWO ELECTRON INTEGRAL TRANSFORMATION
     --------------------------------------------

 NUMBER OF CORE MOLECULAR ORBITALS     =    1
 NUMBER OF OCCUPIED MOLECULAR ORBITALS =   18
 TOTAL NUMBER OF MOLECULAR ORBITALS    =   18
 TOTAL NUMBER OF ATOMIC ORBITALS       =   19
 THRESHOLD FOR KEEPING TRANSFORMED 2E- INTEGRALS = 1.000E-09
 AO INTEGRALS WILL BE READ IN FROM DISK...
 EVALUATING THE FROZEN CORE ENERGY...
 ----- FROZEN CORE ENERGY =       -61.2736780685

 PLAN A: REQUIREMENTS FOR FULLY IN-MEMORY TRANSFORMATION:
 # OF WORDS AVAILABLE =               999964
 # OF WORDS NEEDED    =               123215

 CHOOSING IN MEMORY PARTIAL TRANSFORMATION...
 TOTAL NUMBER OF TRANSFORMED 2E- INTEGRALS KEPT =         3368
 ... END OF INTEGRAL TRANSFORMATION ...
 STEP CPU TIME =     0.00 TOTAL CPU TIME =        0.2 (    0.0 MIN)
 TOTAL WALL CLOCK TIME=        0.3 SECONDS, CPU UTILIZATION IS  96.00%

   -----------------------
   COUPLED-CLUSTER PROGRAM
   -----------------------

   -------------------------------------------------------
   P.PIECUCH, S.A.KUCHARSKI, M.WLOCH, K.KOWALSKI, M.MUSIAL
   -------------------------------------------------------

 THE FOLLOWING CALCULATIONS WILL BE PERFORMED:
                                                     CCSD   
                                                     CCSD[T]
                                                     CCSD(T)

 THE FOLLOWING ENERGY WILL BE CONSIDERED THE HIGHEST LEVEL:    CCSD(T)
 THE AVAILABLE REPLICATED MEMORY IS      999964 WORDS.
 CONVERGENCE THRESHOLD:   1.0E-07
 MAXIMUM NUMBER OF ITERATIONS:   30

 MEMORY TO BE USED IN CC INTEGRAL SORTING IS       60758 WORDS.
 THE MINIMUM MEMORY TO ACCOMPLISH SORTING IS       40985 WORDS.
         3368 NON-ZERO TRANSFORMED 2E- INTEGRALS WERE SORTED INTO FILE 72:
           22 [IJ|KL] TYPE,         150 [AJ|KL] TYPE,
          273 [AB|IJ] TYPE,         393 [IA|BJ] TYPE,
         1308 [AB|CI] TYPE,        1222 [AB|CD] TYPE.
 TRANSFORMED INTEGRAL FILE  9 WAS READ    3 TIMES.
 ....... DONE WITH CC INTEGRAL PREPARATION .......
 STEP CPU TIME =     0.00 TOTAL CPU TIME =        0.2 (    0.0 MIN)
 TOTAL WALL CLOCK TIME=        0.3 SECONDS, CPU UTILIZATION IS  96.00%

 MEMORY REQUIRED FOR THE CCSD ITERATIONS IS       23230 WORDS.
 RESTARTING USING PREVIOUS AMPLITUDES READ FROM A DISK FILE.
 ITER:  4   CCSD    CORR. ENERGY:  -0.1882105299   CONV.: -3.7070E-02
 ITER:  5   CCSD    CORR. ENERGY:  -0.1924370608   CONV.:  6.4743E-03
 ITER:  6   CCSD    CORR. ENERGY:  -0.1946469251   CONV.: -1.6105E-03
 ITER:  7   CCSD    CORR. ENERGY:  -0.1951315153   CONV.:  7.0163E-04
 ITER:  8   CCSD    CORR. ENERGY:  -0.1953049000   CONV.:  2.9800E-04
 ITER:  9   CCSD    CORR. ENERGY:  -0.1953142457   CONV.:  1.0223E-04
 ITER: 10   CCSD    CORR. ENERGY:  -0.1953144549   CONV.:  4.3305E-05
 ITER: 11   CCSD    CORR. ENERGY:  -0.1953136169   CONV.:  8.0454E-06
 ITER: 12   CCSD    CORR. ENERGY:  -0.1953133983   CONV.:  1.3705E-06
 ITER: 13   CCSD    CORR. ENERGY:  -0.1953133616   CONV.: -2.4670E-07
 ITER: 14   CCSD    CORR. ENERGY:  -0.1953133460   CONV.:  5.0208E-08
 ITER: 15   CCSD    CORR. ENERGY:  -0.1953133423   CONV.:  5.0208E-08

     THE    CCSD     ITERATIONS HAVE CONVERGED

    MBPT(2) CORRELATION ENERGY:  -0.1860456748
    CCSD    CORRELATION ENERGY:  -0.1953133423

 T1 DIAGNOSTIC        =     0.00590672
 NORM OF THE T1 VECTOR=     0.01670673
 NORM OF THE T2 VECTOR=     0.21777841

 THE FIVE LARGEST T1 AMPLITUDES ARE:
 T1 AMPLITUDE IS -0.008824 FOR I=   4 -> A=   6
 T1 AMPLITUDE IS  0.007545 FOR I=   3 -> A=  12
 T1 AMPLITUDE IS  0.006886 FOR I=   5 -> A=  10
 T1 AMPLITUDE IS  0.004978 FOR I=   2 -> A=  11
 T1 AMPLITUDE IS  0.004614 FOR I=   3 -> A=   7

 THE FIVE LARGEST SPIN-UNIQUE T2 AMPLITUDES ARE:
 T2 AMPLITUDE IS -0.052364 FOR I,J=   5   5 -> A,B=  10  10
 T2 AMPLITUDE IS -0.042515 FOR I,J=   4   4 -> A,B=  11  11
 T2 AMPLITUDE IS -0.041226 FOR I,J=   3   3 -> A,B=   7   7
 T2 AMPLITUDE IS -0.032273 FOR I,J=   4   5 -> A,B=  11  10
 T2 AMPLITUDE IS -0.028321 FOR I,J=   3   3 -> A,B=   8   8
 PRINTED T2(I-ALPHA,J-BETA -> A-ALPHA,B-BETA) VALUES
 EQUAL   T2(J-ALPHA,I-BETA -> B-ALPHA,A-BETA) AMPLITUDES.

 ....... DONE WITH CC AMPLITUDE ITERATIONS .......
 STEP CPU TIME =     0.03 TOTAL CPU TIME =        0.3 (    0.0 MIN)
 TOTAL WALL CLOCK TIME=        0.3 SECONDS, CPU UTILIZATION IS  96.43%

 MEMORY REQUIRED FOR NONITERATIVE TRIPLES (T3WT2  ) IS        19526 WORDS.

                      SUMMARY OF RESULTS

      REFERENCE ENERGY:      -76.0078396938
        MBPT(2) ENERGY:      -76.1938853686   CORR.E=  -0.1860456748
[...]
 ------------------------------------------------------------
 O           8.0   0.0000000000   0.0000000000  -0.0652389715
 H           1.0  -0.7616916368   0.0000000000   0.5326194858
 H           1.0   0.7616916368  -0.0000000000   0.5326194858
 ...... END OF ONE-ELECTRON INTEGRALS ......
 STEP CPU TIME =     0.00 TOTAL CPU TIME =        1.1 (    0.0 MIN)
 TOTAL WALL CLOCK TIME=        1.1 SECONDS, CPU UTILIZATION IS  98.21%
 TOTAL NUMBER OF NONZERO TWO-ELECTRON INTEGRALS =                4469
          1 INTEGRAL RECORDS WERE STORED ON DISK FILE  8.
  ...... END OF TWO-ELECTRON INTEGRALS .....
 STEP CPU TIME =     0.00 TOTAL CPU TIME =        1.1 (    0.0 MIN)
 TOTAL WALL CLOCK TIME=        1.1 SECONDS, CPU UTILIZATION IS  97.35%

          --------------------------
                 RHF SCF CALCULATION
          --------------------------
     DENSITY MATRIX CONV=  1.00E-06

 ITER EX DEM     TOTAL ENERGY        E CHANGE  DENSITY CHANGE     ORB. GRAD
          ---------------START SECOND ORDER SCF---------------
   1  0  0      -76.0084260461   -76.0084260461   0.001258427   0.000951272
   2  1  0      -76.0084314879    -0.0000054418   0.000666431   0.000559619
   3  2  0      -76.0084321660    -0.0000006781   0.000083221   0.000097082
   4  3  0      -76.0084322107    -0.0000000448   0.000034813   0.000021080
   5  4  0      -76.0084322139    -0.0000000032   0.000010955   0.000005111
   6  5  0      -76.0084322141    -0.0000000002   0.000002089   0.000001165
   7  6  0      -76.0084322141    -0.0000000000   0.000000843   0.000000339
   8  7  0      -76.0084322141    -0.0000000000   0.000000122   0.000000073

 RHF HAS CONVERGED, NOW COMPUTING EXACT TOTAL FOCK MATRIX
 FOR USE DURING THE COUPLED CLUSTER CALCULATION THAT FOLLOWS.

          -----------------
          DENSITY CONVERGED
          -----------------
     TIME TO FORM FOCK OPERATORS=       0.0 SECONDS (       0.0 SEC/ITER)
     TIME TO SOLVE SCF EQUATIONS=       0.0 SECONDS (       0.0 SEC/ITER)

 FINAL RHF ENERGY IS      -76.0084322141 AFTER   8 ITERATIONS
 ...... END OF RHF CALCULATION ......
 STEP CPU TIME =     0.00 TOTAL CPU TIME =        1.1 (    0.0 MIN)
 TOTAL WALL CLOCK TIME=        1.1 SECONDS, CPU UTILIZATION IS  97.35%

     ---------------------------
     COUPLED CLUSTER CALCULATION
     ---------------------------
 CCTYP                        =CCSD(T) 
 TOTAL NUMBER OF MOS          =    18
 NUMBER OF OCCUPIED MOS       =     5
 NUMBER OF FROZEN CORE MOS    =     1
 NUMBER OF FROZEN VIRTUAL MOS =     0
 MAXIMUM CC ITERATIONS        =    30
 MAXIMUM DIIS ITERATIONS      =     5
 CONVERGENCE CRITERION FOR CC =     7
 AMPLITUDE ACCURACY THRESHOLD = 0.0E+00

     --------------------------------------------
     PARTIAL TWO ELECTRON INTEGRAL TRANSFORMATION
     --------------------------------------------

 NUMBER OF CORE MOLECULAR ORBITALS     =    1
 NUMBER OF OCCUPIED MOLECULAR ORBITALS =   18
 TOTAL NUMBER OF MOLECULAR ORBITALS    =   18
 TOTAL NUMBER OF ATOMIC ORBITALS       =   19
 THRESHOLD FOR KEEPING TRANSFORMED 2E- INTEGRALS = 1.000E-09
 AO INTEGRALS WILL BE READ IN FROM DISK...
 EVALUATING THE FROZEN CORE ENERGY...
 ----- FROZEN CORE ENERGY =       -61.2870649644

 PLAN A: REQUIREMENTS FOR FULLY IN-MEMORY TRANSFORMATION:
 # OF WORDS AVAILABLE =               993371
 # OF WORDS NEEDED    =               123215

 CHOOSING IN MEMORY PARTIAL TRANSFORMATION...
 TOTAL NUMBER OF TRANSFORMED 2E- INTEGRALS KEPT =         3368
 ... END OF INTEGRAL TRANSFORMATION ...
 STEP CPU TIME =     0.01 TOTAL CPU TIME =        1.1 (    0.0 MIN)
 TOTAL WALL CLOCK TIME=        1.1 SECONDS, CPU UTILIZATION IS  98.23%

   -----------------------
   COUPLED-CLUSTER PROGRAM
   -----------------------

   -------------------------------------------------------
   P.PIECUCH, S.A.KUCHARSKI, M.WLOCH, K.KOWALSKI, M.MUSIAL
   -------------------------------------------------------

 THE FOLLOWING CALCULATIONS WILL BE PERFORMED:
                                                     CCSD   
                                                     CCSD[T]
                                                     CCSD(T)

 THE FOLLOWING ENERGY WILL BE CONSIDERED THE HIGHEST LEVEL:    CCSD(T)
 THE AVAILABLE REPLICATED MEMORY IS      993371 WORDS.
 CONVERGENCE THRESHOLD:   1.0E-07
 MAXIMUM NUMBER OF ITERATIONS:   30

 MEMORY TO BE USED IN CC INTEGRAL SORTING IS       60758 WORDS.
 THE MINIMUM MEMORY TO ACCOMPLISH SORTING IS       40985 WORDS.
         3368 NON-ZERO TRANSFORMED 2E- INTEGRALS WERE SORTED INTO FILE 72:
           22 [IJ|KL] TYPE,         150 [AJ|KL] TYPE,
          273 [AB|IJ] TYPE,         393 [IA|BJ] TYPE,
         1308 [AB|CI] TYPE,        1222 [AB|CD] TYPE.
 TRANSFORMED INTEGRAL FILE  9 WAS READ    3 TIMES.
 ....... DONE WITH CC INTEGRAL PREPARATION .......
 STEP CPU TIME =     0.00 TOTAL CPU TIME =        1.1 (    0.0 MIN)
 TOTAL WALL CLOCK TIME=        1.1 SECONDS, CPU UTILIZATION IS  98.23%

 MEMORY REQUIRED FOR THE CCSD ITERATIONS IS       23230 WORDS.
 RESTARTING USING PREVIOUS AMPLITUDES READ FROM A DISK FILE.
 ITER:  4   CCSD    CORR. ENERGY:  -0.1931464651   CONV.: -1.5735E-02
 ITER:  5   CCSD    CORR. ENERGY:  -0.1945460316   CONV.:  1.7283E-03
 ITER:  6   CCSD    CORR. ENERGY:  -0.1947427661   CONV.: -3.2884E-04
 ITER:  7   CCSD    CORR. ENERGY:  -0.1947666940   CONV.:  1.7025E-04
 ITER:  8   CCSD    CORR. ENERGY:  -0.1947677612   CONV.:  4.4953E-05
 ITER:  9   CCSD    CORR. ENERGY:  -0.1947676565   CONV.:  2.3867E-05
 ITER: 10   CCSD    CORR. ENERGY:  -0.1947671287   CONV.:  6.6054E-06
 ITER: 11   CCSD    CORR. ENERGY:  -0.1947669705   CONV.:  2.0766E-06
 ITER: 12   CCSD    CORR. ENERGY:  -0.1947669304   CONV.:  3.2203E-07
 ITER: 13   CCSD    CORR. ENERGY:  -0.1947669325   CONV.:  4.0031E-08
 ITER: 14   CCSD    CORR. ENERGY:  -0.1947669357   CONV.:  4.0031E-08

     THE    CCSD     ITERATIONS HAVE CONVERGED

    MBPT(2) CORRELATION ENERGY:  -0.1855159588
    CCSD    CORRELATION ENERGY:  -0.1947669357

 T1 DIAGNOSTIC        =     0.00581319
 NORM OF THE T1 VECTOR=     0.01644219
 NORM OF THE T2 VECTOR=     0.21671081

 THE FIVE LARGEST T1 AMPLITUDES ARE:
 T1 AMPLITUDE IS -0.008596 FOR I=   4 -> A=   6
 T1 AMPLITUDE IS  0.007382 FOR I=   3 -> A=  12
 T1 AMPLITUDE IS  0.006823 FOR I=   5 -> A=  10
 T1 AMPLITUDE IS -0.004937 FOR I=   2 -> A=  11
 T1 AMPLITUDE IS  0.004630 FOR I=   3 -> A=   7

 THE FIVE LARGEST SPIN-UNIQUE T2 AMPLITUDES ARE:
 T2 AMPLITUDE IS -0.052374 FOR I,J=   5   5 -> A,B=  10  10
 T2 AMPLITUDE IS -0.043487 FOR I,J=   4   4 -> A,B=  11  11
 T2 AMPLITUDE IS -0.040279 FOR I,J=   3   3 -> A,B=   7   7
 T2 AMPLITUDE IS -0.032686 FOR I,J=   4   5 -> A,B=  11  10
 T2 AMPLITUDE IS -0.028171 FOR I,J=   3   3 -> A,B=   8   8
 PRINTED T2(I-ALPHA,J-BETA -> A-ALPHA,B-BETA) VALUES
 EQUAL   T2(J-ALPHA,I-BETA -> B-ALPHA,A-BETA) AMPLITUDES.

 ....... DONE WITH CC AMPLITUDE ITERATIONS .......
 STEP CPU TIME =     0.03 TOTAL CPU TIME =        1.1 (    0.0 MIN)
 TOTAL WALL CLOCK TIME=        1.2 SECONDS, CPU UTILIZATION IS  98.28%

 MEMORY REQUIRED FOR NONITERATIVE TRIPLES (T3WT2  ) IS        19526 WORDS.

                      SUMMARY OF RESULTS

      REFERENCE ENERGY:      -76.0084322141
        MBPT(2) ENERGY:      -76.1939481729   CORR.E=  -0.1855159588
        CCSD    ENERGY:      -76.2031991498   CORR.E=  -0.1947669357
        CCSD[T] ENERGY:      -76.2050710490   CORR.E=  -0.1966388349
        CCSD(T) ENERGY:      -76.2049834594   CORR.E=  -0.1965512453

 THE FOLLOWING METHOD AND ENERGY WILL BE CONSIDERED THE HIGHEST LEVEL RESULT:
 COUPLED-CLUSTER ENERGY E(   CCSD(T)) =      -76.2049834594

 ..... DONE WITH CC NON-ITERATIVE TRIPLES CORRECTIONS .....
 STEP CPU TIME =     0.00 TOTAL CPU TIME =        1.1 (    0.0 MIN)
 TOTAL WALL CLOCK TIME=        1.2 SECONDS, CPU UTILIZATION IS  98.28%
 IMODE=    2 IVIB= 2 E=       -76.2049834594

          NSERCH=  5     ENERGY=     -76.2050029

                                 -----------------------
                                 GRADIENT (HARTREE/BOHR)
                                 -----------------------
        ATOM     ZNUC       DE/DX         DE/DY         DE/DZ
 --------------------------------------------------------------
    1  O            8.0     0.0000000     0.0000000     0.0000003
    2  H            1.0    -0.0000002     0.0000000    -0.0000002
    3  H            1.0     0.0000002     0.0000000    -0.0000002

          MAXIMUM GRADIENT = 0.0000003    RMS GRADIENT = 0.0000002

 NSERCH:   5  E=      -76.2050028818  GRAD. MAX=  0.0000003  R.M.S.=  0.0000002


      ***** EQUILIBRIUM GEOMETRY LOCATED *****
 COORDINATES OF SYMMETRY UNIQUE ATOMS (ANGS)
   ATOM   CHARGE       X              Y              Z
 ------------------------------------------------------------
 O           8.0   0.0000000000   0.0000000000  -0.0652389715
 H           1.0   0.7654334850  -0.0000000000   0.5326194858
 COORDINATES OF ALL ATOMS ARE (ANGS)
   ATOM   CHARGE       X              Y              Z
 ------------------------------------------------------------
 O           8.0   0.0000000000   0.0000000000  -0.0652389715
 H           1.0  -0.7654334850   0.0000000000   0.5326194858
 H           1.0   0.7654334850  -0.0000000000   0.5326194858

          INTERNUCLEAR DISTANCES (ANGS.)
          ------------------------------

                1 O          2 H          3 H     

   1 O       0.0000000    0.9712482 *  0.9712482 *
   2 H       0.9712482 *  0.0000000    1.5308670 *
   3 H       0.9712482 *  1.5308670 *  0.0000000  

  * ... LESS THAN  3.000


          NUCLEAR ENERGY    =        9.0631504051
          ELECTRONIC ENERGY =      -85.0713470787
          TOTAL ENERGY      =      -76.2050028818

          ------------------
          MOLECULAR ORBITALS
          ------------------

                      1          2          3          4          5
                  -20.5575    -1.3363    -0.6993    -0.5705    -0.4971
                     A1         A1         B1         A1         B2  
    1  O  1  S   -0.995801   0.214235   0.000000  -0.069855   0.000000
    2  O  1  S   -0.021910  -0.469140   0.000000   0.171247   0.000000
    3  O  1  X    0.000000   0.000000  -0.505070   0.000000   0.000000
    4  O  1  Y    0.000000   0.000000   0.000000   0.000000   0.639586
    5  O  1  Z   -0.001626  -0.089024   0.000000  -0.552638   0.000000
    6  O  1  S    0.008038  -0.497392   0.000000   0.280413   0.000000
    7  O  1  X    0.000000   0.000000  -0.309977   0.000000   0.000000
    8  O  1  Y    0.000000   0.000000   0.000000   0.000000   0.511525
    9  O  1  Z    0.001827  -0.057479   0.000000  -0.407788   0.000000
   10  O  1 XX    0.000246  -0.010947   0.000000   0.010924   0.000000
   11  O  1 YY   -0.000278   0.016976   0.000000   0.023564   0.000000
   12  O  1 ZZ    0.000032  -0.006028   0.000000  -0.034488   0.000000
   13  O  1 XY    0.000000   0.000000   0.000000   0.000000   0.000000
   14  O  1 XZ    0.000000   0.000000  -0.051223   0.000000   0.000000
   15  O  1 YZ    0.000000   0.000000   0.000000   0.000000   0.033348
   16  H  2  S   -0.000300  -0.127782   0.229265  -0.142388   0.000000
   17  H  2  S   -0.001887   0.007415   0.114722  -0.080540   0.000000
   18  H  3  S   -0.000300  -0.127782  -0.229265  -0.142388   0.000000
   19  H  3  S   -0.001887   0.007415  -0.114722  -0.080540   0.000000

                      6          7          8          9         10
                    0.2121     0.3014     1.0142     1.1544     1.1681
                     A1         B1         B1         A1         B2  
    1  O  1  S    0.085768   0.000000   0.000000   0.063340   0.000000
    2  O  1  S   -0.102748   0.000000   0.000000  -0.309029   0.000000
    3  O  1  X    0.000000   0.333915   0.109296   0.000000   0.000000
    4  O  1  Y    0.000000   0.000000   0.000000   0.000000  -0.962771
    5  O  1  Z   -0.224030   0.000000   0.000000  -0.367872   0.000000
    6  O  1  S   -1.171282   0.000000   0.000000   0.134119   0.000000
    7  O  1  X    0.000000   0.826019   0.601867   0.000000   0.000000
    8  O  1  Y    0.000000   0.000000   0.000000   0.000000   1.036013
    9  O  1  Z   -0.491481   0.000000   0.000000  -0.157899   0.000000
   10  O  1 XX   -0.000161   0.000000   0.000000   0.195184   0.000000
   11  O  1 YY    0.013807   0.000000   0.000000  -0.179527   0.000000
   12  O  1 ZZ   -0.013646   0.000000   0.000000  -0.015657   0.000000
   13  O  1 XY    0.000000   0.000000   0.000000   0.000000   0.000000
   14  O  1 XZ    0.000000   0.021647  -0.198732   0.000000   0.000000
   15  O  1 YZ    0.000000   0.000000   0.000000   0.000000   0.015015
   16  H  2  S    0.058607   0.053983   0.839021   0.871923   0.000000
   17  H  2  S    0.988506   1.366224  -0.506666  -0.497663   0.000000
   18  H  3  S    0.058607  -0.053983  -0.839021   0.871923   0.000000
   19  H  3  S    0.988506  -1.366224   0.506666  -0.497663   0.000000

                     11         12         13         14         15
                    1.1995     1.3770     1.6598     2.0210     2.0368
                     A1         B1         A1         A1         A2  
    1  O  1  S    0.046554   0.000000   0.065040  -0.000823   0.000000
    2  O  1  S   -0.374424   0.000000  -1.595980   0.114922   0.000000
    3  O  1  X    0.000000  -1.033670   0.000000   0.000000   0.000000
    4  O  1  Y    0.000000   0.000000   0.000000   0.000000   0.000000
    5  O  1  Z    0.901024   0.000000  -0.248623   0.008588   0.000000
    6  O  1  S    0.111113   0.000000   2.475997  -0.221715   0.000000
    7  O  1  X    0.000000   1.534996   0.000000   0.000000   0.000000
    8  O  1  Y    0.000000   0.000000   0.000000   0.000000   0.000000
    9  O  1  Z   -1.141297   0.000000   0.720142  -0.133053   0.000000
   10  O  1 XX    0.053610   0.000000  -0.243026  -0.601828   0.000000
   11  O  1 YY   -0.031187   0.000000   0.199269  -0.385097   0.000000
   12  O  1 ZZ   -0.022423   0.000000   0.043757   0.986925   0.000000
   13  O  1 XY    0.000000   0.000000   0.000000   0.000000   1.000000
   14  O  1 XZ    0.000000   0.006426   0.000000   0.000000   0.000000
   15  O  1 YZ    0.000000   0.000000   0.000000   0.000000   0.000000
   16  H  2  S    0.174518  -0.082123  -0.211592   0.075817   0.000000
   17  H  2  S    0.095199   0.884597  -0.624972   0.041586   0.000000
   18  H  3  S    0.174518   0.082123  -0.211592   0.075817   0.000000
   19  H  3  S    0.095199  -0.884597  -0.624972   0.041586   0.000000

     ----------------------------------------------------------------
     PROPERTY VALUES FOR THE RHF   SELF-CONSISTENT FIELD WAVEFUNCTION
     ----------------------------------------------------------------

          ---------------------------------------
          MULLIKEN AND LOWDIN POPULATION ANALYSES
          ---------------------------------------

               ----- POPULATIONS IN EACH AO -----
                             MULLIKEN      LOWDIN
              1  O  1  S      1.99775     1.97869
              2  O  1  S      0.89509     0.71474
              3  O  1  X      0.79629     0.73812
              4  O  1  Y      1.14630     1.12642
              5  O  1  Z      0.93581     0.89374
              6  O  1  S      1.00520     0.49613
              7  O  1  X      0.53360     0.59384
              8  O  1  Y      0.85148     0.87136
              9  O  1  Z      0.70255     0.74062
             10  O  1 XX      0.00310     0.19970
             11  O  1 YY      0.00327     0.16782
             12  O  1 ZZ      0.00000     0.17781
             13  O  1 XY      0.02186     0.00000
             14  O  1 XZ      0.00222     0.02737
             15  O  1 YZ      0.00000     0.00222
             16  H  2  S      0.45719     0.42624
             17  H  2  S      0.09555     0.20947
             18  H  3  S      0.45719     0.42624
             19  H  3  S      0.09555     0.20947

          ----- MULLIKEN ATOMIC OVERLAP POPULATIONS -----
          (OFF-DIAGONAL ELEMENTS NEED TO BE MULTIPLIED BY 2)

             1           2           3

    1    8.3741687
    2    0.2601791   0.3147035
    3    0.2601791  -0.0221460   0.3147035

          TOTAL MULLIKEN AND LOWDIN ATOMIC POPULATIONS
       ATOM         MULL.POP.    CHARGE          LOW.POP.     CHARGE
    1 O             8.894527   -0.894527         8.728583   -0.728583
    2 H             0.552737    0.447263         0.635709    0.364291
    3 H             0.552737    0.447263         0.635709    0.364291

          MULLIKEN SPHERICAL HARMONIC POPULATIONS
       ATOM           S       P       D      F      G      H      I    TOTAL
    1 O             3.90    4.97    0.03   0.00   0.00   0.00   0.00    8.89
    2 H             0.55    0.00    0.00   0.00   0.00   0.00   0.00    0.55
    3 H             0.55    0.00    0.00   0.00   0.00   0.00   0.00    0.55

          -------------------------------
          BOND ORDER AND VALENCE ANALYSIS     BOND ORDER THRESHOLD=0.050
          -------------------------------

                   BOND                       BOND                       BOND
  ATOM PAIR DIST  ORDER      ATOM PAIR DIST  ORDER      ATOM PAIR DIST  ORDER
    1   2  0.971  0.771        1   3  0.971  0.771

                       TOTAL       BONDED        FREE
      ATOM            VALENCE     VALENCE     VALENCE
    1 O                 1.542       1.542      -0.000
    2 H                 0.767       0.767       0.000
    3 H                 0.767       0.767       0.000

          ---------------------
          ELECTROSTATIC MOMENTS
          ---------------------

 POINT   1           X           Y           Z (BOHR)    CHARGE
                 0.000000    0.000000    0.003156        0.00 (A.U.)
         DX          DY          DZ         /D/  (DEBYE)
    -0.000000    0.000000    2.239378    2.239378
 ...... END OF PROPERTY EVALUATION ......
 STEP CPU TIME =     0.01 TOTAL CPU TIME =        1.1 (    0.0 MIN)
 TOTAL WALL CLOCK TIME=        1.2 SECONDS, CPU UTILIZATION IS  98.29%
  $VIB   
          IVIB=   0 IATOM=   0 ICOORD=   0 E=      -76.2050028818
  0.000000000E+00 0.000000000E+00 3.394566505E-07-2.094618899E-07 0.000000000E+00
 -1.697283252E-07 2.094618899E-07 0.000000000E+00-1.697283252E-07
 -5.643854273E-16 1.384521335E-16 2.239378092E+00
 ......END OF GEOMETRY SEARCH......
 STEP CPU TIME =     0.00 TOTAL CPU TIME =        1.1 (    0.0 MIN)
 TOTAL WALL CLOCK TIME=        1.2 SECONDS, CPU UTILIZATION IS  98.29%
               580000  WORDS OF DYNAMIC MEMORY USED
 EXECUTION OF GAMESS TERMINATED NORMALLY Wed Aug  9 20:34:12 2017
 DDI: 263704 bytes (0.3 MB / 0 MWords) used by master data server.

 ----------------------------------------
 CPU timing information for all processes
 ========================================
 0: 1.45 + 0.113 = 1.159
 ----------------------------------------
 ddikick.x: exited gracefully.
unset echo
----- accounting info -----
Files used on the master node compute-0-6.local were:
-rw-rw-r-- 1 sarom sarom 1.6K Aug  9 20:34 /scratch/h2o-opt-numgrd.F05
-rw-rw-r-- 1 sarom sarom 176K Aug  9 20:34 /scratch/h2o-opt-numgrd.F08
-rw-rw-r-- 1 sarom sarom 177K Aug  9 20:34 /scratch/h2o-opt-numgrd.F09
-rw-rw-r-- 1 sarom sarom 1.9M Aug  9 20:34 /scratch/h2o-opt-numgrd.F10
-rw-rw-r-- 1 sarom sarom 380K Aug  9 20:34 /scratch/h2o-opt-numgrd.F70
-rw-rw-r-- 1 sarom sarom 216K Aug  9 20:34 /scratch/h2o-opt-numgrd.F71
-rw-rw-r-- 1 sarom sarom 842K Aug  9 20:34 /scratch/h2o-opt-numgrd.F72
-rw-rw-r-- 1 sarom sarom 1.7K Aug  9 20:34 /scratch/h2o-opt-numgrd.F73
-rw-rw-r-- 1 sarom sarom  43K Aug  9 20:34 /scratch/h2o-opt-numgrd.F74
-rw-rw-r-- 1 sarom sarom    0 Aug  9 20:34 /scratch/h2o-opt-numgrd.F75
-rw-rw-r-- 1 sarom sarom    0 Aug  9 20:34 /scratch/h2o-opt-numgrd.F76
-rw-rw-r-- 1 sarom sarom    0 Aug  9 20:34 /scratch/h2o-opt-numgrd.F77
rm: No match.
ls: No match.
ls: No match.
ls: No match.
Wed Aug  9 20:34:15 CDT 2017
0.248u 0.168s 0:04.65 8.6%	0+0k 8+368io 0pf+0w
/opt/gridengine/default/spool/compute-0-6/active_jobs/35884.1/pe_hostfile compute-0-6.local
