-catch_rsh /opt/gridengine/default/spool/compute-1-1/active_jobs/35886.1/pe_hostfile
compute-1-1
The primary node assigned by SGE to this run is compute-1-1
Warning: no access to tty (Bad file descriptor).
Thus no job control in this shell.
source /home/sarom/dir.git.branch.saromleang-travis-ci/install.info
setenv GMS_PATH /home/sarom/dir.git.branch.saromleang-travis-ci
setenv GMS_BUILD_DIR /home/sarom/dir.git.branch.saromleang-travis-ci
setenv GMS_TARGET linux64
setenv GMS_FORTRAN gfortran
setenv GMS_GFORTRAN_VERNO 4.4
setenv GMS_MATHLIB mkl-so
setenv GMS_MATHLIB none
setenv GMS_MATHLIB_PATH /share/apps/intel/compilers_and_libraries_2017.1.132/linux/mkl/lib/intel64
setenv GMS_MKL_VERNO 12
setenv GMS_DDI_COMM sockets
setenv GMS_LIBCCHEM false
setenv GMS_EIGEN_PATH
setenv GMS_PHI false
setenv GMS_SHMTYPE sysv
setenv GMS_OPENMP false
unset echo
hooh-fullnum
/home/sarom/dir.git.branch.saromleang-travis-ci/tests/numdiff/parallel
----- GAMESS execution script 'rungms' -----
This job is running on host compute-1-1.local
under operating system Linux at Wed Aug 9 20:34:41 CDT 2017
Available scratch disk space (Kbyte units) at beginning of the job is
Filesystem           1K-blocks      Used Available Use% Mounted on
/dev/sda1             16126920   9109384   6198336  60% /
GAMESS temporary binary files will be written to /scratch
GAMESS supplementary output files will be written to /home/sarom/restart
Copying input file hooh-fullnum.inp to your run's scratch directory...
cp /home/sarom/dir.git.branch.saromleang-travis-ci/tests/numdiff/parallel/hooh-fullnum.inp /scratch/hooh-fullnum.F05
unset echo
The generated host list is
compute-1-1.local
/home/sarom/dir.git.branch.saromleang-travis-ci/ddikick.x /home/sarom/dir.git.branch.saromleang-travis-ci/gamess.00.x hooh-fullnum -ddi 1 1 compute-1-1.local -scr /scratch

 Distributed Data Interface kickoff program.
 Initiating 1 compute processes on 1 nodes to run the following command:
 /home/sarom/dir.git.branch.saromleang-travis-ci/gamess.00.x hooh-fullnum 

          ******************************************************
          *         GAMESS VERSION = 20 APR 2017 (R1)          *
          *             FROM IOWA STATE UNIVERSITY             *
          * M.W.SCHMIDT, K.K.BALDRIDGE, J.A.BOATZ, S.T.ELBERT, *
          *   M.S.GORDON, J.H.JENSEN, S.KOSEKI, N.MATSUNAGA,   *
          *          K.A.NGUYEN, S.J.SU, T.L.WINDUS,           *
          *       TOGETHER WITH M.DUPUIS, J.A.MONTGOMERY       *
          *         J.COMPUT.CHEM.  14, 1347-1363(1993)        *
          **************** 64 BIT LINUX VERSION ****************

  SINCE 1993, STUDENTS AND POSTDOCS WORKING AT IOWA STATE UNIVERSITY
  AND ALSO IN THEIR VARIOUS JOBS AFTER LEAVING ISU HAVE MADE IMPORTANT
  CONTRIBUTIONS TO THE CODE:
     IVANA ADAMOVIC, CHRISTINE AIKENS, YURI ALEXEEV, POOJA ARORA,
     ANDREY ASADCHEV, ROB BELL, PRADIPTA BANDYOPADHYAY, JONATHAN BENTZ,
     BRETT BODE, KURT BRORSEN, CALEB CARLIN, GALINA CHABAN, WEI CHEN,
     CHEOL HO CHOI, PAUL DAY, ALBERT DEFUSCO, NUWAN DESILVA, TIM DUDLEY,
     DMITRI FEDOROV, GRAHAM FLETCHER, MARK FREITAG, KURT GLAESEMANN,
     DAN KEMP, GRANT MERRILL, NORIYUKI MINEZAWA, JONATHAN MULLIN,
     TAKESHI NAGATA, SEAN NEDD, HEATHER NETZLOFF, BOSILJKA NJEGIC, RYAN OLSON,
     MIKE PAK, SPENCER PRUITT, LUKE ROSKOP, JIM SHOEMAKER, LYUDMILA SLIPCHENKO,
     TONY SMITH, SAROM SOK LEANG, JIE SONG, TETSUYA TAKETSUGU, SIMON WEBB,
     PENG XU, SOOHAENG YOO, FEDERICO ZAHARIEV

  ADDITIONAL CODE HAS BEEN PROVIDED BY COLLABORATORS IN OTHER GROUPS:
     IOWA STATE UNIVERSITY:
          JOE IVANIC, AARON WEST, LAIMUTIS BYTAUTAS, KLAUS RUEDENBERG
     UNIVERSITY OF TOKYO: KIMIHIKO HIRAO, TAKAHITO NAKAJIMA,
          TAKAO TSUNEDA, MUNEAKI KAMIYA, SUSUMU YANAGISAWA,
          KIYOSHI YAGI, MAHITO CHIBA, SEIKEN TOKURA, NAOAKI KAWAKAMI
     UNIVERSITY OF AARHUS: FRANK JENSEN
     UNIVERSITY OF IOWA: VISVALDAS KAIRYS, HUI LI
     NATIONAL INST. OF STANDARDS AND TECHNOLOGY: WALT STEVENS, DAVID GARMER
     UNIVERSITY OF PISA: BENEDETTA MENNUCCI, JACOPO TOMASI
     UNIVERSITY OF MEMPHIS: HENRY KURTZ, PRAKASHAN KORAMBATH
     UNIVERSITY OF ALBERTA: TOBY ZENG, MARIUSZ KLOBUKOWSKI
     UNIVERSITY OF NEW ENGLAND: MARK SPACKMAN
     MIE UNIVERSITY: HIROAKI UMEDA
     NAT. INST. OF ADVANCED INDUSTRIAL SCIENCE AND TECHNOLOGY: KAZUO KITAURA
     MICHIGAN STATE UNIVERSITY:
          KAROL KOWALSKI, MARTA WLOCH, JEFFREY GOUR, JESSE LUTZ,
          WEI LI, PIOTR PIECUCH
     UNIVERSITY OF SILESIA: MONIKA MUSIAL, STANISLAW KUCHARSKI
     FACULTES UNIVERSITAIRES NOTRE-DAME DE LA PAIX:
          OLIVIER QUINET, BENOIT CHAMPAGNE
     UNIVERSITY OF CALIFORNIA - SANTA BARBARA: BERNARD KIRTMAN
     INSTITUTE FOR MOLECULAR SCIENCE:
          KAZUYA ISHIMURA, MICHIO KATOUDA, AND SHIGERU NAGASE
     UNIVERSITY OF NOTRE DAME: ANNA POMOGAEVA, DAN CHIPMAN
     KYUSHU UNIVERSITY:
          HARUYUKI NAKANO,
          FENG LONG GU, JACEK KORCHOWIEC, MARCIN MAKOWSKI, AND YURIKO AOKI,
          HIROTOSHI MORI AND EISAKU MIYOSHI
     PENNSYLVANIA STATE UNIVERSITY:
          TZVETELIN IORDANOV, CHET SWALINA, JONATHAN SKONE,
          SHARON HAMMES-SCHIFFER
     WASEDA UNIVERSITY:
          MASATO KOBAYASHI, TOMOKO AKAMA, TSUGUKI TOUMA,
          TAKESHI YOSHIKAWA, YASUHIRO IKABATA, JUNJI SEINO,
          YUYA NAKAJIMA, HIROMI NAKAI
     NANJING UNIVERSITY: SHUHUA LI
     UNIVERSITY OF NEBRASKA:
          PEIFENG SU, DEJUN SI, NANDUN THELLAMUREGE, YALI WANG, HUI LI
     UNIVERSITY OF ZURICH: ROBERTO PEVERATI, KIM BALDRIDGE
     N. COPERNICUS UNIVERSITY AND JACKSON STATE UNIVERSITY:
          MARIA BARYSZ
     UNIVERSITY OF COPENHAGEN: Jimmy Kromann, CASPER STEINMANN
     TOKYO INSTITUTE OF TECHNOLOGY: HIROYA NAKATA
     NAGOYA UNIVERSITY: YOSHIO NISHIMOTO, STEPHAN IRLE
     MOSCOW STATE UNIVERSITY: VLADIMIR MIRONOV

 EXECUTION OF GAMESS BEGUN Wed Aug  9 20:34:41 2017

            ECHO OF THE FIRST FEW INPUT CARDS -
 INPUT CARD>!  hydrogen peroxide -                                                          
 INPUT CARD>!  illustration of accuracy with increasing numerical differentiation           
 INPUT CARD>!                                                                               
 INPUT CARD>!      analytic: F.EQ= 398.54  1150.70  1493.01  1634.52  4090.64  4092.55      
 INPUT CARD>!  semi-numeric: F.EQ= 398.21  1150.77  1492.96  1634.82  4090.64  4092.56      
 INPUT CARD>! fully numeric: FREQ= 396.76  1150.87  1492.98  1634.47  4090.82  4092.73      
 INPUT CARD>!                                                                               
 INPUT CARD>!      analytic residuals:   4.52  1.03  0.01  0.05  1.07   1.79                
 INPUT CARD>!  semi-numeric residuals:  22.97  8.55  3.20  0.62  1.12  19.45                
 INPUT CARD>! fully numeric residuals:  37.62  2.31  1.13  0.73  0.39   3.25                
 INPUT CARD>!                                                                               
 INPUT CARD>!  This run takes 7 seconds on 2.66 GHz Cloverton (15 Apr 2015)                 
 INPUT CARD>!      the results have not changed appreciably since 2003.                     
 INPUT CARD>!  our old J50 needed analytic=16  semi-numeric=44  fully numeric=257 s.conds   
 INPUT CARD>!                                                                               
 INPUT CARD> $contrl scftyp=rhf runtyp=hessian nzvar=6 $end                                 
 INPUT CARD> $system mwords=1 $end                                                          
 INPUT CARD> $basis  gbasis=n31 ngauss=6 ndfunc=1 $end                                      
 INPUT CARD> $guess  guess=huckel $end                                                      
 INPUT CARD> $force  method=fullnum vibsiz=0.01 nvib=2 $end                                 
 INPUT CARD> $zmat   izmat(1)=1,1,2, 1,1,3, 1,2,4, 2,3,1,2, 2,4,2,1, 3,3,1,2,4 $end         
 INPUT CARD> $data                                                                          
 INPUT CARD>HOOH                                                                            
 INPUT CARD>Cn 2                                                                            
 INPUT CARD>                                                                                
 INPUT CARD>O           8.0  -0.6966330151  -0.0471827268  -0.0113676137                    
 INPUT CARD>H           1.0  -0.9479954216   0.7247991726   0.4804122311                    
 INPUT CARD> $end                                                                           
    1000000 WORDS OF MEMORY AVAILABLE

     BASIS OPTIONS
     -------------
     GBASIS=N31          IGAUSS=       6      POLAR=POPN31  
     NDFUNC=       1     NFFUNC=       0     DIFFSP=       F
     NPFUNC=       0      DIFFS=       F     BASNAM=        


     RUN TITLE
     ---------
 HOOH                                                                            

 THE POINT GROUP OF THE MOLECULE IS CN      
 THE ORDER OF THE PRINCIPAL AXIS IS     2

 ATOM      ATOMIC                      COORDINATES (BOHR)
           CHARGE         X                   Y                   Z
 O           8.0     1.3164455125        0.0891624250       -0.0214816750
 O           8.0    -1.3164455125       -0.0891624250       -0.0214816750
 H           1.0     1.7914515844       -1.3696718323        0.9078474779
 H           1.0    -1.7914515844        1.3696718323        0.9078474779

          INTERNUCLEAR DISTANCES (ANGS.)
          ------------------------------

                1 O          2 O          3 H          4 H     

   1 O       0.0000000    1.3964580 *  0.9492031 *  1.8454848 *
   2 O       1.3964580 *  0.0000000    1.8454848 *  0.9492031 *
   3 H       0.9492031 *  1.8454848 *  0.0000000    2.3866539 *
   4 H       1.8454848 *  0.9492031 *  2.3866539 *  0.0000000  

  * ... LESS THAN  3.000


     ATOMIC BASIS SET
     ----------------
 THE CONTRACTED PRIMITIVE FUNCTIONS HAVE BEEN UNNORMALIZED
 THE CONTRACTED BASIS FUNCTIONS ARE NOW NORMALIZED TO UNITY

  SHELL TYPE  PRIMITIVE        EXPONENT          CONTRACTION COEFFICIENT(S)

 O         

      5   S       1          5484.6716600    0.001831074430
      5   S       2           825.2349460    0.013950172200
      5   S       3           188.0469580    0.068445078098
      5   S       4            52.9645000    0.232714335992
      5   S       5            16.8975704    0.470192897984
      5   S       6             5.7996353    0.358520852987

      6   L       7            15.5396162   -0.110777549525    0.070874268231
      6   L       8             3.5999336   -0.148026262701    0.339752839147
      6   L       9             1.0137618    1.130767015354    0.727158577316

      7   L      10             0.2700058    1.000000000000    1.000000000000

      8   D      11             0.8000000    1.000000000000

 H         

     11   S      12            18.7311370    0.033494604338
     11   S      13             2.8253944    0.234726953484
     11   S      14             0.6401217    0.813757326146

     12   S      15             0.1612778    1.000000000000

 TOTAL NUMBER OF BASIS SET SHELLS             =   12
 NUMBER OF CARTESIAN GAUSSIAN BASIS FUNCTIONS =   34
 NUMBER OF ELECTRONS                          =   18
 CHARGE OF MOLECULE                           =    0
 SPIN MULTIPLICITY                            =    1
 NUMBER OF OCCUPIED ORBITALS (ALPHA)          =    9
 NUMBER OF OCCUPIED ORBITALS (BETA )          =    9
 TOTAL NUMBER OF ATOMS                        =    4
 THE NUCLEAR REPULSION ENERGY IS       37.9818478640

     $CONTRL OPTIONS
     ---------------
 SCFTYP=RHF          RUNTYP=HESSIAN      EXETYP=RUN     
 MPLEVL=       0     CITYP =NONE         CCTYP =NONE         VBTYP =NONE    
 DFTTYP=NONE         TDDFT =NONE    
 MULT  =       1     ICHARG=       0     NZVAR =       6     COORD =UNIQUE  
 PP    =NONE         RELWFN=NONE         LOCAL =NONE         NUMGRD=       F
 ISPHER=      -1     NOSYM =       0     MAXIT =      30     UNITS =ANGS    
 PLTORB=       F     MOLPLT=       F     AIMPAC=       F     FRIEND=        
 NPRINT=       7     IREST =       0     GEOM  =INPUT   
 NORMF =       0     NORMP =       0     ITOL  =      20     ICUT  =       9
 INTTYP=BEST         GRDTYP=BEST         QMTTOL= 1.0E-06

     $SYSTEM OPTIONS
     ---------------
  REPLICATED MEMORY=     1000000 WORDS (ON EVERY NODE).
 DISTRIBUTED MEMDDI=           0 MILLION WORDS IN AGGREGATE,
 MEMDDI DISTRIBUTED OVER   1 PROCESSORS IS           0 WORDS/PROCESSOR.
 TOTAL MEMORY REQUESTED ON EACH PROCESSOR=     1000000 WORDS.
 TIMLIM=      525600.00 MINUTES, OR     365.0 DAYS.
 PARALL= F  BALTYP=  DLB     KDIAG=    0  COREFL= F
 MXSEQ2=     300 MXSEQ3=     150  mem10=         0

          ----------------
          PROPERTIES INPUT
          ----------------

     MOMENTS            FIELD           POTENTIAL          DENSITY
 IEMOM =       1   IEFLD =       0   IEPOT =       0   IEDEN =       0
 WHERE =COMASS     WHERE =NUCLEI     WHERE =NUCLEI     WHERE =NUCLEI  
 OUTPUT=BOTH       OUTPUT=BOTH       OUTPUT=BOTH       OUTPUT=BOTH    
 IEMINT=       0   IEFINT=       0                     IEDINT=       0
                                                       MORB  =       0
          EXTRAPOLATION IN EFFECT
          SOSCF IN EFFECT
 ORBITAL PRINTING OPTION: NPREO=     1    34     2     1

     -------------------------------
     INTEGRAL TRANSFORMATION OPTIONS
     -------------------------------
     NWORD  =            0
     CUTOFF = 1.0E-09     MPTRAN =       0
     DIRTRF =       F     AOINTS =DUP     

          ----------------------
          INTEGRAL INPUT OPTIONS
          ----------------------
 NOPK  =       1 NORDER=       0 SCHWRZ=       F

     ------------------------------------------
     THE POINT GROUP IS CN , NAXIS= 2, ORDER= 2
     ------------------------------------------

     DIMENSIONS OF THE SYMMETRY SUBSPACES ARE
 A   =   17     B   =   17

 ..... DONE SETTING UP THE RUN .....
 STEP CPU TIME =     0.01 TOTAL CPU TIME =        0.0 (    0.0 MIN)
 TOTAL WALL CLOCK TIME=        0.0 SECONDS, CPU UTILIZATION IS  50.00%

     ---------------------------------
     HESSIAN MATRIX CONTROL PARAMETERS
     ---------------------------------
     METHOD=FULLNUM    NVIB  =       2   VIBSIZ= 0.01000
     RDHESS=       F   PURIFY=       F   PRTIFC=       F
     VIBANL=       T   DECOMP=       F   PROJCT=       F
     SCLFAC= 1.00000   PRTSCN=       F   NPRT  =       0
     PULCOR=       F   NPUN  =       0   REDOVB=       T
     HSSTYP=GENERAL 
     THERMOCHEMISTRY WILL BE PRINTED FOR    1 TEMPERATURES:
      298.15000

               * * * EFFICIENCY NOTE * * *
 THIS CALCULATION CAN BE RUN WITH DIFFERENTIATION METHOD=ANALYTIC
 THIS MIGHT BE MORE ACCURATE AND/OR FASTER THAN YOUR CHOICE,
 BUT THE REQUESTED CALCULATION METHOD=FULLNUM  IS PROCEEDING.


   --- ENCODED Z MATRIX ---
 COORD  TYPE   I   J   K   L   M   N
    1      1    1   2
    2      1    1   3
    3      1    2   4
    4      2    3   1   2
    5      2    4   2   1
    6      3    3   1   2   4

 THE DETERMINANT OF THE G MATRIX IS 10**(    -2)


                     --------------------
                     INTERNAL COORDINATES
                     --------------------

                 - - ATOMS - -         COORDINATE      COORDINATE
 NO.   TYPE    I  J  K  L  M  N        (BOHR,RAD)       (ANG,DEG)
 ----------------------------------------------------------------
   1 STRETCH   1  2                     2.6389231       1.3964580
   2 STRETCH   1  3                     1.7937338       0.9492031
   3 STRETCH   2  4                     1.7937338       0.9492031
   4 BEND      3  1  2                  1.7816048     102.0784366
   5 BEND      4  2  1                  1.7816048     102.0784366
   6 TORSION   3  1  2  4               2.0247998     116.0124839

          ********************
          1 ELECTRON INTEGRALS
          ********************
 ...... END OF ONE-ELECTRON INTEGRALS ......
 STEP CPU TIME =     0.00 TOTAL CPU TIME =        0.0 (    0.0 MIN)
 TOTAL WALL CLOCK TIME=        0.0 SECONDS, CPU UTILIZATION IS  50.00%

          -------------
          GUESS OPTIONS
          -------------
          GUESS =HUCKEL            NORB  =       0          NORDER=       0
          MIX   =       F          PRTMO =       F          PUNMO =       F
          TOLZ  = 1.0E-08          TOLE  = 1.0E-05
          SYMDEN=       F          PURIFY=       F

 INITIAL GUESS ORBITALS GENERATED BY HUCKEL   ROUTINE.
 HUCKEL GUESS REQUIRES     12084 WORDS.

 SYMMETRIES FOR INITIAL GUESS ORBITALS FOLLOW.   BOTH SET(S).
     9 ORBITALS ARE OCCUPIED (    2 CORE ORBITALS).
     3=A        4=B        5=A        6=B        7=A        8=A        9=B   
    10=B       11=A       12=B       13=A       14=A       15=A       16=A   
    17=A       18=A       19=A   
 ...... END OF INITIAL ORBITAL SELECTION ......
 STEP CPU TIME =     0.00 TOTAL CPU TIME =        0.0 (    0.0 MIN)
 TOTAL WALL CLOCK TIME=        0.0 SECONDS, CPU UTILIZATION IS  50.00%

                    ----------------------
                    AO INTEGRAL TECHNOLOGY
                    ----------------------
     S,P,L SHELL ROTATED AXIS INTEGRALS, REPROGRAMMED BY
        KAZUYA ISHIMURA (IMS) AND JOSE SIERRA (SYNSTAR).
     S,P,D,L SHELL ROTATED AXIS INTEGRALS PROGRAMMED BY
        KAZUYA ISHIMURA (INSTITUTE FOR MOLECULAR SCIENCE).
     S,P,D,F,G SHELL TO TOTAL QUARTET ANGULAR MOMENTUM SUM 5,
        ERIC PROGRAM BY GRAHAM FLETCHER (ELORET AND NASA ADVANCED
        SUPERCOMPUTING DIVISION, AMES RESEARCH CENTER).
     S,P,D,F,G,L SHELL GENERAL RYS QUADRATURE PROGRAMMED BY
        MICHEL DUPUIS (PACIFIC NORTHWEST NATIONAL LABORATORY).

          --------------------
          2 ELECTRON INTEGRALS
          --------------------

 THE -PK- OPTION IS OFF, THE INTEGRALS ARE NOT IN SUPERMATRIX FORM.
 STORING   15000 INTEGRALS/RECORD ON DISK, USING 12 BYTES/INTEGRAL.
 TWO ELECTRON INTEGRAL EVALUATION REQUIRES   90474 WORDS OF MEMORY.
 II,JST,KST,LST =  1  1  1  1 NREC =         1 INTLOC =    1
 II,JST,KST,LST =  2  1  1  1 NREC =         1 INTLOC =    1
 II,JST,KST,LST =  3  1  1  1 NREC =         1 INTLOC =    1
 II,JST,KST,LST =  4  1  1  1 NREC =         1 INTLOC =    1
 II,JST,KST,LST =  5  1  1  1 NREC =         1 INTLOC =    1
 II,JST,KST,LST =  6  1  1  1 NREC =         1 INTLOC =    3
 II,JST,KST,LST =  7  1  1  1 NREC =         1 INTLOC =  473
 II,JST,KST,LST =  8  1  1  1 NREC =         1 INTLOC = 4046
 II,JST,KST,LST =  9  1  1  1 NREC =         2 INTLOC =12423
 II,JST,KST,LST = 10  1  1  1 NREC =         2 INTLOC =12423
 II,JST,KST,LST = 11  1  1  1 NREC =         2 INTLOC =12423
 II,JST,KST,LST = 12  1  1  1 NREC =         3 INTLOC =13149
 TOTAL NUMBER OF NONZERO TWO-ELECTRON INTEGRALS =               62046
          5 INTEGRAL RECORDS WERE STORED ON DISK FILE  8.
  ...... END OF TWO-ELECTRON INTEGRALS .....
 STEP CPU TIME =     0.02 TOTAL CPU TIME =        0.0 (    0.0 MIN)
 TOTAL WALL CLOCK TIME=        0.0 SECONDS, CPU UTILIZATION IS  75.00%

          --------------------------
                 RHF SCF CALCULATION
          --------------------------

     NUCLEAR ENERGY =        37.9818478640
     MAXIT =   30     NPUNCH=    2
     EXTRAP=T  DAMP=F  SHIFT=F  RSTRCT=F  DIIS=F  DEM=F  SOSCF=T
     DENSITY MATRIX CONV=  1.00E-05
     SOSCF WILL OPTIMIZE     225 ORBITAL ROTATIONS, SOGTOL=   0.250
     MEMORY REQUIRED FOR RHF ITERS=     39468 WORDS.

 ITER EX DEM     TOTAL ENERGY        E CHANGE  DENSITY CHANGE     ORB. GRAD
   1  0  0     -150.3130139811  -150.3130139811   0.237973872   0.000000000
          ---------------START SECOND ORDER SCF---------------
   2  1  0     -150.7410635106    -0.4280495295   0.079485528   0.047638504
   3  2  0     -150.7624267306    -0.0213632200   0.030251085   0.019191628
   4  3  0     -150.7646063435    -0.0021796129   0.003982146   0.004810200
   5  4  0     -150.7647578190    -0.0001514756   0.001873790   0.001361952
   6  5  0     -150.7647808966    -0.0000230775   0.001571831   0.000689078
   7  6  0     -150.7647864173    -0.0000055208   0.000225503   0.000137999
   8  7  0     -150.7647867685    -0.0000003512   0.000168472   0.000092665
   9  8  0     -150.7647868643    -0.0000000957   0.000019203   0.000014840
  10  9  0     -150.7647868661    -0.0000000018   0.000005503   0.000002197
  11 10  0     -150.7647868661    -0.0000000001   0.000001007   0.000000391

          -----------------
          DENSITY CONVERGED
          -----------------
     TIME TO FORM FOCK OPERATORS=       0.0 SECONDS (       0.0 SEC/ITER)
     TIME TO SOLVE SCF EQUATIONS=       0.0 SECONDS (       0.0 SEC/ITER)

 FINAL RHF ENERGY IS     -150.7647868661 AFTER  11 ITERATIONS

          ------------
          EIGENVECTORS
          ------------

                      1          2          3          4          5
                  -20.6284   -20.6280    -1.4982    -1.2057    -0.7254
                     A          B          A          B          A   
    1  O  1  S    0.703350   0.703407  -0.148894  -0.149516   0.011220
    2  O  1  S    0.015009   0.014797   0.341754   0.350296  -0.026055
    3  O  1  X   -0.000904  -0.000419  -0.080885   0.091821   0.243886
    4  O  1  Y   -0.000705  -0.000659  -0.040126  -0.074232  -0.140325
    5  O  1  Z    0.000442   0.000461   0.027933   0.042432   0.287133
    6  O  1  S    0.002619   0.002268   0.268010   0.355527  -0.035703
    7  O  1  X    0.000306   0.000482  -0.029747   0.041666   0.138018
    8  O  1  Y    0.000291   0.000285  -0.019381  -0.038195  -0.082061
    9  O  1  Z   -0.000113  -0.000265   0.016354   0.025612   0.171539
   10  O  1 XX   -0.002960  -0.003000   0.026710  -0.010877  -0.029125
   11  O  1 YY   -0.002708  -0.002703   0.009046   0.020727   0.017692
   12  O  1 ZZ   -0.002657  -0.002621   0.002065   0.010262   0.016041
   13  O  1 XY    0.000003   0.000019   0.000049  -0.007300  -0.015215
   14  O  1 XZ   -0.000022  -0.000014  -0.000740   0.005247  -0.002047
   15  O  1 YZ    0.000067   0.000096  -0.007614  -0.012428  -0.020882
   16  O  2  S    0.703350  -0.703407  -0.148894   0.149516   0.011220
   17  O  2  S    0.015009  -0.014797   0.341754  -0.350296  -0.026055
   18  O  2  X    0.000904  -0.000419   0.080885   0.091821  -0.243886
   19  O  2  Y    0.000705  -0.000659   0.040126  -0.074232   0.140325
   20  O  2  Z    0.000442  -0.000461   0.027933  -0.042432   0.287133
   21  O  2  S    0.002619  -0.002268   0.268010  -0.355527  -0.035703
   22  O  2  X   -0.000306   0.000482   0.029747   0.041666  -0.138018
   23  O  2  Y   -0.000291   0.000285   0.019381  -0.038195   0.082061
   24  O  2  Z   -0.000113   0.000265   0.016354  -0.025612   0.171539
   25  O  2 XX   -0.002960   0.003000   0.026710   0.010877  -0.029125
   26  O  2 YY   -0.002708   0.002703   0.009046  -0.020727   0.017692
   27  O  2 ZZ   -0.002657   0.002621   0.002065  -0.010262   0.016041
   28  O  2 XY    0.000003  -0.000019   0.000049   0.007300  -0.015215
   29  O  2 XZ    0.000022  -0.000014   0.000740   0.005247   0.002047
   30  O  2 YZ   -0.000067   0.000096   0.007614  -0.012428   0.020882
   31  H  3  S    0.000199   0.000307   0.082033   0.130013   0.175665
   32  H  3  S   -0.000187  -0.000068  -0.008831   0.000145   0.076772
   33  H  4  S    0.000199  -0.000307   0.082033  -0.130013   0.175665
   34  H  4  S   -0.000187   0.000068  -0.008831  -0.000145   0.076772

                      6          7          8          9         10
                   -0.7147    -0.6185    -0.5082    -0.4687     0.2235
                     B          A          A          B          A   
    1  O  1  S   -0.053512  -0.030578  -0.035241   0.019740   0.059061
    2  O  1  S    0.124792   0.074927   0.074363  -0.048247  -0.050091
    3  O  1  X    0.019684   0.322788   0.160001  -0.024959  -0.073091
    4  O  1  Y    0.382105  -0.051566   0.412253   0.114291   0.136847
    5  O  1  Z   -0.058415  -0.295577   0.127492   0.469119  -0.093858
    6  O  1  S    0.201639   0.134105   0.184767  -0.086469  -0.806635
    7  O  1  X    0.021059   0.211816   0.110414  -0.025532  -0.134076
    8  O  1  Y    0.233533  -0.038400   0.305188   0.098174   0.350116
    9  O  1  Z   -0.027924  -0.206373   0.100404   0.361502  -0.220649
   10  O  1 XX    0.004399  -0.023972  -0.012075  -0.001697   0.030056
   11  O  1 YY   -0.021698   0.015370  -0.022563  -0.008451   0.025774
   12  O  1 ZZ    0.001921  -0.001778   0.009629   0.016172   0.032215
   13  O  1 XY   -0.014265  -0.015047   0.000637  -0.006537   0.003238
   14  O  1 XZ   -0.001779   0.020199  -0.003395   0.006604  -0.000268
   15  O  1 YZ    0.017121   0.006634   0.008782  -0.015460   0.012334
   16  O  2  S    0.053512  -0.030578  -0.035241  -0.019740   0.059061
   17  O  2  S   -0.124792   0.074927   0.074363   0.048247  -0.050091
   18  O  2  X    0.019684  -0.322788  -0.160001  -0.024959   0.073091
   19  O  2  Y    0.382105   0.051566  -0.412253   0.114291  -0.136847
   20  O  2  Z    0.058415  -0.295577   0.127492  -0.469119  -0.093858
   21  O  2  S   -0.201639   0.134105   0.184767   0.086469  -0.806635
   22  O  2  X    0.021059  -0.211816  -0.110414  -0.025532   0.134076
   23  O  2  Y    0.233533   0.038400  -0.305188   0.098174  -0.350116
   24  O  2  Z    0.027924  -0.206373   0.100404  -0.361502  -0.220649
   25  O  2 XX   -0.004399  -0.023972  -0.012075   0.001697   0.030056
   26  O  2 YY    0.021698   0.015370  -0.022563   0.008451   0.025774
   27  O  2 ZZ   -0.001921  -0.001778   0.009629  -0.016172   0.032215
   28  O  2 XY    0.014265  -0.015047   0.000637   0.006537   0.003238
   29  O  2 XZ   -0.001779  -0.020199   0.003395   0.006604   0.000268
   30  O  2 YZ    0.017121  -0.006634  -0.008782  -0.015460  -0.012334
   31  H  3  S   -0.142351   0.019924  -0.112479   0.079450   0.049561
   32  H  3  S   -0.066048   0.019636  -0.050934   0.052594   1.135696
   33  H  4  S    0.142351   0.019924  -0.112479  -0.079450   0.049561
   34  H  4  S    0.066048   0.019636  -0.050934  -0.052594   1.135696

                     11         12         13         14         15
                    0.2310     0.3474     1.0575     1.0649     1.0701
                     B          B          B          B          A   
    1  O  1  S    0.074081   0.041032  -0.016378   0.006536   0.002340
    2  O  1  S   -0.088579  -0.139562   0.087348  -0.446695  -0.252682
    3  O  1  X    0.166623   0.436548  -0.417844  -0.298732   0.148863
    4  O  1  Y    0.145498  -0.076009  -0.207484  -0.306841   0.313409
    5  O  1  Z   -0.087695   0.061423   0.195302  -0.148635   0.130900
    6  O  1  S   -0.927335  -0.213987  -0.474274   0.574328   0.342354
    7  O  1  X    0.247847   0.850666   0.978330   0.462779  -0.304002
    8  O  1  Y    0.346987  -0.152695   0.016918   0.399853   0.013455
    9  O  1  Z   -0.207014   0.136186  -0.005983   0.032260  -0.246960
   10  O  1 XX    0.040431  -0.008668  -0.151114  -0.248546  -0.192572
   11  O  1 YY    0.013718  -0.021334  -0.011558  -0.103217   0.023462
   12  O  1 ZZ    0.023747  -0.021605   0.040190  -0.141108  -0.071571
   13  O  1 XY   -0.008695  -0.008339   0.056691  -0.047064  -0.013074
   14  O  1 XZ    0.004864   0.012415  -0.010458   0.007843   0.033668
   15  O  1 YZ    0.009093   0.001038   0.094549  -0.064484  -0.074342
   16  O  2  S   -0.074081  -0.041032   0.016378  -0.006536   0.002340
   17  O  2  S    0.088579   0.139562  -0.087348   0.446695  -0.252682
   18  O  2  X    0.166623   0.436548  -0.417844  -0.298732  -0.148863
   19  O  2  Y    0.145498  -0.076009  -0.207484  -0.306841  -0.313409
   20  O  2  Z    0.087695  -0.061423  -0.195302   0.148635   0.130900
   21  O  2  S    0.927335   0.213987   0.474274  -0.574328   0.342354
   22  O  2  X    0.247847   0.850666   0.978330   0.462779   0.304002
   23  O  2  Y    0.346987  -0.152695   0.016918   0.399853  -0.013455
   24  O  2  Z    0.207014  -0.136186   0.005983  -0.032260  -0.246960
   25  O  2 XX   -0.040431   0.008668   0.151114   0.248546  -0.192572
   26  O  2 YY   -0.013718   0.021334   0.011558   0.103217   0.023462
   27  O  2 ZZ   -0.023747   0.021605  -0.040190   0.141108  -0.071571
   28  O  2 XY    0.008695   0.008339  -0.056691   0.047064  -0.013074
   29  O  2 XZ    0.004864   0.012415  -0.010458   0.007843  -0.033668
   30  O  2 YZ    0.009093   0.001038   0.094549  -0.064484   0.074342
   31  H  3  S    0.060795  -0.049887  -0.582973   0.469915   0.697631
   32  H  3  S    1.064475  -0.646550   0.266268  -0.401714  -0.486334
   33  H  4  S   -0.060795   0.049887   0.582973  -0.469915   0.697631
   34  H  4  S   -1.064475   0.646550  -0.266268   0.401714  -0.486334

                     16         17         18         19         20
                    1.0907     1.1677     1.2218     1.2708     1.3481
                     A          A          B          A          B   
    1  O  1  S   -0.026477  -0.020942  -0.004022   0.005926   0.001722
    2  O  1  S   -0.618753  -0.384163   0.207169  -0.365085  -0.138028
    3  O  1  X   -0.107126   0.231965   0.117669  -0.529080  -0.327589
    4  O  1  Y   -0.248551  -0.397662  -0.290042   0.068611   0.529853
    5  O  1  Z    0.456718  -0.376498  -0.523090  -0.263229  -0.339762
    6  O  1  S    1.202209   0.696993  -0.313004   0.867688   0.101094
    7  O  1  X    0.177140  -0.277068  -0.187616   0.600009   0.892911
    8  O  1  Y    0.157452   0.590763   0.232738   0.029550  -0.670612
    9  O  1  Z   -0.338679   0.365293   0.847956   0.258510   0.591083
   10  O  1 XX   -0.238134  -0.254825   0.090603   0.034434  -0.113318
   11  O  1 YY   -0.230741  -0.088800   0.028795  -0.121477  -0.008384
   12  O  1 ZZ   -0.201655  -0.083081   0.076194  -0.171911  -0.020702
   13  O  1 XY    0.008013   0.017212   0.047381   0.001165  -0.017082
   14  O  1 XZ   -0.040172   0.005399   0.025126   0.059604   0.020956
   15  O  1 YZ    0.025073  -0.008309   0.044968  -0.061850   0.014255
   16  O  2  S   -0.026477  -0.020942   0.004022   0.005926  -0.001722
   17  O  2  S   -0.618753  -0.384163  -0.207169  -0.365085   0.138028
   18  O  2  X    0.107126  -0.231965   0.117669   0.529080  -0.327589
   19  O  2  Y    0.248551   0.397662  -0.290042  -0.068611   0.529853
   20  O  2  Z    0.456718  -0.376498   0.523090  -0.263229   0.339762
   21  O  2  S    1.202209   0.696993   0.313004   0.867688  -0.101094
   22  O  2  X   -0.177140   0.277068  -0.187616  -0.600009   0.892911
   23  O  2  Y   -0.157452  -0.590763   0.232738  -0.029550  -0.670612
   24  O  2  Z   -0.338679   0.365293  -0.847956   0.258510  -0.591083
   25  O  2 XX   -0.238134  -0.254825  -0.090603   0.034434   0.113318
   26  O  2 YY   -0.230741  -0.088800  -0.028795  -0.121477   0.008384
   27  O  2 ZZ   -0.201655  -0.083081  -0.076194  -0.171911   0.020702
   28  O  2 XY    0.008013   0.017212  -0.047381   0.001165   0.017082
   29  O  2 XZ    0.040172  -0.005399   0.025126  -0.059604   0.020956
   30  O  2 YZ   -0.025073   0.008309   0.044968   0.061850   0.014255
   31  H  3  S   -0.155761   0.130843  -0.279837   0.358908   0.086679
   32  H  3  S   -0.148203  -0.276622   0.310454  -0.581371  -0.831160
   33  H  4  S   -0.155761   0.130843   0.279837   0.358908  -0.086679
   34  H  4  S   -0.148203  -0.276622  -0.310454  -0.581371   0.831160

                     21         22         23         24         25
                    1.4418     1.5660     1.7810     1.7862     1.9502
                     A          B          B          A          A   
    1  O  1  S   -0.045856  -0.082021  -0.021174  -0.007684   0.008153
    2  O  1  S   -0.724874  -1.106632  -0.234180  -0.111941   0.150606
    3  O  1  X    0.090000   0.210522   0.026189   0.034127  -0.036356
    4  O  1  Y    0.394352   0.076285  -0.020935   0.026459  -0.039457
    5  O  1  Z   -0.217524  -0.018718  -0.004877   0.024918   0.008593
    6  O  1  S    1.635792   3.525993   0.799127   0.246455  -0.330652
    7  O  1  X    0.060543  -1.502336  -0.309408  -0.014793  -0.011522
    8  O  1  Y   -1.029448  -0.292513  -0.186359  -0.151456   0.189274
    9  O  1  Z    0.417164   0.173740   0.081652   0.132049  -0.125089
   10  O  1 XX   -0.312716  -0.336359  -0.002813  -0.041422   0.024916
   11  O  1 YY   -0.264334  -0.329278  -0.137711  -0.218695  -0.483834
   12  O  1 ZZ   -0.089863  -0.281912  -0.055393   0.168813   0.560258
   13  O  1 XY   -0.030125   0.203989  -0.547839  -0.012929   0.061018
   14  O  1 XZ   -0.112521  -0.023241  -0.001569   0.585393  -0.146273
   15  O  1 YZ    0.084984   0.169364   0.304170   0.095246  -0.281359
   16  O  2  S   -0.045856   0.082021   0.021174  -0.007684   0.008153
   17  O  2  S   -0.724874   1.106632   0.234180  -0.111941   0.150606
   18  O  2  X   -0.090000   0.210522   0.026189  -0.034127   0.036356
   19  O  2  Y   -0.394352   0.076285  -0.020935  -0.026459   0.039457
   20  O  2  Z   -0.217524   0.018718   0.004877   0.024918   0.008593
   21  O  2  S    1.635792  -3.525993  -0.799127   0.246455  -0.330652
   22  O  2  X   -0.060543  -1.502336  -0.309408   0.014793   0.011522
   23  O  2  Y    1.029448  -0.292513  -0.186359   0.151456  -0.189274
   24  O  2  Z    0.417164  -0.173740  -0.081652   0.132049  -0.125089
   25  O  2 XX   -0.312716   0.336359   0.002813  -0.041422   0.024916
   26  O  2 YY   -0.264334   0.329278   0.137711  -0.218695  -0.483834
   27  O  2 ZZ   -0.089863   0.281912   0.055393   0.168813   0.560258
   28  O  2 XY   -0.030125  -0.203989   0.547839  -0.012929   0.061018
   29  O  2 XZ    0.112521  -0.023241  -0.001569  -0.585393   0.146273
   30  O  2 YZ   -0.084984   0.169364   0.304170  -0.095246   0.281359
   31  H  3  S   -0.359805  -0.225640  -0.132209  -0.123383   0.170588
   32  H  3  S   -0.658170  -0.197204  -0.058321  -0.078306   0.115568
   33  H  4  S   -0.359805   0.225640   0.132209  -0.123383   0.170588
   34  H  4  S   -0.658170   0.197204   0.058321  -0.078306   0.115568

                     26         27         28         29         30
                    2.1077     2.4082     2.6946     2.7266     2.8139
                     B          A          A          B          B   
    1  O  1  S   -0.016139   0.003070   0.000978  -0.009621  -0.053385
    2  O  1  S   -0.185890  -0.420960  -0.045474  -0.089806  -0.605367
    3  O  1  X    0.007824   0.403575   0.022295   0.009871   0.042117
    4  O  1  Y    0.015282   0.039992   0.077241  -0.002295   0.023450
    5  O  1  Z   -0.015662  -0.005967  -0.004291   0.067622  -0.045577
    6  O  1  S    0.616575   0.450728   0.065481   0.325121   2.057767
    7  O  1  X   -0.170413  -0.270656   0.017906  -0.128010  -0.597939
    8  O  1  Y   -0.153884  -0.145083  -0.353241  -0.067772  -0.550112
    9  O  1  Z    0.077712   0.064456   0.004636  -0.296785   0.535081
   10  O  1 XX   -0.041017   0.465302  -0.054667  -0.035046  -0.109148
   11  O  1 YY   -0.600355  -0.280735   0.061052   0.047354   0.238690
   12  O  1 ZZ    0.506900  -0.420036  -0.023766  -0.072673  -0.425205
   13  O  1 XY   -0.075225   0.014803   0.874803  -0.030718  -0.284730
   14  O  1 XZ    0.032261   0.056141   0.007853   0.873806  -0.085640
   15  O  1 YZ   -0.306189  -0.310709   0.047341  -0.038379  -0.621291
   16  O  2  S    0.016139   0.003070   0.000978   0.009621   0.053385
   17  O  2  S    0.185890  -0.420960  -0.045474   0.089806   0.605367
   18  O  2  X    0.007824  -0.403575  -0.022295   0.009871   0.042117
   19  O  2  Y    0.015282  -0.039992  -0.077241  -0.002295   0.023450
   20  O  2  Z    0.015662  -0.005967  -0.004291  -0.067622   0.045577
   21  O  2  S   -0.616575   0.450728   0.065481  -0.325121  -2.057767
   22  O  2  X   -0.170413   0.270656  -0.017906  -0.128010  -0.597939
   23  O  2  Y   -0.153884   0.145083   0.353241  -0.067772  -0.550112
   24  O  2  Z   -0.077712   0.064456   0.004636   0.296785  -0.535081
   25  O  2 XX    0.041017   0.465302  -0.054667   0.035046   0.109148
   26  O  2 YY    0.600355  -0.280735   0.061052  -0.047354  -0.238690
   27  O  2 ZZ   -0.506900  -0.420036  -0.023766   0.072673   0.425205
   28  O  2 XY    0.075225   0.014803   0.874803   0.030718   0.284730
   29  O  2 XZ    0.032261  -0.056141  -0.007853   0.873806  -0.085640
   30  O  2 YZ   -0.306189   0.310709  -0.047341  -0.038379  -0.621291
   31  H  3  S   -0.159104  -0.133696   0.071957  -0.173906  -1.012269
   32  H  3  S   -0.088941  -0.078887  -0.073443   0.037188  -0.088507
   33  H  4  S    0.159104  -0.133696   0.071957   0.173906   1.012269
   34  H  4  S    0.088941  -0.078887  -0.073443  -0.037188   0.088507

                     31         32         33         34
                    2.8683     3.2709     3.8573     4.0739
                     A          B          A          B   
    1  O  1  S    0.037329  -0.094644  -0.325470  -0.346625
    2  O  1  S    0.068125  -0.591362   0.246899   0.081274
    3  O  1  X    0.132844  -0.190832   0.000471   0.135639
    4  O  1  Y   -0.048291  -0.021005   0.062576   0.071940
    5  O  1  Z    0.010968   0.007188  -0.053475  -0.029334
    6  O  1  S   -0.604205   2.870650   2.204612   3.381880
    7  O  1  X   -0.251283  -1.868030  -0.013825  -0.524648
    8  O  1  Y    0.689476  -0.107931  -0.175617  -0.245769
    9  O  1  Z   -0.277312  -0.022995   0.128387   0.135530
   10  O  1 XX    0.398554   1.117100  -0.885275  -1.232920
   11  O  1 YY   -0.366462  -0.716843  -1.127096  -1.138699
   12  O  1 ZZ    0.088471  -0.721917  -1.139296  -1.177818
   13  O  1 XY    0.007947   0.148607   0.033765  -0.040928
   14  O  1 XZ   -0.184064   0.007904   0.007472  -0.003714
   15  O  1 YZ    0.692640   0.006493   0.018056  -0.061884
   16  O  2  S    0.037329   0.094644  -0.325470   0.346625
   17  O  2  S    0.068125   0.591362   0.246899  -0.081274
   18  O  2  X   -0.132844  -0.190832  -0.000471   0.135639
   19  O  2  Y    0.048291  -0.021005  -0.062576   0.071940
   20  O  2  Z    0.010968  -0.007188  -0.053475   0.029334
   21  O  2  S   -0.604205  -2.870650   2.204612  -3.381880
   22  O  2  X    0.251283  -1.868030   0.013825  -0.524648
   23  O  2  Y   -0.689476  -0.107931   0.175617  -0.245769
   24  O  2  Z   -0.277312   0.022995   0.128387  -0.135530
   25  O  2 XX    0.398554  -1.117100  -0.885275   1.232920
   26  O  2 YY   -0.366462   0.716843  -1.127096   1.138699
   27  O  2 ZZ    0.088471   0.721917  -1.139296   1.177818
   28  O  2 XY    0.007947  -0.148607   0.033765   0.040928
   29  O  2 XZ    0.184064   0.007904  -0.007472  -0.003714
   30  O  2 YZ   -0.692640   0.006493  -0.018056  -0.061884
   31  H  3  S    0.928613   0.051229   0.146612  -0.021998
   32  H  3  S    0.038891  -0.009845  -0.520684  -0.386746
   33  H  4  S    0.928613  -0.051229   0.146612   0.021998
   34  H  4  S    0.038891   0.009845  -0.520684   0.386746
 ...... END OF RHF CALCULATION ......
 STEP CPU TIME =     0.01 TOTAL CPU TIME =        0.0 (    0.0 MIN)
 TOTAL WALL CLOCK TIME=        0.0 SECONDS, CPU UTILIZATION IS  80.00%

     ----------------------------------------------------------------
     PROPERTY VALUES FOR THE RHF   SELF-CONSISTENT FIELD WAVEFUNCTION
     ----------------------------------------------------------------

          -----------------
          ENERGY COMPONENTS
          -----------------

         WAVEFUNCTION NORMALIZATION =       1.0000000000

                ONE ELECTRON ENERGY =    -283.5015003179
                TWO ELECTRON ENERGY =      94.7548655877
           NUCLEAR REPULSION ENERGY =      37.9818478640
                                      ------------------
                       TOTAL ENERGY =    -150.7647868661

 ELECTRON-ELECTRON POTENTIAL ENERGY =      94.7548655877
  NUCLEUS-ELECTRON POTENTIAL ENERGY =    -433.8890282045
   NUCLEUS-NUCLEUS POTENTIAL ENERGY =      37.9818478640
                                      ------------------
             TOTAL POTENTIAL ENERGY =    -301.1523147528
               TOTAL KINETIC ENERGY =     150.3875278866
                 VIRIAL RATIO (V/T) =       2.0025085789

          ---------------------------------------
          MULLIKEN AND LOWDIN POPULATION ANALYSES
          ---------------------------------------

     ATOMIC MULLIKEN POPULATION IN EACH MOLECULAR ORBITAL

                      1          2          3          4          5

                  2.000000   2.000000   2.000000   2.000000   2.000000

    1             1.000013   0.999988   0.954545   0.888969   0.818785
    2             1.000013   0.999988   0.954545   0.888969   0.818785
    3            -0.000013   0.000012   0.045455   0.111031   0.181215
    4            -0.000013   0.000012   0.045455   0.111031   0.181215

                      6          7          8          9

                  2.000000   2.000000   2.000000   2.000000

    1             0.880882   0.995971   0.950050   0.972719
    2             0.880882   0.995971   0.950050   0.972719
    3             0.119118   0.004029   0.049950   0.027281
    4             0.119118   0.004029   0.049950   0.027281

               ----- POPULATIONS IN EACH AO -----
                             MULLIKEN      LOWDIN
              1  O  1  S      1.99550     1.97764
              2  O  1  S      0.93171     0.73282
              3  O  1  X      0.64627     0.60309
              4  O  1  Y      1.02783     0.98250
              5  O  1  Z      1.14104     1.10766
              6  O  1  S      0.88462     0.47196
              7  O  1  X      0.38108     0.47304
              8  O  1  Y      0.64251     0.67785
              9  O  1  Z      0.71742     0.73900
             10  O  1 XX      0.03301     0.19049
             11  O  1 YY      0.02643     0.19134
             12  O  1 ZZ      0.01143     0.17789
             13  O  1 XY      0.00760     0.01781
             14  O  1 XZ      0.00657     0.01780
             15  O  1 YZ      0.00890     0.01032
             16  O  2  S      1.99550     1.97764
             17  O  2  S      0.93171     0.73282
             18  O  2  X      0.64627     0.60309
             19  O  2  Y      1.02783     0.98250
             20  O  2  Z      1.14104     1.10766
             21  O  2  S      0.88462     0.47196
             22  O  2  X      0.38108     0.47304
             23  O  2  Y      0.64251     0.67785
             24  O  2  Z      0.71742     0.73900
             25  O  2 XX      0.03301     0.19049
             26  O  2 YY      0.02643     0.19134
             27  O  2 ZZ      0.01143     0.17789
             28  O  2 XY      0.00760     0.01781
             29  O  2 XZ      0.00657     0.01780
             30  O  2 YZ      0.00890     0.01032
             31  H  3  S      0.46949     0.43816
             32  H  3  S      0.06858     0.19062
             33  H  4  S      0.46949     0.43816
             34  H  4  S      0.06858     0.19062

          ----- MULLIKEN ATOMIC OVERLAP POPULATIONS -----
          (OFF-DIAGONAL ELEMENTS NEED TO BE MULTIPLIED BY 2)

             1           2           3           4

    1    8.1552854
    2    0.0761699   8.1552854
    3    0.2583168  -0.0278491   0.3059198
    4   -0.0278491   0.2583168   0.0016897   0.3059198

          TOTAL MULLIKEN AND LOWDIN ATOMIC POPULATIONS
       ATOM         MULL.POP.    CHARGE          LOW.POP.     CHARGE
    1 O             8.461923   -0.461923         8.371215   -0.371215
    2 O             8.461923   -0.461923         8.371215   -0.371215
    3 H             0.538077    0.461923         0.628785    0.371215
    4 H             0.538077    0.461923         0.628785    0.371215

          -------------------------------
          BOND ORDER AND VALENCE ANALYSIS     BOND ORDER THRESHOLD=0.050
          -------------------------------

                   BOND                       BOND                       BOND
  ATOM PAIR DIST  ORDER      ATOM PAIR DIST  ORDER      ATOM PAIR DIST  ORDER
    1   2  1.396  0.941        1   3  0.949  0.753        2   4  0.949  0.753

                       TOTAL       BONDED        FREE
      ATOM            VALENCE     VALENCE     VALENCE
    1 O                 1.695       1.695      -0.000
    2 O                 1.695       1.695      -0.000
    3 H                 0.755       0.755       0.000
    4 H                 0.755       0.755       0.000

          ---------------------
          ELECTROSTATIC MOMENTS
          ---------------------

 POINT   1           X           Y           Z (BOHR)    CHARGE
                -0.000000   -0.000000    0.033604       -0.00 (A.U.)
         DX          DY          DZ         /D/  (DEBYE)
    -0.000000   -0.000000    1.951160    1.951160
 ...... END OF PROPERTY EVALUATION ......
 STEP CPU TIME =     0.01 TOTAL CPU TIME =        0.0 (    0.0 MIN)
 TOTAL WALL CLOCK TIME=        0.0 SECONDS, CPU UTILIZATION IS 100.00%

 BEGINNING HESSIAN COMPUTATION BY TWICE-DIFFERENCING THE ENERGY...
 THE NUMBER OF ENERGIES AT DISPLACED GEOMETRIES WILL BE       180 AT MOST,
 BUT ADDITIONAL SYMMETRY CONSIDERATIONS TO BE MADE AT EACH
 DISPLACED GEOMETRY MAY REDUCE THIS VALUE SUBSTANTIALLY.
 A CHECK JOB WILL PRINT THE PRECISE NUMBER OF POINTS NEEDED.
 WITHOUT SYMMETRY, THE NUMBER OF ENERGIES NEEDED WOULD BE     384

 ************************************************
 * CALCULATING ENERGY     1 FOR NUMERIC HESSIAN *
 ************************************************
 MOVING ATOM   2 COORDINATE X TO       -1.3064455125, AND
 MOVING ATOM   1 COORDINATE X TO        1.3264455125 A.U.
 ...... END OF ONE-ELECTRON INTEGRALS ......
 STEP CPU TIME =     0.00 TOTAL CPU TIME =        0.0 (    0.0 MIN)
 TOTAL WALL CLOCK TIME=        0.0 SECONDS, CPU UTILIZATION IS 100.00%
 TOTAL NUMBER OF NONZERO TWO-ELECTRON INTEGRALS =              120558
          9 INTEGRAL RECORDS WERE STORED ON DISK FILE  8.
  ...... END OF TWO-ELECTRON INTEGRALS .....
 STEP CPU TIME =     0.01 TOTAL CPU TIME =        0.1 (    0.0 MIN)
 TOTAL WALL CLOCK TIME=        0.1 SECONDS, CPU UTILIZATION IS  85.71%

          --------------------------
                 RHF SCF CALCULATION
          --------------------------
     DENSITY MATRIX CONV=  1.00E-05

 ITER EX DEM     TOTAL ENERGY        E CHANGE  DENSITY CHANGE     ORB. GRAD
   1  0  0     -150.7647690082  -150.7647690082   0.000690298   0.000000000
          ---------------START SECOND ORDER SCF---------------
   2  1  0     -150.7647747674    -0.0000057592   0.000260107   0.000246394
   3  2  0     -150.7647754004    -0.0000006330   0.000177247   0.000114119
   4  3  0     -150.7647755903    -0.0000001899   0.000038254   0.000033372
   5  4  0     -150.7647756070    -0.0000000167   0.000028715   0.000014265
   6  5  0     -150.7647756102    -0.0000000032   0.000006484   0.000003557
   7  6  0     -150.7647756104    -0.0000000002   0.000002079   0.000001516

          -----------------
          DENSITY CONVERGED
          -----------------
     TIME TO FORM FOCK OPERATORS=       0.0 SECONDS (       0.0 SEC/ITER)
     TIME TO SOLVE SCF EQUATIONS=       0.0 SECONDS (       0.0 SEC/ITER)

 FINAL RHF ENERGY IS     -150.7647756104 AFTER   7 ITERATIONS
 ...... END OF RHF CALCULATION ......
 STEP CPU TIME =     0.01 TOTAL CPU TIME =        0.1 (    0.0 MIN)
 TOTAL WALL CLOCK TIME=        0.1 SECONDS, CPU UTILIZATION IS  87.50%

 ************************************************
 * CALCULATING ENERGY     2 FOR NUMERIC HESSIAN *
 ************************************************
 MOVING ATOM   2 COORDINATE X TO       -1.3064455125, AND
 MOVING ATOM   1 COORDINATE X TO        1.3064455125 A.U.
 ...... END OF ONE-ELECTRON INTEGRALS ......
 STEP CPU TIME =     0.00 TOTAL CPU TIME =        0.1 (    0.0 MIN)
 TOTAL WALL CLOCK TIME=        0.1 SECONDS, CPU UTILIZATION IS  87.50%
 TOTAL NUMBER OF NONZERO TWO-ELECTRON INTEGRALS =              120559
          9 INTEGRAL RECORDS WERE STORED ON DISK FILE  8.
  ...... END OF TWO-ELECTRON INTEGRALS .....
 STEP CPU TIME =     0.01 TOTAL CPU TIME =        0.1 (    0.0 MIN)
 TOTAL WALL CLOCK TIME=        0.1 SECONDS, CPU UTILIZATION IS  88.89%

          --------------------------
                 RHF SCF CALCULATION
          --------------------------
     DENSITY MATRIX CONV=  1.00E-05

 ITER EX DEM     TOTAL ENERGY        E CHANGE  DENSITY CHANGE     ORB. GRAD
   1  0  0     -150.7646352628  -150.7646352628   0.002492468   0.000000000
          ---------------START SECOND ORDER SCF---------------
   2  1  0     -150.7646959666    -0.0000607038   0.000585918   0.000653550
   3  2  0     -150.7647002241    -0.0000042575   0.000262318   0.000184821
   4  3  0     -150.7647006548    -0.0000004307   0.000043632   0.000036883
   5  4  0     -150.7647006646    -0.0000000098   0.000015929   0.000015632
   6  5  0     -150.7647006664    -0.0000000018   0.000005213   0.000003808
   7  6  0     -150.7647006665    -0.0000000002   0.000000877   0.000000688

          -----------------
          DENSITY CONVERGED
          -----------------
     TIME TO FORM FOCK OPERATORS=       0.0 SECONDS (       0.0 SEC/ITER)
     TIME TO SOLVE SCF EQUATIONS=       0.0 SECONDS (       0.0 SEC/ITER)

 FINAL RHF ENERGY IS     -150.7647006665 AFTER   7 ITERATIONS
 ...... END OF RHF CALCULATION ......
 STEP CPU TIME =     0.01 TOTAL CPU TIME =        0.1 (    0.0 MIN)
 TOTAL WALL CLOCK TIME=        0.1 SECONDS, CPU UTILIZATION IS  90.00%

 ************************************************
 * CALCULATING ENERGY     3 FOR NUMERIC HESSIAN *
 ************************************************
 MOVING ATOM   2 COORDINATE X TO       -1.3264455125, AND
 MOVING ATOM   1 COORDINATE X TO        1.3264455125 A.U.
 ...... END OF ONE-ELECTRON INTEGRALS ......
 STEP CPU TIME =     0.00 TOTAL CPU TIME =        0.1 (    0.0 MIN)
 TOTAL WALL CLOCK TIME=        0.1 SECONDS, CPU UTILIZATION IS  90.00%
 TOTAL NUMBER OF NONZERO TWO-ELECTRON INTEGRALS =              120559
          9 INTEGRAL RECORDS WERE STORED ON DISK FILE  8.
  ...... END OF TWO-ELECTRON INTEGRALS .....
 STEP CPU TIME =     0.01 TOTAL CPU TIME =        0.1 (    0.0 MIN)
 TOTAL WALL CLOCK TIME=        0.1 SECONDS, CPU UTILIZATION IS  90.91%

          --------------------------
                 RHF SCF CALCULATION
          --------------------------
     DENSITY MATRIX CONV=  1.00E-05

 ITER EX DEM     TOTAL ENERGY        E CHANGE  DENSITY CHANGE     ORB. GRAD
   1  0  0     -150.7646405081  -150.7646405081   0.002465880   0.000000000
          ---------------START SECOND ORDER SCF---------------
   2  1  0     -150.7646994232    -0.0000589151   0.000579169   0.000607227
   3  2  0     -150.7647035620    -0.0000041387   0.000259040   0.000173333
   4  3  0     -150.7647039817    -0.0000004197   0.000042274   0.000036578
   5  4  0     -150.7647039912    -0.0000000095   0.000015569   0.000015113
   6  5  0     -150.7647039929    -0.0000000017   0.000005314   0.000003782
   7  6  0     -150.7647039931    -0.0000000002   0.000000764   0.000000621

          -----------------
          DENSITY CONVERGED
          -----------------
     TIME TO FORM FOCK OPERATORS=       0.0 SECONDS (       0.0 SEC/ITER)
     TIME TO SOLVE SCF EQUATIONS=       0.0 SECONDS (       0.0 SEC/ITER)

 FINAL RHF ENERGY IS     -150.7647039931 AFTER   7 ITERATIONS
 ...... END OF RHF CALCULATION ......
 STEP CPU TIME =     0.02 TOTAL CPU TIME =        0.1 (    0.0 MIN)
 TOTAL WALL CLOCK TIME=        0.1 SECONDS, CPU UTILIZATION IS 100.00%

 ************************************************
 * CALCULATING ENERGY     4 FOR NUMERIC HESSIAN *
 ************************************************
 MOVING ATOM   2 COORDINATE Y TO       -0.0791624250, AND
 MOVING ATOM   1 COORDINATE X TO        1.3264455125 A.U.
 ...... END OF ONE-ELECTRON INTEGRALS ......
 STEP CPU TIME =     0.00 TOTAL CPU TIME =        0.1 (    0.0 MIN)
 TOTAL WALL CLOCK TIME=        0.1 SECONDS, CPU UTILIZATION IS 100.00%
 TOTAL NUMBER OF NONZERO TWO-ELECTRON INTEGRALS =              120559
          9 INTEGRAL RECORDS WERE STORED ON DISK FILE  8.
  ...... END OF TWO-ELECTRON INTEGRALS .....
 STEP CPU TIME =     0.01 TOTAL CPU TIME =        0.1 (    0.0 MIN)
 TOTAL WALL CLOCK TIME=        0.1 SECONDS, CPU UTILIZATION IS 100.00%

          --------------------------
                 RHF SCF CALCULATION
          --------------------------
     DENSITY MATRIX CONV=  1.00E-05

 ITER EX DEM     TOTAL ENERGY        E CHANGE  DENSITY CHANGE     ORB. GRAD
   1  0  0     -150.7647092895  -150.7647092895   0.001366234   0.000000000
          ---------------START SECOND ORDER SCF---------------
   2  1  0     -150.7647366502    -0.0000273607   0.000602818   0.000336012
   3  2  0     -150.7647390711    -0.0000024209   0.000390613   0.000136052
   4  3  0     -150.7647395266    -0.0000004556   0.000104291   0.000053703
   5  4  0     -150.7647395944    -0.0000000678   0.000055294   0.000027854
   6  5  0     -150.7647396079    -0.0000000134   0.000035118   0.000014398
   7  6  0     -150.7647396105    -0.0000000026   0.000006142   0.000003365
   8  7  0     -150.7647396107    -0.0000000003   0.000002598   0.000001159

          -----------------
          DENSITY CONVERGED
          -----------------
     TIME TO FORM FOCK OPERATORS=       0.0 SECONDS (       0.0 SEC/ITER)
     TIME TO SOLVE SCF EQUATIONS=       0.0 SECONDS (       0.0 SEC/ITER)

 FINAL RHF ENERGY IS     -150.7647396107 AFTER   8 ITERATIONS
 ...... END OF RHF CALCULATION ......
 STEP CPU TIME =     0.01 TOTAL CPU TIME =        0.1 (    0.0 MIN)
 TOTAL WALL CLOCK TIME=        0.1 SECONDS, CPU UTILIZATION IS 100.00%

 ************************************************
 * CALCULATING ENERGY     5 FOR NUMERIC HESSIAN *
 ************************************************
 MOVING ATOM   2 COORDINATE Y TO       -0.0791624250, AND
 MOVING ATOM   1 COORDINATE X TO        1.3064455125 A.U.
 ...... END OF ONE-ELECTRON INTEGRALS ......
 STEP CPU TIME =     0.00 TOTAL CPU TIME =        0.1 (    0.0 MIN)
 TOTAL WALL CLOCK TIME=        0.2 SECONDS, CPU UTILIZATION IS  93.33%
 TOTAL NUMBER OF NONZERO TWO-ELECTRON INTEGRALS =              120559
          9 INTEGRAL RECORDS WERE STORED ON DISK FILE  8.
  ...... END OF TWO-ELECTRON INTEGRALS .....
 STEP CPU TIME =     0.01 TOTAL CPU TIME =        0.1 (    0.0 MIN)
 TOTAL WALL CLOCK TIME=        0.2 SECONDS, CPU UTILIZATION IS  93.75%

          --------------------------
                 RHF SCF CALCULATION
          --------------------------
     DENSITY MATRIX CONV=  1.00E-05

 ITER EX DEM     TOTAL ENERGY        E CHANGE  DENSITY CHANGE     ORB. GRAD
   1  0  0     -150.7647041895  -150.7647041895   0.001761966   0.000000000
          ---------------START SECOND ORDER SCF---------------
   2  1  0     -150.7647340194    -0.0000298299   0.000811463   0.000404685
   3  2  0     -150.7647370481    -0.0000030287   0.000439104   0.000195960
   4  3  0     -150.7647378230    -0.0000007749   0.000086527   0.000049120
   5  4  0     -150.7647378752    -0.0000000522   0.000060879   0.000029869
   6  5  0     -150.7647378880    -0.0000000127   0.000015943   0.000010871
   7  6  0     -150.7647378893    -0.0000000013   0.000012031   0.000004502
   8  7  0     -150.7647378897    -0.0000000004   0.000002248   0.000000890
   9  8  0     -150.7647378897    -0.0000000000   0.000000633   0.000000273

          -----------------
          DENSITY CONVERGED
          -----------------
     TIME TO FORM FOCK OPERATORS=       0.0 SECONDS (       0.0 SEC/ITER)
     TIME TO SOLVE SCF EQUATIONS=       0.0 SECONDS (       0.0 SEC/ITER)

 FINAL RHF ENERGY IS     -150.7647378897 AFTER   9 ITERATIONS
 ...... END OF RHF CALCULATION ......
 STEP CPU TIME =     0.01 TOTAL CPU TIME =        0.2 (    0.0 MIN)
 TOTAL WALL CLOCK TIME=        0.2 SECONDS, CPU UTILIZATION IS  94.12%

 ************************************************
 * CALCULATING ENERGY     6 FOR NUMERIC HESSIAN *
 ************************************************
 MOVING ATOM   2 COORDINATE Y TO       -0.0991624250, AND
 MOVING ATOM   1 COORDINATE X TO        1.3264455125 A.U.
 ...... END OF ONE-ELECTRON INTEGRALS ......
 STEP CPU TIME =     0.00 TOTAL CPU TIME =        0.2 (    0.0 MIN)
 TOTAL WALL CLOCK TIME=        0.2 SECONDS, CPU UTILIZATION IS  94.12%
 TOTAL NUMBER OF NONZERO TWO-ELECTRON INTEGRALS =              120560
          9 INTEGRAL RECORDS WERE STORED ON DISK FILE  8.
  ...... END OF TWO-ELECTRON INTEGRALS .....
 STEP CPU TIME =     0.02 TOTAL CPU TIME =        0.2 (    0.0 MIN)
 TOTAL WALL CLOCK TIME=        0.2 SECONDS, CPU UTILIZATION IS 100.00%

          --------------------------
                 RHF SCF CALCULATION
          --------------------------
     DENSITY MATRIX CONV=  1.00E-05

 ITER EX DEM     TOTAL ENERGY        E CHANGE  DENSITY CHANGE     ORB. GRAD
   1  0  0     -150.7647054012  -150.7647054012   0.001760430   0.000000000
          ---------------START SECOND ORDER SCF---------------
   2  1  0     -150.7647348228    -0.0000294216   0.000816720   0.000425314
   3  2  0     -150.7647378164    -0.0000029937   0.000445065   0.000187971
   4  3  0     -150.7647385991    -0.0000007827   0.000087710   0.000050092
   5  4  0     -150.7647386534    -0.0000000543   0.000063578   0.000030352
   6  5  0     -150.7647386671    -0.0000000137   0.000016700   0.000011156
   7  6  0     -150.7647386685    -0.0000000014   0.000013069   0.000004706
   8  7  0     -150.7647386689    -0.0000000004   0.000002291   0.000000841
   9  8  0     -150.7647386689    -0.0000000000   0.000000697   0.000000291

          -----------------
          DENSITY CONVERGED
          -----------------
     TIME TO FORM FOCK OPERATORS=       0.0 SECONDS (       0.0 SEC/ITER)
     TIME TO SOLVE SCF EQUATIONS=       0.0 SECONDS (       0.0 SEC/ITER)

 FINAL RHF ENERGY IS     -150.7647386689 AFTER   9 ITERATIONS
 ...... END OF RHF CALCULATION ......
 STEP CPU TIME =     0.01 TOTAL CPU TIME =        0.2 (    0.0 MIN)
 TOTAL WALL CLOCK TIME=        0.2 SECONDS, CPU UTILIZATION IS 100.00%

 ************************************************
 * CALCULATING ENERGY     7 FOR NUMERIC HESSIAN *
 ************************************************
 MOVING ATOM   2 COORDINATE Y TO       -0.0991624250, AND
 MOVING ATOM   1 COORDINATE X TO        1.3064455125 A.U.
 ...... END OF ONE-ELECTRON INTEGRALS ......
 STEP CPU TIME =     0.00 TOTAL CPU TIME =        0.2 (    0.0 MIN)
 TOTAL WALL CLOCK TIME=        0.2 SECONDS, CPU UTILIZATION IS  95.00%
 TOTAL NUMBER OF NONZERO TWO-ELECTRON INTEGRALS =              120561
          9 INTEGRAL RECORDS WERE STORED ON DISK FILE  8.
  ...... END OF TWO-ELECTRON INTEGRALS .....
 STEP CPU TIME =     0.01 TOTAL CPU TIME =        0.2 (    0.0 MIN)
 TOTAL WALL CLOCK TIME=        0.2 SECONDS, CPU UTILIZATION IS  95.24%

          --------------------------
                 RHF SCF CALCULATION
          --------------------------
     DENSITY MATRIX CONV=  1.00E-05

 ITER EX DEM     TOTAL ENERGY        E CHANGE  DENSITY CHANGE     ORB. GRAD
   1  0  0     -150.7647090447  -150.7647090447   0.001396759   0.000000000
          ---------------START SECOND ORDER SCF---------------
   2  1  0     -150.7647366210    -0.0000275762   0.000596254   0.000356071
   3  2  0     -150.7647390539    -0.0000024329   0.000393591   0.000136045
   4  3  0     -150.7647395008    -0.0000004469   0.000103283   0.000054700
   5  4  0     -150.7647395673    -0.0000000665   0.000051873   0.000027679
   6  5  0     -150.7647395796    -0.0000000124   0.000034188   0.000014435
   7  6  0     -150.7647395821    -0.0000000025   0.000005961   0.000003335
   8  7  0     -150.7647395823    -0.0000000002   0.000002518   0.000001121

          -----------------
          DENSITY CONVERGED
          -----------------
     TIME TO FORM FOCK OPERATORS=       0.0 SECONDS (       0.0 SEC/ITER)
     TIME TO SOLVE SCF EQUATIONS=       0.0 SECONDS (       0.0 SEC/ITER)

 FINAL RHF ENERGY IS     -150.7647395823 AFTER   8 ITERATIONS
 ...... END OF RHF CALCULATION ......
 STEP CPU TIME =     0.02 TOTAL CPU TIME =        0.2 (    0.0 MIN)
 TOTAL WALL CLOCK TIME=        0.2 SECONDS, CPU UTILIZATION IS 100.00%

 ************************************************
 * CALCULATING ENERGY     8 FOR NUMERIC HESSIAN *
 ************************************************
 MOVING ATOM   2 COORDINATE Y TO       -0.0791624250, AND
 MOVING ATOM   1 COORDINATE Y TO        0.0991624250 A.U.
 ...... END OF ONE-ELECTRON INTEGRALS ......
 STEP CPU TIME =     0.00 TOTAL CPU TIME =        0.2 (    0.0 MIN)
 TOTAL WALL CLOCK TIME=        0.2 SECONDS, CPU UTILIZATION IS 100.00%
 TOTAL NUMBER OF NONZERO TWO-ELECTRON INTEGRALS =              120561
          9 INTEGRAL RECORDS WERE STORED ON DISK FILE  8.
  ...... END OF TWO-ELECTRON INTEGRALS .....
 STEP CPU TIME =     0.01 TOTAL CPU TIME =        0.2 (    0.0 MIN)
 TOTAL WALL CLOCK TIME=        0.2 SECONDS, CPU UTILIZATION IS 100.00%

          --------------------------
                 RHF SCF CALCULATION
          --------------------------
     DENSITY MATRIX CONV=  1.00E-05

 ITER EX DEM     TOTAL ENERGY        E CHANGE  DENSITY CHANGE     ORB. GRAD
   1  0  0     -150.7647311754  -150.7647311754   0.001299605   0.000000000
          ---------------START SECOND ORDER SCF---------------
   2  1  0     -150.7647442443    -0.0000130689   0.000814523   0.000520081
   3  2  0     -150.7647457762    -0.0000015319   0.000366201   0.000288067
   4  3  0     -150.7647465508    -0.0000007746   0.000120493   0.000050865
   5  4  0     -150.7647465891    -0.0000000383   0.000039902   0.000014254
   6  5  0     -150.7647465922    -0.0000000031   0.000007293   0.000003561
   7  6  0     -150.7647465924    -0.0000000002   0.000002493   0.000001048

          -----------------
          DENSITY CONVERGED
          -----------------
     TIME TO FORM FOCK OPERATORS=       0.0 SECONDS (       0.0 SEC/ITER)
     TIME TO SOLVE SCF EQUATIONS=       0.0 SECONDS (       0.0 SEC/ITER)

 FINAL RHF ENERGY IS     -150.7647465924 AFTER   7 ITERATIONS
 ...... END OF RHF CALCULATION ......
 STEP CPU TIME =     0.01 TOTAL CPU TIME =        0.2 (    0.0 MIN)
 TOTAL WALL CLOCK TIME=        0.2 SECONDS, CPU UTILIZATION IS 100.00%

 ************************************************
 * CALCULATING ENERGY     9 FOR NUMERIC HESSIAN *
 ************************************************
 MOVING ATOM   2 COORDINATE Y TO       -0.0791624250, AND
 MOVING ATOM   1 COORDINATE Y TO        0.0791624250 A.U.
 ...... END OF ONE-ELECTRON INTEGRALS ......
 STEP CPU TIME =     0.00 TOTAL CPU TIME =        0.2 (    0.0 MIN)
 TOTAL WALL CLOCK TIME=        0.2 SECONDS, CPU UTILIZATION IS 100.00%
 TOTAL NUMBER OF NONZERO TWO-ELECTRON INTEGRALS =              120559
          9 INTEGRAL RECORDS WERE STORED ON DISK FILE  8.
  ...... END OF TWO-ELECTRON INTEGRALS .....
 STEP CPU TIME =     0.01 TOTAL CPU TIME =        0.3 (    0.0 MIN)
 TOTAL WALL CLOCK TIME=        0.3 SECONDS, CPU UTILIZATION IS 100.00%

          --------------------------
                 RHF SCF CALCULATION
          --------------------------
     DENSITY MATRIX CONV=  1.00E-05

 ITER EX DEM     TOTAL ENERGY        E CHANGE  DENSITY CHANGE     ORB. GRAD
   1  0  0     -150.7646894364  -150.7646894364   0.001744644   0.000000000
          ---------------START SECOND ORDER SCF---------------
   2  1  0     -150.7647250331    -0.0000355967   0.000591562   0.000752906
   3  2  0     -150.7647295514    -0.0000045182   0.000446905   0.000299511
   4  3  0     -150.7647307408    -0.0000011894   0.000074871   0.000087516
   5  4  0     -150.7647308279    -0.0000000871   0.000071946   0.000042981
   6  5  0     -150.7647308513    -0.0000000234   0.000027404   0.000014825
   7  6  0     -150.7647308538    -0.0000000025   0.000008371   0.000003547
   8  7  0     -150.7647308541    -0.0000000003   0.000002169   0.000001062

          -----------------
          DENSITY CONVERGED
          -----------------
     TIME TO FORM FOCK OPERATORS=       0.0 SECONDS (       0.0 SEC/ITER)
     TIME TO SOLVE SCF EQUATIONS=       0.0 SECONDS (       0.0 SEC/ITER)

 FINAL RHF ENERGY IS     -150.7647308541 AFTER   8 ITERATIONS
 ...... END OF RHF CALCULATION ......
 STEP CPU TIME =     0.01 TOTAL CPU TIME =        0.3 (    0.0 MIN)
 TOTAL WALL CLOCK TIME=        0.3 SECONDS, CPU UTILIZATION IS 100.00%

 ************************************************
 * CALCULATING ENERGY    10 FOR NUMERIC HESSIAN *
 ************************************************
 MOVING ATOM   2 COORDINATE Y TO       -0.0991624250, AND
 MOVING ATOM   1 COORDINATE Y TO        0.0991624250 A.U.
 ...... END OF ONE-ELECTRON INTEGRALS ......
 STEP CPU TIME =     0.00 TOTAL CPU TIME =        0.3 (    0.0 MIN)
 TOTAL WALL CLOCK TIME=        0.3 SECONDS, CPU UTILIZATION IS 100.00%
 TOTAL NUMBER OF NONZERO TWO-ELECTRON INTEGRALS =              120561
          9 INTEGRAL RECORDS WERE STORED ON DISK FILE  8.
  ...... END OF TWO-ELECTRON INTEGRALS .....
 STEP CPU TIME =     0.01 TOTAL CPU TIME =        0.3 (    0.0 MIN)
 TOTAL WALL CLOCK TIME=        0.3 SECONDS, CPU UTILIZATION IS  96.43%

          --------------------------
                 RHF SCF CALCULATION
          --------------------------
     DENSITY MATRIX CONV=  1.00E-05

 ITER EX DEM     TOTAL ENERGY        E CHANGE  DENSITY CHANGE     ORB. GRAD
   1  0  0     -150.7646902197  -150.7646902197   0.001752953   0.000000000
          ---------------START SECOND ORDER SCF---------------
   2  1  0     -150.7647257355    -0.0000355157   0.000588922   0.000764439
   3  2  0     -150.7647302448    -0.0000045093   0.000443222   0.000297345
   4  3  0     -150.7647314277    -0.0000011829   0.000074461   0.000086944
   5  4  0     -150.7647315139    -0.0000000862   0.000072766   0.000043573
   6  5  0     -150.7647315375    -0.0000000235   0.000027389   0.000014939
   7  6  0     -150.7647315400    -0.0000000025   0.000008635   0.000003663
   8  7  0     -150.7647315403    -0.0000000003   0.000002152   0.000001131

          -----------------
          DENSITY CONVERGED
          -----------------
     TIME TO FORM FOCK OPERATORS=       0.0 SECONDS (       0.0 SEC/ITER)
     TIME TO SOLVE SCF EQUATIONS=       0.0 SECONDS (       0.0 SEC/ITER)

 FINAL RHF ENERGY IS     -150.7647315403 AFTER   8 ITERATIONS
 ...... END OF RHF CALCULATION ......
 STEP CPU TIME =     0.02 TOTAL CPU TIME =        0.3 (    0.0 MIN)
 TOTAL WALL CLOCK TIME=        0.3 SECONDS, CPU UTILIZATION IS 100.00%

 ************************************************
 * CALCULATING ENERGY    11 FOR NUMERIC HESSIAN *
 ************************************************
 MOVING ATOM   2 COORDINATE Z TO       -0.0114816750, AND
 MOVING ATOM   1 COORDINATE X TO        1.3264455125 A.U.
 ...... END OF ONE-ELECTRON INTEGRALS ......
 STEP CPU TIME =     0.00 TOTAL CPU TIME =        0.3 (    0.0 MIN)
 TOTAL WALL CLOCK TIME=        0.3 SECONDS, CPU UTILIZATION IS 100.00%
 TOTAL NUMBER OF NONZERO TWO-ELECTRON INTEGRALS =              164517
         11 INTEGRAL RECORDS WERE STORED ON DISK FILE  8.
  ...... END OF TWO-ELECTRON INTEGRALS .....
 STEP CPU TIME =     0.01 TOTAL CPU TIME =        0.3 (    0.0 MIN)
 TOTAL WALL CLOCK TIME=        0.3 SECONDS, CPU UTILIZATION IS 100.00%

          --------------------------
                 RHF SCF CALCULATION
          --------------------------
     DENSITY MATRIX CONV=  1.00E-05

 ITER EX DEM     TOTAL ENERGY        E CHANGE  DENSITY CHANGE     ORB. GRAD
   1  0  0     -150.7647197665  -150.7647197665   0.001401964   0.000000000
          ---------------START SECOND ORDER SCF---------------
   2  1  0     -150.7647472192    -0.0000274528   0.000413535   0.000287424
   3  2  0     -150.7647499984    -0.0000027791   0.000399524   0.000207718
   4  3  0     -150.7647506179    -0.0000006196   0.000137439   0.000086998
   5  4  0     -150.7647507044    -0.0000000864   0.000028686   0.000027529
   6  5  0     -150.7647507167    -0.0000000123   0.000022209   0.000010610
   7  6  0     -150.7647507186    -0.0000000019   0.000004532   0.000003361
   8  7  0     -150.7647507187    -0.0000000001   0.000003033   0.000000991

          -----------------
          DENSITY CONVERGED
          -----------------
     TIME TO FORM FOCK OPERATORS=       0.0 SECONDS (       0.0 SEC/ITER)
     TIME TO SOLVE SCF EQUATIONS=       0.0 SECONDS (       0.0 SEC/ITER)

 FINAL RHF ENERGY IS     -150.7647507187 AFTER   8 ITERATIONS
 ...... END OF RHF CALCULATION ......
 STEP CPU TIME =     0.01 TOTAL CPU TIME =        0.3 (    0.0 MIN)
 TOTAL WALL CLOCK TIME=        0.3 SECONDS, CPU UTILIZATION IS  96.88%

 ************************************************
 * CALCULATING ENERGY    12 FOR NUMERIC HESSIAN *
 ************************************************
 MOVING ATOM   2 COORDINATE Z TO       -0.0114816750, AND
 MOVING ATOM   1 COORDINATE X TO        1.3064455125 A.U.
 ...... END OF ONE-ELECTRON INTEGRALS ......
 STEP CPU TIME =     0.00 TOTAL CPU TIME =        0.3 (    0.0 MIN)
 TOTAL WALL CLOCK TIME=        0.3 SECONDS, CPU UTILIZATION IS  96.88%
 TOTAL NUMBER OF NONZERO TWO-ELECTRON INTEGRALS =              164522
         11 INTEGRAL RECORDS WERE STORED ON DISK FILE  8.
  ...... END OF TWO-ELECTRON INTEGRALS .....
 STEP CPU TIME =     0.01 TOTAL CPU TIME =        0.3 (    0.0 MIN)
 TOTAL WALL CLOCK TIME=        0.3 SECONDS, CPU UTILIZATION IS  96.97%

          --------------------------
                 RHF SCF CALCULATION
          --------------------------
     DENSITY MATRIX CONV=  1.00E-05

 ITER EX DEM     TOTAL ENERGY        E CHANGE  DENSITY CHANGE     ORB. GRAD
   1  0  0     -150.7647255518  -150.7647255518   0.001538637   0.000000000
          ---------------START SECOND ORDER SCF---------------
   2  1  0     -150.7647527305    -0.0000271787   0.000597931   0.000480274
   3  2  0     -150.7647554514    -0.0000027210   0.000365595   0.000245279
   4  3  0     -150.7647560307    -0.0000005792   0.000078464   0.000064061
   5  4  0     -150.7647560841    -0.0000000535   0.000032224   0.000016256
   6  5  0     -150.7647560908    -0.0000000067   0.000013871   0.000006174
   7  6  0     -150.7647560916    -0.0000000008   0.000003237   0.000002360
   8  7  0     -150.7647560917    -0.0000000001   0.000002422   0.000001115

          -----------------
          DENSITY CONVERGED
          -----------------
     TIME TO FORM FOCK OPERATORS=       0.0 SECONDS (       0.0 SEC/ITER)
     TIME TO SOLVE SCF EQUATIONS=       0.0 SECONDS (       0.0 SEC/ITER)

 FINAL RHF ENERGY IS     -150.7647560917 AFTER   8 ITERATIONS
 ...... END OF RHF CALCULATION ......
 STEP CPU TIME =     0.02 TOTAL CPU TIME =        0.3 (    0.0 MIN)
 TOTAL WALL CLOCK TIME=        0.3 SECONDS, CPU UTILIZATION IS 100.00%

 ************************************************
 * CALCULATING ENERGY    13 FOR NUMERIC HESSIAN *
 ************************************************
 MOVING ATOM   2 COORDINATE Z TO       -0.0314816750, AND
 MOVING ATOM   1 COORDINATE X TO        1.3264455125 A.U.
 ...... END OF ONE-ELECTRON INTEGRALS ......
 STEP CPU TIME =     0.00 TOTAL CPU TIME =        0.3 (    0.0 MIN)
 TOTAL WALL CLOCK TIME=        0.3 SECONDS, CPU UTILIZATION IS 100.00%
 TOTAL NUMBER OF NONZERO TWO-ELECTRON INTEGRALS =              164518
         11 INTEGRAL RECORDS WERE STORED ON DISK FILE  8.
  ...... END OF TWO-ELECTRON INTEGRALS .....
 STEP CPU TIME =     0.01 TOTAL CPU TIME =        0.4 (    0.0 MIN)
 TOTAL WALL CLOCK TIME=        0.3 SECONDS, CPU UTILIZATION IS 100.00%

          --------------------------
                 RHF SCF CALCULATION
          --------------------------
     DENSITY MATRIX CONV=  1.00E-05

 ITER EX DEM     TOTAL ENERGY        E CHANGE  DENSITY CHANGE     ORB. GRAD
   1  0  0     -150.7647261949  -150.7647261949   0.001544926   0.000000000
          ---------------START SECOND ORDER SCF---------------
   2  1  0     -150.7647530578    -0.0000268628   0.000602026   0.000465559
   3  2  0     -150.7647557638    -0.0000027060   0.000357957   0.000243807
   4  3  0     -150.7647563553    -0.0000005915   0.000078442   0.000065581
   5  4  0     -150.7647564095    -0.0000000542   0.000033934   0.000016923
   6  5  0     -150.7647564167    -0.0000000073   0.000013981   0.000006373
   7  6  0     -150.7647564176    -0.0000000008   0.000003546   0.000002511
   8  7  0     -150.7647564177    -0.0000000001   0.000002595   0.000001156

          -----------------
          DENSITY CONVERGED
          -----------------
     TIME TO FORM FOCK OPERATORS=       0.0 SECONDS (       0.0 SEC/ITER)
     TIME TO SOLVE SCF EQUATIONS=       0.0 SECONDS (       0.0 SEC/ITER)

 FINAL RHF ENERGY IS     -150.7647564177 AFTER   8 ITERATIONS
 ...... END OF RHF CALCULATION ......
 STEP CPU TIME =     0.02 TOTAL CPU TIME =        0.4 (    0.0 MIN)
 TOTAL WALL CLOCK TIME=        0.4 SECONDS, CPU UTILIZATION IS 100.00%

 ************************************************
 * CALCULATING ENERGY    14 FOR NUMERIC HESSIAN *
 ************************************************
 MOVING ATOM   2 COORDINATE Z TO       -0.0314816750, AND
 MOVING ATOM   1 COORDINATE X TO        1.3064455125 A.U.
 ...... END OF ONE-ELECTRON INTEGRALS ......
 STEP CPU TIME =     0.00 TOTAL CPU TIME =        0.4 (    0.0 MIN)
 TOTAL WALL CLOCK TIME=        0.4 SECONDS, CPU UTILIZATION IS 100.00%
 TOTAL NUMBER OF NONZERO TWO-ELECTRON INTEGRALS =              164522
         11 INTEGRAL RECORDS WERE STORED ON DISK FILE  8.
  ...... END OF TWO-ELECTRON INTEGRALS .....
 STEP CPU TIME =     0.01 TOTAL CPU TIME =        0.4 (    0.0 MIN)
 TOTAL WALL CLOCK TIME=        0.4 SECONDS, CPU UTILIZATION IS 100.00%

          --------------------------
                 RHF SCF CALCULATION
          --------------------------
     DENSITY MATRIX CONV=  1.00E-05

 ITER EX DEM     TOTAL ENERGY        E CHANGE  DENSITY CHANGE     ORB. GRAD
   1  0  0     -150.7647189916  -150.7647189916   0.001401343   0.000000000
          ---------------START SECOND ORDER SCF---------------
   2  1  0     -150.7647467417    -0.0000277501   0.000414469   0.000298104
   3  2  0     -150.7647495404    -0.0000027987   0.000397219   0.000210838
   4  3  0     -150.7647501544    -0.0000006139   0.000138440   0.000086061
   5  4  0     -150.7647502366    -0.0000000822   0.000028284   0.000027571
   6  5  0     -150.7647502482    -0.0000000116   0.000021073   0.000010605
   7  6  0     -150.7647502500    -0.0000000017   0.000004432   0.000003307
   8  7  0     -150.7647502501    -0.0000000001   0.000002844   0.000000941

          -----------------
          DENSITY CONVERGED
          -----------------
     TIME TO FORM FOCK OPERATORS=       0.0 SECONDS (       0.0 SEC/ITER)
     TIME TO SOLVE SCF EQUATIONS=       0.0 SECONDS (       0.0 SEC/ITER)

 FINAL RHF ENERGY IS     -150.7647502501 AFTER   8 ITERATIONS
 ...... END OF RHF CALCULATION ......
 STEP CPU TIME =     0.01 TOTAL CPU TIME =        0.4 (    0.0 MIN)
 TOTAL WALL CLOCK TIME=        0.4 SECONDS, CPU UTILIZATION IS  97.50%

 ************************************************
 * CALCULATING ENERGY    15 FOR NUMERIC HESSIAN *
 ************************************************
 MOVING ATOM   2 COORDINATE Z TO       -0.0114816750, AND
 MOVING ATOM   1 COORDINATE Y TO        0.0991624250 A.U.
 ...... END OF ONE-ELECTRON INTEGRALS ......
 STEP CPU TIME =     0.00 TOTAL CPU TIME =        0.4 (    0.0 MIN)
 TOTAL WALL CLOCK TIME=        0.4 SECONDS, CPU UTILIZATION IS  97.50%
 TOTAL NUMBER OF NONZERO TWO-ELECTRON INTEGRALS =              164525
         11 INTEGRAL RECORDS WERE STORED ON DISK FILE  8.
  ...... END OF TWO-ELECTRON INTEGRALS .....
 STEP CPU TIME =     0.01 TOTAL CPU TIME =        0.4 (    0.0 MIN)
 TOTAL WALL CLOCK TIME=        0.4 SECONDS, CPU UTILIZATION IS  97.56%

          --------------------------
                 RHF SCF CALCULATION
          --------------------------
     DENSITY MATRIX CONV=  1.00E-05

 ITER EX DEM     TOTAL ENERGY        E CHANGE  DENSITY CHANGE     ORB. GRAD
   1  0  0     -150.7647263737  -150.7647263737   0.001510237   0.000000000
          ---------------START SECOND ORDER SCF---------------
   2  1  0     -150.7647490890    -0.0000227153   0.000761345   0.000503350
   3  2  0     -150.7647522344    -0.0000031455   0.000418412   0.000336009
   4  3  0     -150.7647533835    -0.0000011490   0.000144580   0.000044697
   5  4  0     -150.7647534588    -0.0000000754   0.000080357   0.000022949
   6  5  0     -150.7647534723    -0.0000000135   0.000018981   0.000010467
   7  6  0     -150.7647534739    -0.0000000015   0.000009701   0.000003793
   8  7  0     -150.7647534741    -0.0000000003   0.000003364   0.000001162

          -----------------
          DENSITY CONVERGED
          -----------------
     TIME TO FORM FOCK OPERATORS=       0.0 SECONDS (       0.0 SEC/ITER)
     TIME TO SOLVE SCF EQUATIONS=       0.0 SECONDS (       0.0 SEC/ITER)

 FINAL RHF ENERGY IS     -150.7647534741 AFTER   8 ITERATIONS
 ...... END OF RHF CALCULATION ......
 STEP CPU TIME =     0.02 TOTAL CPU TIME =        0.4 (    0.0 MIN)
 TOTAL WALL CLOCK TIME=        0.4 SECONDS, CPU UTILIZATION IS  97.67%

 ************************************************
 * CALCULATING ENERGY    16 FOR NUMERIC HESSIAN *
 ************************************************
 MOVING ATOM   2 COORDINATE Z TO       -0.0114816750, AND
 MOVING ATOM   1 COORDINATE Y TO        0.0791624250 A.U.
 ...... END OF ONE-ELECTRON INTEGRALS ......
 STEP CPU TIME =     0.00 TOTAL CPU TIME =        0.4 (    0.0 MIN)
 TOTAL WALL CLOCK TIME=        0.4 SECONDS, CPU UTILIZATION IS  97.67%
 TOTAL NUMBER OF NONZERO TWO-ELECTRON INTEGRALS =              164510
         11 INTEGRAL RECORDS WERE STORED ON DISK FILE  8.
  ...... END OF TWO-ELECTRON INTEGRALS .....
 STEP CPU TIME =     0.01 TOTAL CPU TIME =        0.4 (    0.0 MIN)
 TOTAL WALL CLOCK TIME=        0.4 SECONDS, CPU UTILIZATION IS  97.73%

          --------------------------
                 RHF SCF CALCULATION
          --------------------------
     DENSITY MATRIX CONV=  1.00E-05

 ITER EX DEM     TOTAL ENERGY        E CHANGE  DENSITY CHANGE     ORB. GRAD
   1  0  0     -150.7647259421  -150.7647259421   0.001463711   0.000000000
          ---------------START SECOND ORDER SCF---------------
   2  1  0     -150.7647494024    -0.0000234603   0.000524436   0.000398281
   3  2  0     -150.7647523627    -0.0000029604   0.000452013   0.000175013
   4  3  0     -150.7647531462    -0.0000007835   0.000077854   0.000055891
   5  4  0     -150.7647532012    -0.0000000551   0.000053164   0.000030485
   6  5  0     -150.7647532132    -0.0000000119   0.000020512   0.000011274
   7  6  0     -150.7647532152    -0.0000000021   0.000008176   0.000003304
   8  7  0     -150.7647532155    -0.0000000003   0.000004279   0.000001082

          -----------------
          DENSITY CONVERGED
          -----------------
     TIME TO FORM FOCK OPERATORS=       0.0 SECONDS (       0.0 SEC/ITER)
     TIME TO SOLVE SCF EQUATIONS=       0.0 SECONDS (       0.0 SEC/ITER)

 FINAL RHF ENERGY IS     -150.7647532155 AFTER   8 ITERATIONS
 ...... END OF RHF CALCULATION ......
 STEP CPU TIME =     0.02 TOTAL CPU TIME =        0.5 (    0.0 MIN)
 TOTAL WALL CLOCK TIME=        0.5 SECONDS, CPU UTILIZATION IS 100.00%

 ************************************************
 * CALCULATING ENERGY    17 FOR NUMERIC HESSIAN *
 ************************************************
 MOVING ATOM   2 COORDINATE Z TO       -0.0314816750, AND
 MOVING ATOM   1 COORDINATE Y TO        0.0991624250 A.U.
 ...... END OF ONE-ELECTRON INTEGRALS ......
 STEP CPU TIME =     0.00 TOTAL CPU TIME =        0.5 (    0.0 MIN)
 TOTAL WALL CLOCK TIME=        0.5 SECONDS, CPU UTILIZATION IS 100.00%
 TOTAL NUMBER OF NONZERO TWO-ELECTRON INTEGRALS =              164524
         11 INTEGRAL RECORDS WERE STORED ON DISK FILE  8.
  ...... END OF TWO-ELECTRON INTEGRALS .....
 STEP CPU TIME =     0.01 TOTAL CPU TIME =        0.5 (    0.0 MIN)
 TOTAL WALL CLOCK TIME=        0.5 SECONDS, CPU UTILIZATION IS 100.00%

          --------------------------
                 RHF SCF CALCULATION
          --------------------------
     DENSITY MATRIX CONV=  1.00E-05

[...]
     TIME TO SOLVE SCF EQUATIONS=       0.0 SECONDS (       0.0 SEC/ITER)

 FINAL RHF ENERGY IS     -150.7647839798 AFTER   8 ITERATIONS
 ...... END OF RHF CALCULATION ......
 STEP CPU TIME =     0.01 TOTAL CPU TIME =        3.6 (    0.1 MIN)
 TOTAL WALL CLOCK TIME=        3.6 SECONDS, CPU UTILIZATION IS  99.73%

 ************************************************
 * CALCULATING ENERGY   147 FOR NUMERIC HESSIAN *
 ************************************************
 MOVING ATOM   4 COORDINATE Z TO        0.8978474779, AND
 MOVING ATOM   4 COORDINATE Y TO        1.3796718323 A.U.
 ...... END OF ONE-ELECTRON INTEGRALS ......
 STEP CPU TIME =     0.00 TOTAL CPU TIME =        3.6 (    0.1 MIN)
 TOTAL WALL CLOCK TIME=        3.6 SECONDS, CPU UTILIZATION IS  99.73%
 TOTAL NUMBER OF NONZERO TWO-ELECTRON INTEGRALS =              120560
          9 INTEGRAL RECORDS WERE STORED ON DISK FILE  8.
  ...... END OF TWO-ELECTRON INTEGRALS .....
 STEP CPU TIME =     0.01 TOTAL CPU TIME =        3.6 (    0.1 MIN)
 TOTAL WALL CLOCK TIME=        3.7 SECONDS, CPU UTILIZATION IS  99.73%

          --------------------------
                 RHF SCF CALCULATION
          --------------------------
     DENSITY MATRIX CONV=  1.00E-05

 ITER EX DEM     TOTAL ENERGY        E CHANGE  DENSITY CHANGE     ORB. GRAD
   1  0  0     -150.7647756110  -150.7647756110   0.002014040   0.000000000
          ---------------START SECOND ORDER SCF---------------
   2  1  0     -150.7647827541    -0.0000071431   0.000496970   0.000201543
   3  2  0     -150.7647835810    -0.0000008269   0.000410513   0.000089604
   4  3  0     -150.7647837849    -0.0000002039   0.000082266   0.000042862
   5  4  0     -150.7647838079    -0.0000000229   0.000035120   0.000010242
   6  5  0     -150.7647838096    -0.0000000017   0.000012889   0.000002668
   7  6  0     -150.7647838097    -0.0000000002   0.000001472   0.000000785
   8  7  0     -150.7647838098    -0.0000000000   0.000000930   0.000000315

          -----------------
          DENSITY CONVERGED
          -----------------
     TIME TO FORM FOCK OPERATORS=       0.0 SECONDS (       0.0 SEC/ITER)
     TIME TO SOLVE SCF EQUATIONS=       0.0 SECONDS (       0.0 SEC/ITER)

 FINAL RHF ENERGY IS     -150.7647838098 AFTER   8 ITERATIONS
 ...... END OF RHF CALCULATION ......
 STEP CPU TIME =     0.01 TOTAL CPU TIME =        3.6 (    0.1 MIN)
 TOTAL WALL CLOCK TIME=        3.7 SECONDS, CPU UTILIZATION IS  99.73%

 ************************************************
 * CALCULATING ENERGY   148 FOR NUMERIC HESSIAN *
 ************************************************
 MOVING ATOM   4 COORDINATE Z TO        0.8978474779, AND
 MOVING ATOM   4 COORDINATE Y TO        1.3596718323 A.U.
 ...... END OF ONE-ELECTRON INTEGRALS ......
 STEP CPU TIME =     0.00 TOTAL CPU TIME =        3.6 (    0.1 MIN)
 TOTAL WALL CLOCK TIME=        3.7 SECONDS, CPU UTILIZATION IS  99.73%
 TOTAL NUMBER OF NONZERO TWO-ELECTRON INTEGRALS =              120560
          9 INTEGRAL RECORDS WERE STORED ON DISK FILE  8.
  ...... END OF TWO-ELECTRON INTEGRALS .....
 STEP CPU TIME =     0.02 TOTAL CPU TIME =        3.7 (    0.1 MIN)
 TOTAL WALL CLOCK TIME=        3.7 SECONDS, CPU UTILIZATION IS 100.00%

          --------------------------
                 RHF SCF CALCULATION
          --------------------------
     DENSITY MATRIX CONV=  1.00E-05

 ITER EX DEM     TOTAL ENERGY        E CHANGE  DENSITY CHANGE     ORB. GRAD
   1  0  0     -150.7647137685  -150.7647137685   0.002164206   0.000000000
          ---------------START SECOND ORDER SCF---------------
   2  1  0     -150.7647298979    -0.0000161294   0.000857318   0.000355950
   3  2  0     -150.7647315573    -0.0000016594   0.000360998   0.000258852
   4  3  0     -150.7647321880    -0.0000006307   0.000132228   0.000033463
   5  4  0     -150.7647322226    -0.0000000345   0.000039298   0.000016686
   6  5  0     -150.7647322255    -0.0000000029   0.000007955   0.000005639
   7  6  0     -150.7647322258    -0.0000000003   0.000003125   0.000001429

          -----------------
          DENSITY CONVERGED
          -----------------
     TIME TO FORM FOCK OPERATORS=       0.0 SECONDS (       0.0 SEC/ITER)
     TIME TO SOLVE SCF EQUATIONS=       0.0 SECONDS (       0.0 SEC/ITER)

 FINAL RHF ENERGY IS     -150.7647322258 AFTER   7 ITERATIONS
 ...... END OF RHF CALCULATION ......
 STEP CPU TIME =     0.01 TOTAL CPU TIME =        3.7 (    0.1 MIN)
 TOTAL WALL CLOCK TIME=        3.7 SECONDS, CPU UTILIZATION IS 100.00%

 ************************************************
 * CALCULATING ENERGY   149 FOR NUMERIC HESSIAN *
 ************************************************
 MOVING ATOM   4 COORDINATE Z TO        0.9278474779 A.U.
 ...... END OF ONE-ELECTRON INTEGRALS ......
 STEP CPU TIME =     0.00 TOTAL CPU TIME =        3.7 (    0.1 MIN)
 TOTAL WALL CLOCK TIME=        3.7 SECONDS, CPU UTILIZATION IS 100.00%
 TOTAL NUMBER OF NONZERO TWO-ELECTRON INTEGRALS =              120559
          9 INTEGRAL RECORDS WERE STORED ON DISK FILE  8.
  ...... END OF TWO-ELECTRON INTEGRALS .....
 STEP CPU TIME =     0.01 TOTAL CPU TIME =        3.7 (    0.1 MIN)
 TOTAL WALL CLOCK TIME=        3.7 SECONDS, CPU UTILIZATION IS 100.00%

          --------------------------
                 RHF SCF CALCULATION
          --------------------------
     DENSITY MATRIX CONV=  1.00E-05

 ITER EX DEM     TOTAL ENERGY        E CHANGE  DENSITY CHANGE     ORB. GRAD
   1  0  0     -150.7647319967  -150.7647319967   0.002423660   0.000000000
          ---------------START SECOND ORDER SCF---------------
   2  1  0     -150.7647510924    -0.0000190957   0.000890465   0.000371410
   3  2  0     -150.7647532422    -0.0000021498   0.000565273   0.000205266
   4  3  0     -150.7647539021    -0.0000006600   0.000210646   0.000043164
   5  4  0     -150.7647539404    -0.0000000383   0.000078536   0.000015239
   6  5  0     -150.7647539461    -0.0000000056   0.000009033   0.000004027
   7  6  0     -150.7647539464    -0.0000000003   0.000003254   0.000001097

          -----------------
          DENSITY CONVERGED
          -----------------
     TIME TO FORM FOCK OPERATORS=       0.0 SECONDS (       0.0 SEC/ITER)
     TIME TO SOLVE SCF EQUATIONS=       0.0 SECONDS (       0.0 SEC/ITER)

 FINAL RHF ENERGY IS     -150.7647539464 AFTER   7 ITERATIONS
 ...... END OF RHF CALCULATION ......
 STEP CPU TIME =     0.01 TOTAL CPU TIME =        3.7 (    0.1 MIN)
 TOTAL WALL CLOCK TIME=        3.7 SECONDS, CPU UTILIZATION IS 100.00%

 ************************************************
 * CALCULATING ENERGY   150 FOR NUMERIC HESSIAN *
 ************************************************
 MOVING ATOM   4 COORDINATE Z TO        0.8878474779 A.U.
 ...... END OF ONE-ELECTRON INTEGRALS ......
 STEP CPU TIME =     0.00 TOTAL CPU TIME =        3.7 (    0.1 MIN)
 TOTAL WALL CLOCK TIME=        3.7 SECONDS, CPU UTILIZATION IS 100.00%
 TOTAL NUMBER OF NONZERO TWO-ELECTRON INTEGRALS =              120559
          9 INTEGRAL RECORDS WERE STORED ON DISK FILE  8.
  ...... END OF TWO-ELECTRON INTEGRALS .....
 STEP CPU TIME =     0.01 TOTAL CPU TIME =        3.7 (    0.1 MIN)
 TOTAL WALL CLOCK TIME=        3.7 SECONDS, CPU UTILIZATION IS  99.73%

          --------------------------
                 RHF SCF CALCULATION
          --------------------------
     DENSITY MATRIX CONV=  1.00E-05

 ITER EX DEM     TOTAL ENERGY        E CHANGE  DENSITY CHANGE     ORB. GRAD
   1  0  0     -150.7647320806  -150.7647320806   0.002422245   0.000000000
          ---------------START SECOND ORDER SCF---------------
   2  1  0     -150.7647512900    -0.0000192094   0.000884961   0.000448666
   3  2  0     -150.7647534226    -0.0000021326   0.000566047   0.000212727
   4  3  0     -150.7647540642    -0.0000006416   0.000204776   0.000037084
   5  4  0     -150.7647541003    -0.0000000361   0.000079254   0.000014723
   6  5  0     -150.7647541057    -0.0000000054   0.000008380   0.000003687
   7  6  0     -150.7647541060    -0.0000000003   0.000003150   0.000001065

          -----------------
          DENSITY CONVERGED
          -----------------
     TIME TO FORM FOCK OPERATORS=       0.0 SECONDS (       0.0 SEC/ITER)
     TIME TO SOLVE SCF EQUATIONS=       0.0 SECONDS (       0.0 SEC/ITER)

 FINAL RHF ENERGY IS     -150.7647541060 AFTER   7 ITERATIONS
 ...... END OF RHF CALCULATION ......
 STEP CPU TIME =     0.01 TOTAL CPU TIME =        3.7 (    0.1 MIN)
 TOTAL WALL CLOCK TIME=        3.7 SECONDS, CPU UTILIZATION IS  99.73%
 ...... END OF NUMERICAL HESSIAN CALCULATION ......

          ---------------
          ENERGY GRADIENT
          ---------------

 UNITS ARE HARTREE/BOHR    E'X               E'Y               E'Z 
    1 O               -0.000096329      -0.000063461      -0.000008812
    2 O                0.000096329       0.000063461      -0.000008812
    3 H                0.000006701       0.000062271       0.000003991
    4 H               -0.000006701      -0.000062271       0.000003991

          -------------------------------
          CARTESIAN FORCE CONSTANT MATRIX
          -------------------------------

                                   1                          2
                               O                          O         
                          X        Y        Z        X        Y        Z
  1   O            X 0.478956-0.103341 0.049079-0.366403-0.006586 0.028852
                   Y-0.103341 0.479741-0.269936-0.006586-0.076976 0.000413
                   Z 0.049079-0.269936 0.191053-0.028852-0.000413-0.025060
  2   O            X-0.366403-0.006586-0.028852 0.478956-0.103341-0.049079
                   Y-0.006586-0.076976-0.000413-0.103341 0.479741 0.269936
                   Z 0.028852 0.000413-0.025060-0.049079 0.269936 0.191053
  3   H            X-0.074682 0.062435-0.043227-0.037871 0.047495-0.022995
                   Y 0.125624-0.414055 0.261467-0.015698 0.011289-0.008881
                   Z-0.075589 0.262613-0.167646 0.002337-0.006914 0.001652
  4   H            X-0.037871 0.047495 0.022995-0.074682 0.062435 0.043227
                   Y-0.015698 0.011289 0.008881 0.125624-0.414055-0.261467
                   Z-0.002337 0.006914 0.001652 0.075589-0.262613-0.167646

                                   3                          4
                               H                          H         
                          X        Y        Z        X        Y        Z
  3   H            X 0.120166-0.110219 0.069737-0.007613 0.000291-0.003517
                   Y-0.110219 0.403431-0.254142 0.000291-0.000663 0.001555
                   Z 0.069737-0.254142 0.164200 0.003517-0.001555 0.001794
  4   H            X-0.007613 0.000291 0.003517 0.120166-0.110219-0.069737
                   Y 0.000291-0.000663-0.001555-0.110219 0.403431 0.254142
                   Z-0.003517 0.001555 0.001794-0.069737 0.254142 0.164200

          --------------------------------------------------------
          NORMAL COORDINATE ANALYSIS IN THE HARMONIC APPROXIMATION
          --------------------------------------------------------

          ATOMIC WEIGHTS (AMU)

    1     O                15.99491
    2     O                15.99491
    3     H                 1.00782
    4     H                 1.00782

 MODES    1 TO    6 ARE TAKEN AS ROTATIONS AND TRANSLATIONS.

 ANALYZING SYMMETRY OF NORMAL MODES...

 --- SYMMETRY FOR NORMAL MODES ---
 INCLUDING TRANSLATION AND ROTATION
    6*A      6*B   
 EXCLUDING TRANSLATION AND ROTATION (SAYVETZ < 0.01)
    4*A      2*B   

     FREQUENCIES IN CM**-1, IR INTENSITIES IN DEBYE**2/AMU-ANGSTROM**2,
     REDUCED MASSES IN AMU.

                            1           2           3           4           5
       FREQUENCY:        37.62        2.31        1.13        0.72        0.40  
        SYMMETRY:         B           A           B           A           B   
    REDUCED MASS:      1.08152     4.84829     9.29787     8.43203     8.82319

  1   O            X -0.00036144 -0.01092638  0.14811051 -0.00112580  0.07080644
                   Y -0.02477031  0.16124032 -0.08026784  0.01659728  0.14886485
                   Z -0.04073732 -0.01758349  0.03696204  0.17058070  0.04875445
  2   O            X -0.00036144  0.01092638  0.14811051  0.00112580  0.07080644
                   Y -0.02477031 -0.16124032 -0.08026784 -0.01659728  0.14886485
                   Z  0.04073732 -0.01758349 -0.03696204  0.17058070 -0.04875445
  3   H            X  0.00201881  0.16777835  0.12236028  0.01727452  0.03649169
                   Y  0.36578353  0.21967584 -0.08527633  0.02261658  0.14732752
                   Z  0.57117286 -0.01718118  0.04225910  0.17062608  0.06387895
  4   H            X  0.00201881 -0.16777835  0.12236028 -0.01727452  0.03649169
                   Y  0.36578353 -0.21967584 -0.08527633 -0.02261658  0.14732752
                   Z -0.57117286 -0.01718118 -0.04225910  0.17062608 -0.06387895

 TRANS. SAYVETZ    X -0.00749318 -0.00000000  4.98466395  0.00000000  2.33863986
                   Y -0.05510623  0.00000000 -2.73964094 -0.00000000  5.05912032
                   Z  0.00000000 -0.59712406 -0.00000000  5.80076830 -0.00000000
               TOTAL  0.05561334  0.59712406  5.68792644  5.80076830  5.57350292

   ROT. SAYVETZ    X -2.38129880 -0.00000000 -0.00241575 -0.00000000 -0.03458480
                   Y -0.34271114 -0.00000000 -1.75454843 -0.00000000 -2.34432062
                   Z  0.00000000  8.07789037 -0.00000000  0.83152820 -0.00000000
               TOTAL  2.40583352  8.07789037  1.75455009  0.83152820  2.34457571

                            6           7           8           9          10
       FREQUENCY:         3.25      396.76     1150.87     1492.98     1634.47  
        SYMMETRY:         B           A           A           B           A   
    REDUCED MASS:      5.63353     1.08321    14.61526     1.10572     1.09517

  1   O            X -0.05004533 -0.00787205  0.17582625 -0.04100958  0.00111724
                   Y -0.02695862 -0.03067726  0.01166063 -0.00924641 -0.05128820
                   Z  0.15544246 -0.03631541 -0.00326623  0.03444273  0.00540050
  2   O            X -0.05004533  0.00787205 -0.17582625 -0.04100958 -0.00111724
                   Y -0.02695862  0.03067726 -0.01166063 -0.00924641  0.05128820
                   Z -0.15544246 -0.03631541 -0.00326623 -0.03444273  0.00540050
  3   H            X -0.15866586 -0.00830706  0.01834059  0.65084369  0.66171775
                   Y -0.04335538  0.35643203 -0.01114058  0.14676184  0.09310323
                   Z  0.18521924  0.57632915  0.05185372 -0.06407680 -0.08572631
  4   H            X -0.15866586  0.00830706 -0.01834059  0.65084369 -0.66171775
                   Y -0.04335538 -0.35643203  0.01114058  0.14676184 -0.09310323
                   Z -0.18521924  0.57632915  0.05185372  0.06407680 -0.08572631

 TRANS. SAYVETZ    X -1.92075579 -0.00000000  0.00000000 -0.00001586  0.00000000
                   Y -0.94979074 -0.00000000  0.00000000  0.00002952 -0.00000000
                   Z  0.00000000 -0.00004557  0.00003282 -0.00000000 -0.00003325
               TOTAL  2.14275646  0.00004557  0.00003282  0.00003350  0.00003325

   ROT. SAYVETZ    X -0.03908857  0.00000000  0.00000000  0.00022955  0.00000000
                   Y -7.40634912  0.00000000  0.00000000  0.00005849  0.00000000
                   Z  0.00000000 -0.00533307 -0.00003886  0.00000000 -0.00003243
               TOTAL  7.40645227  0.00533307  0.00003886  0.00023688  0.00003243

                           11          12
       FREQUENCY:      4090.82     4092.73  
        SYMMETRY:         A           B   
    REDUCED MASS:      1.06985     1.06741

  1   O            X  0.01269655  0.01110042
                   Y -0.03575600 -0.03507770
                   Z  0.02223394  0.02255139
  2   O            X -0.01269655  0.01110042
                   Y  0.03575600 -0.03507770
                   Z  0.02223394 -0.02255139
  3   H            X -0.17144716 -0.17617535
                   Y  0.55813330  0.55670828
                   Z -0.35286871 -0.35440244
  4   H            X  0.17144716 -0.17617535
                   Y -0.55813330  0.55670828
                   Z -0.35286871  0.35440244

 TRANS. SAYVETZ    X  0.00000000 -0.00000726
                   Y -0.00000000 -0.00000017
                   Z -0.00000020  0.00000000
               TOTAL  0.00000020  0.00000727

   ROT. SAYVETZ    X -0.00000000 -0.00007732
                   Y -0.00000000  0.00001068
                   Z  0.00005622 -0.00000000
               TOTAL  0.00005622  0.00007805

 REFERENCE ON SAYVETZ CONDITIONS - A. SAYVETZ, J.CHEM.PHYS., 7, 383-389(1939).

 NOTE - THE MODES J,K ARE ORTHONORMALIZED ACCORDING TO
 SUM ON I   M(I) * (X(I,J)*X(I,K) + Y(I,J)*Y(I,K) + Z(I,J)*Z(I,K)) = DELTA(J,K)

     -------------------------------
     THERMOCHEMISTRY AT T=  298.15 K
     -------------------------------

 USING IDEAL GAS, RIGID ROTOR, HARMONIC NORMAL MODE APPROXIMATIONS.
 P=  1.01325E+05 PASCAL.
 ALL FREQUENCIES ARE SCALED BY   1.00000
 THE MOMENTS OF INERTIA ARE (IN AMU*BOHR**2)
      5.64882    63.57023    65.94378
 THE ROTATIONAL SYMMETRY NUMBER IS  2.0
 THE ROTATIONAL CONSTANTS ARE (IN GHZ)
    319.19749    28.36372    27.34281
      7 -     12 VIBRATIONAL MODES ARE USED IN THERMOCHEMISTRY.
 THE HARMONIC ZERO POINT ENERGY IS (SCALED BY   1.000)
        0.029294 HARTREE/MOLECULE     6429.309725 CM**-1/MOLECULE 
       18.382337 KCAL/MOL               76.911700 KJ/MOL

               Q               LN Q
 ELEC.     1.00000E+00       0.000000
 TRANS.    7.79430E+06      15.868903
 ROT.      8.70972E+02       6.769609
 VIB.      1.17875E+00       0.164456
 TOT.      8.00208E+09      22.802968

              E         H         G         CV        CP        S
           KJ/MOL    KJ/MOL    KJ/MOL   J/MOL-K   J/MOL-K   J/MOL-K
 ELEC.      0.000     0.000     0.000     0.000     0.000     0.000
 TRANS.     3.718     6.197   -39.338    12.472    20.786   152.727
 ROT.       3.718     3.718   -16.781    12.472    12.472    68.757
 VIB.      77.806    77.806    76.504     7.697     7.697     4.368
 TOTAL     85.243    87.722    20.384    32.640    40.954   225.852
 VIB. THERMAL CORRECTION E(T)-E(0) = H(T)-H(0) =   894.662 J/MOL

              E         H         G         CV        CP        S
         KCAL/MOL  KCAL/MOL  KCAL/MOL CAL/MOL-K CAL/MOL-K CAL/MOL-K
 ELEC.      0.000     0.000     0.000     0.000     0.000     0.000
 TRANS.     0.889     1.481    -9.402     2.981     4.968    36.503
 ROT.       0.889     0.889    -4.011     2.981     2.981    16.433
 VIB.      18.596    18.596    18.285     1.840     1.840     1.044
 TOTAL     20.374    20.966     4.872     7.801     9.788    53.980
 VIB. THERMAL CORRECTION E(T)-E(0) = H(T)-H(0) =   213.829 CAL/MOL
 ......END OF NORMAL COORDINATE ANALYSIS......
 STEP CPU TIME =     0.00 TOTAL CPU TIME =        3.7 (    0.1 MIN)
 TOTAL WALL CLOCK TIME=        3.7 SECONDS, CPU UTILIZATION IS  99.73%
               580000  WORDS OF DYNAMIC MEMORY USED
 EXECUTION OF GAMESS TERMINATED NORMALLY Wed Aug  9 20:34:45 2017
 DDI: 263640 bytes (0.3 MB / 0 MWords) used by master data server.

 ----------------------------------------
 CPU timing information for all processes
 ========================================
 0: 3.370 + 0.361 = 3.732
 ----------------------------------------
 ddikick.x: exited gracefully.
unset echo
----- accounting info -----
Files used on the master node compute-1-1.local were:
-rw-rw-r-- 1 sarom sarom 1.2K Aug  9 20:34 /scratch/hooh-fullnum.F05
-rw-rw-r-- 1 sarom sarom 1.6M Aug  9 20:34 /scratch/hooh-fullnum.F08
-rw-rw-r-- 1 sarom sarom 2.0M Aug  9 20:34 /scratch/hooh-fullnum.F10
rm: cannot remove `/scratch/tmp': Is a directory
ls: No match.
ls: No match.
ls: No match.
Wed Aug  9 20:34:48 CDT 2017
0.243u 0.156s 0:07.20 5.4%	0+0k 0+360io 0pf+0w
/opt/gridengine/default/spool/compute-1-1/active_jobs/35886.1/pe_hostfile compute-1-1.local
