-catch_rsh /opt/gridengine/default/spool/compute-0-2/active_jobs/23615.1/pe_hostfile
compute-0-2
The primary node assigned by SGE to this run is compute-0-2
Warning: no access to tty (Bad file descriptor).
Thus no job control in this shell.
Deleting shmid=3964928.
Deleting shmid=3997697.
Deleting shmid=4227074.
source /home/sarom/gamess.github.2017-05-31.14.06/install.info
setenv GMS_PATH /home/sarom/gamess.github.2017-05-31.14.06
setenv GMS_BUILD_DIR /home/sarom/gamess.github.2017-05-31.14.06
setenv GMS_TARGET linux64
setenv GMS_FORTRAN gfortran
setenv GMS_GFORTRAN_VERNO 4.4
setenv GMS_MATHLIB mkl-so
setenv GMS_MATHLIB_PATH /share/apps/intel/compilers_and_libraries_2017.1.132/linux/mkl/lib/intel64
setenv GMS_MKL_VERNO 12
setenv GMS_DDI_COMM sockets
setenv GMS_LIBCCHEM false
setenv GMS_EIGEN_PATH
setenv GMS_PHI false
setenv GMS_SHMTYPE sysv
setenv GMS_OPENMP false
unset echo
mcp-y-wat2-rhf
tests/mcp
----- GAMESS execution script 'rungms' -----
This job is running on host compute-0-2.local
under operating system Linux at Fri Jun 2 01:36:57 CDT 2017
Available scratch disk space (Kbyte units) at beginning of the job is
Filesystem           1K-blocks      Used Available Use% Mounted on
/dev/sda1             16126920   3867312  11440408  26% /
GAMESS temporary binary files will be written to /scratch
GAMESS supplementary output files will be written to /home/sarom/restart
Copying input file mcp-y-wat2-rhf.inp to your run's scratch directory...
cp tests/mcp/mcp-y-wat2-rhf.inp /scratch/mcp-y-wat2-rhf.F05
unset echo
The generated host list is
compute-0-2.local
/home/sarom/gamess.github.2017-05-31.14.06/ddikick.x /home/sarom/gamess.github.2017-05-31.14.06/gamess.00.x mcp-y-wat2-rhf -ddi 1 1 compute-0-2.local -scr /scratch

 Distributed Data Interface kickoff program.
 Initiating 1 compute processes on 1 nodes to run the following command:
 /home/sarom/gamess.github.2017-05-31.14.06/gamess.00.x mcp-y-wat2-rhf 

          ******************************************************
          *         GAMESS VERSION = 20 APR 2017 (R1)          *
          *             FROM IOWA STATE UNIVERSITY             *
          * M.W.SCHMIDT, K.K.BALDRIDGE, J.A.BOATZ, S.T.ELBERT, *
          *   M.S.GORDON, J.H.JENSEN, S.KOSEKI, N.MATSUNAGA,   *
          *          K.A.NGUYEN, S.J.SU, T.L.WINDUS,           *
          *       TOGETHER WITH M.DUPUIS, J.A.MONTGOMERY       *
          *         J.COMPUT.CHEM.  14, 1347-1363(1993)        *
          **************** 64 BIT LINUX VERSION ****************

  SINCE 1993, STUDENTS AND POSTDOCS WORKING AT IOWA STATE UNIVERSITY
  AND ALSO IN THEIR VARIOUS JOBS AFTER LEAVING ISU HAVE MADE IMPORTANT
  CONTRIBUTIONS TO THE CODE:
     IVANA ADAMOVIC, CHRISTINE AIKENS, YURI ALEXEEV, POOJA ARORA,
     ANDREY ASADCHEV, ROB BELL, PRADIPTA BANDYOPADHYAY, JONATHAN BENTZ,
     BRETT BODE, KURT BRORSEN, CALEB CARLIN, GALINA CHABAN, WEI CHEN,
     CHEOL HO CHOI, PAUL DAY, ALBERT DEFUSCO, NUWAN DESILVA, TIM DUDLEY,
     DMITRI FEDOROV, GRAHAM FLETCHER, MARK FREITAG, KURT GLAESEMANN,
     DAN KEMP, GRANT MERRILL, NORIYUKI MINEZAWA, JONATHAN MULLIN,
     TAKESHI NAGATA, SEAN NEDD, HEATHER NETZLOFF, BOSILJKA NJEGIC, RYAN OLSON,
     MIKE PAK, SPENCER PRUITT, LUKE ROSKOP, JIM SHOEMAKER, LYUDMILA SLIPCHENKO,
     TONY SMITH, SAROM SOK LEANG, JIE SONG, TETSUYA TAKETSUGU, SIMON WEBB,
     PENG XU, SOOHAENG YOO, FEDERICO ZAHARIEV

  ADDITIONAL CODE HAS BEEN PROVIDED BY COLLABORATORS IN OTHER GROUPS:
     IOWA STATE UNIVERSITY:
          JOE IVANIC, AARON WEST, LAIMUTIS BYTAUTAS, KLAUS RUEDENBERG
     UNIVERSITY OF TOKYO: KIMIHIKO HIRAO, TAKAHITO NAKAJIMA,
          TAKAO TSUNEDA, MUNEAKI KAMIYA, SUSUMU YANAGISAWA,
          KIYOSHI YAGI, MAHITO CHIBA, SEIKEN TOKURA, NAOAKI KAWAKAMI
     UNIVERSITY OF AARHUS: FRANK JENSEN
     UNIVERSITY OF IOWA: VISVALDAS KAIRYS, HUI LI
     NATIONAL INST. OF STANDARDS AND TECHNOLOGY: WALT STEVENS, DAVID GARMER
     UNIVERSITY OF PISA: BENEDETTA MENNUCCI, JACOPO TOMASI
     UNIVERSITY OF MEMPHIS: HENRY KURTZ, PRAKASHAN KORAMBATH
     UNIVERSITY OF ALBERTA: TOBY ZENG, MARIUSZ KLOBUKOWSKI
     UNIVERSITY OF NEW ENGLAND: MARK SPACKMAN
     MIE UNIVERSITY: HIROAKI UMEDA
     NAT. INST. OF ADVANCED INDUSTRIAL SCIENCE AND TECHNOLOGY: KAZUO KITAURA
     MICHIGAN STATE UNIVERSITY:
          KAROL KOWALSKI, MARTA WLOCH, JEFFREY GOUR, JESSE LUTZ,
          WEI LI, PIOTR PIECUCH
     UNIVERSITY OF SILESIA: MONIKA MUSIAL, STANISLAW KUCHARSKI
     FACULTES UNIVERSITAIRES NOTRE-DAME DE LA PAIX:
          OLIVIER QUINET, BENOIT CHAMPAGNE
     UNIVERSITY OF CALIFORNIA - SANTA BARBARA: BERNARD KIRTMAN
     INSTITUTE FOR MOLECULAR SCIENCE:
          KAZUYA ISHIMURA, MICHIO KATOUDA, AND SHIGERU NAGASE
     UNIVERSITY OF NOTRE DAME: ANNA POMOGAEVA, DAN CHIPMAN
     KYUSHU UNIVERSITY:
          HARUYUKI NAKANO,
          FENG LONG GU, JACEK KORCHOWIEC, MARCIN MAKOWSKI, AND YURIKO AOKI,
          HIROTOSHI MORI AND EISAKU MIYOSHI
     PENNSYLVANIA STATE UNIVERSITY:
          TZVETELIN IORDANOV, CHET SWALINA, JONATHAN SKONE,
          SHARON HAMMES-SCHIFFER
     WASEDA UNIVERSITY:
          MASATO KOBAYASHI, TOMOKO AKAMA, TSUGUKI TOUMA,
          TAKESHI YOSHIKAWA, YASUHIRO IKABATA, JUNJI SEINO,
          YUYA NAKAJIMA, HIROMI NAKAI
     NANJING UNIVERSITY: SHUHUA LI
     UNIVERSITY OF NEBRASKA:
          PEIFENG SU, DEJUN SI, NANDUN THELLAMUREGE, YALI WANG, HUI LI
     UNIVERSITY OF ZURICH: ROBERTO PEVERATI, KIM BALDRIDGE
     N. COPERNICUS UNIVERSITY AND JACKSON STATE UNIVERSITY:
          MARIA BARYSZ
     UNIVERSITY OF COPENHAGEN: Jimmy Kromann, CASPER STEINMANN
     TOKYO INSTITUTE OF TECHNOLOGY: HIROYA NAKATA
     NAGOYA UNIVERSITY: YOSHIO NISHIMOTO, STEPHAN IRLE
     MOSCOW STATE UNIVERSITY: VLADIMIR MIRONOV

 EXECUTION OF GAMESS BEGUN Fri Jun  2 01:36:57 2017

            ECHO OF THE FIRST FEW INPUT CARDS -
 INPUT CARD>!   Y+3(H2)2 cation complex...A test case from Takeshi, May 2009.               
 INPUT CARD>!   this one is NOT run by FMO, but rather a straight calculation.              
 INPUT CARD>!                                                                               
 INPUT CARD>!   Geometry optimization is limited to 5 steps to truncate CPU requirement:    
 INPUT CARD>!        NSERCH:   0  E=     -175.1533095206  R.M.S.=  0.0198748                
 INPUT CARD>!        NSERCH:   1  E=     -175.1658153010  R.M.S.=  0.0112282                
 INPUT CARD>!        NSERCH:   2  E=     -175.1720681044  R.M.S.=  0.0121443                
 INPUT CARD>!        NSERCH:   3  E=     -175.1739936574  R.M.S.=  0.0127722                
 INPUT CARD>!        NSERCH:   4  E=     -175.1770946440  R.M.S.=  0.0047483                
 INPUT CARD>!        NSERCH:   5  E=     -175.1756340136  R.M.S.=  0.0117779                
 INPUT CARD>!                                                                               
 INPUT CARD>!   this test takes 39 seconds on 2.66 GHz Cloverton ( 7 Apr 2015)              
 INPUT CARD>!                                                                               
 INPUT CARD> $CONTRL SCFTYP=RHF ICHARG=+3 RUNTYP=optimize pp=MCP ISPHER=1 $END              
 INPUT CARD> $System MWORDS=5 $End                                                          
 INPUT CARD> $statpt nstep=5 opttol=1d-5 $end                                               
 INPUT CARD>                                                                                
 INPUT CARD>x$fmo    nfrag=3 icharg(1)=3,0,0                                                
 INPUT CARD>         frgnam(1)=frag01,frag02,frag03                                         
 INPUT CARD>         indat(1)=  1, 2, 2, 2,  3, 3, 3                                        
 INPUT CARD>         modgrd=42 RESPAP=0 RESPPC=0 RESDIM=0 $end                              
 INPUT CARD>x$fmoprp nprint=9 $end                                                          
 INPUT CARD>x$fmoxyz                                                                        
 INPUT CARD>Y 39   0.289862  -0.220320   0.110936                                           
 INPUT CARD>O  8  -1.693142   0.540356  -0.944119                                           
 INPUT CARD>H  1  -1.611926   1.142964  -1.696853                                           
 INPUT CARD>H  1  -2.513216   0.011833  -0.974974                                           
 INPUT CARD>O  8  -1.510977  -1.948669   0.387336                                           
 INPUT CARD>H  1  -1.880133  -2.229923   1.231449                                           
 INPUT CARD>H  1  -1.612506  -2.606588  -0.305078                                           
 INPUT CARD> $END                                                                           
 INPUT CARD>                                                                                
 INPUT CARD>the first $DATA is for FMO runs, having only "fake coordinates"                 
 INPUT CARD>x$data                                                                          
 INPUT CARD>cation [Y(H2O)2]3+                                                              
 INPUT CARD>C1                                                                              
 INPUT CARD>h      1                                                                        
 INPUT CARD>      ccd                                                                       
 INPUT CARD>                                                                                
 INPUT CARD>o.1      8                                                                      
 INPUT CARD>      ccd                                                                       
 INPUT CARD>                                                                                
 INPUT CARD>Y.1-1     39                                                                    
 INPUT CARD> MCP READ                                                                       
 INPUT CARD> s    7                                                                         
 INPUT CARD>   1      3191.9500000     0.0026491                                            
 INPUT CARD>   2       399.7420000     0.0149180                                            
 INPUT CARD>   3        29.4797000    -0.0778168                                            
 INPUT CARD>   4         3.9074100     0.2417421                                            
 INPUT CARD>   5         0.6522880    -0.3903585                                            
    5000000 WORDS OF MEMORY AVAILABLE


     RUN TITLE
     ---------
 cation [Y(H2O)2]3+                                                              

 THE POINT GROUP OF THE MOLECULE IS C1      
 THE ORDER OF THE PRINCIPAL AXIS IS     0

     MODEL-POTENTIAL ATOMS
     ---------------------

 ATOM     ATOMIC   CORE-   TYPE   VALENCE-       CONTRACTION
          CHARGE ELECTRONS        SHELLS

 Y          39                    MODEL-POTENTIAL IN $MCP GROUP

 *** WARNING! ATOM   1 SHELL    1 TYPE S HAS NORMALIZATION   1.58920149
 *** WARNING! ATOM   1 SHELL    5 TYPE D HAS NORMALIZATION   2.50185718

 ATOM      ATOMIC                      COORDINATES (BOHR)
           CHARGE         X                   Y                   Z
 Y          39.0     0.5477597543       -0.4163444296        0.2096386422
 O           8.0    -3.1995744383        1.0211247758       -1.7841262098
 H           1.0    -3.0460984525        2.1598887738       -3.2065872114
 H           1.0    -4.7492895880        0.0223611276       -1.8424337052
 O           8.0    -2.8553325038       -3.6824504508        0.7319589052
 H           1.0    -3.5529361905       -4.2139434437        2.3271011779
 H           1.0    -3.0471944936       -4.9257370829       -0.5765138249

          INTERNUCLEAR DISTANCES (ANGS.)
          ------------------------------

                1 Y          2 O          3 H          4 H          5 O     

   1 Y       0.0000000    2.3715130 *  2.9569312 *  3.0150194    2.5112961 *
   2 O       2.3715130 *  0.0000000    0.9676471 *  0.9761198 *  2.8286396 *
   3 H       2.9569312 *  0.9676471 *  0.0000000    1.6164437 *  3.7299101  
   4 H       3.0150194    0.9761198 *  1.6164437 *  0.0000000    2.5891967 *
   5 O       2.5112961 *  2.8286396 *  3.7299101    2.5891967 *  0.0000000  
   6 H       3.1627412    3.5273939    4.4747351    3.2085147    0.9632792 *
   7 H       3.0799913    3.2121849    3.9995222    2.8488889 *  0.9605221 *

                6 H          7 H     

   1 Y       3.1627412    3.0799913  
   2 O       3.5273939    3.2121849  
   3 H       4.4747351    3.9995222  
   4 H       3.2085147    2.8488889 *
   5 O       0.9632792 *  0.9605221 *
   6 H       0.0000000    1.6044987 *
   7 H       1.6044987 *  0.0000000  

  * ... LESS THAN  3.000


     ATOMIC BASIS SET
     ----------------
 THE CONTRACTED PRIMITIVE FUNCTIONS HAVE BEEN UNNORMALIZED
 THE CONTRACTED BASIS FUNCTIONS ARE NOW NORMALIZED TO UNITY

  SHELL TYPE  PRIMITIVE        EXPONENT          CONTRACTION COEFFICIENT(S)

 Y         

      1   S       1          3191.9500000    0.004209953674
      1   S       2           399.7420000    0.023707707868
      1   S       3            29.4797000   -0.123666574716
      1   S       4             3.9074100    0.384176906166
      1   S       5             0.6522880   -0.620358310884
      1   S       6             0.3189210   -0.377717119939
      1   S       7             0.0605090    1.154796919827

      2   S       8             0.0250130    1.000000000000

      3   P       9           325.1830000    0.021497798698
      3   P      10            67.9496000    0.104659693660
      3   P      11             6.0805800   -0.360182078181
      3   P      12             0.7311300    0.782939652570
      3   P      13             0.2557800    0.312477181071

      4   P      14             0.0850520    0.766334312854
      4   P      15             0.0329190    0.284184745181

      5   D      16            36.9778000   -0.082486731644
      5   D      17             8.8107900   -0.243213792737
      5   D      18             0.7391200    0.985861075504

      6   D      19             0.2156700    1.000000000000

      7   D      20             0.0614000    1.000000000000

      8   F      21             1.4920170    0.098159048998
      8   F      22             0.3483670    0.490765244974
      8   F      23             0.1014070    0.652990325952

 O         

      9   S      24         11720.0000000    0.000709645947
      9   S      25          1759.0000000    0.005467272292
      9   S      26           400.8000000    0.027823118610
      9   S      27           113.7000000    0.104747739711
      9   S      28            37.0300000    0.282920846357
      9   S      29            13.2700000    0.448495238698
      9   S      30             5.0250000    0.270816885213
      9   S      31             1.0130000    0.015450291607

     10   S      32         11720.0000000   -0.000314443412
     10   S      33          1759.0000000   -0.002482137681
     10   S      34           400.8000000   -0.012316355382
     10   S      35           113.7000000   -0.050538917344
     10   S      36            37.0300000   -0.139384903316
     10   S      37            13.2700000   -0.325077494818
     10   S      38             5.0250000   -0.229848307588
     10   S      39             1.0130000    1.095379346788

     11   S      40             0.3023000    1.000000000000

     12   P      41            17.7000000    0.062679166282
     12   P      42             3.8540000    0.333536565879
     12   P      43             1.0460000    0.741239641640

     13   P      44             0.2753000    1.000000000000

     14   D      45             1.1850000    1.000000000000

 H         

     15   S      46            13.0100000    0.033498726390
     15   S      47             1.9620000    0.234800801174
     15   S      48             0.4446000    0.813682957883

     16   S      49             0.1220000    1.000000000000

     17   P      50             0.7270000    1.000000000000

 H         

     18   S      51            13.0100000    0.033498726390
     18   S      52             1.9620000    0.234800801174
     18   S      53             0.4446000    0.813682957883

     19   S      54             0.1220000    1.000000000000

     20   P      55             0.7270000    1.000000000000

 O         

     21   S      56         11720.0000000    0.000709645947
     21   S      57          1759.0000000    0.005467272292
     21   S      58           400.8000000    0.027823118610
     21   S      59           113.7000000    0.104747739711
     21   S      60            37.0300000    0.282920846357
     21   S      61            13.2700000    0.448495238698
     21   S      62             5.0250000    0.270816885213
     21   S      63             1.0130000    0.015450291607

     22   S      64         11720.0000000   -0.000314443412
     22   S      65          1759.0000000   -0.002482137681
     22   S      66           400.8000000   -0.012316355382
     22   S      67           113.7000000   -0.050538917344
     22   S      68            37.0300000   -0.139384903316
     22   S      69            13.2700000   -0.325077494818
     22   S      70             5.0250000   -0.229848307588
     22   S      71             1.0130000    1.095379346788

     23   S      72             0.3023000    1.000000000000

     24   P      73            17.7000000    0.062679166282
     24   P      74             3.8540000    0.333536565879
     24   P      75             1.0460000    0.741239641640

     25   P      76             0.2753000    1.000000000000

     26   D      77             1.1850000    1.000000000000

 H         

     27   S      78            13.0100000    0.033498726390
     27   S      79             1.9620000    0.234800801174
     27   S      80             0.4446000    0.813682957883

     28   S      81             0.1220000    1.000000000000

     29   P      82             0.7270000    1.000000000000

 H         

     30   S      83            13.0100000    0.033498726390
     30   S      84             1.9620000    0.234800801174
     30   S      85             0.4446000    0.813682957883

     31   S      86             0.1220000    1.000000000000

     32   P      87             0.7270000    1.000000000000

 TOTAL NUMBER OF BASIS SET SHELLS             =   32
 NUMBER OF CARTESIAN GAUSSIAN BASIS FUNCTIONS =   86
 NOTE: THIS RUN WILL RESTRICT THE MO VARIATION SPACE TO SPHERICAL HARMONICS.
 THE NUMBER OF ORBITALS KEPT IN THE VARIATIONAL SPACE WILL BE PRINTED LATER.
 NUMBER OF ELECTRONS                          =   56
 CHARGE OF MOLECULE                           =    3
 SPIN MULTIPLICITY                            =    1
 NUMBER OF OCCUPIED ORBITALS (ALPHA)          =   28
 NUMBER OF OCCUPIED ORBITALS (BETA )          =   28
 TOTAL NUMBER OF ATOMS                        =    7
 THE NUCLEAR REPULSION ENERGY IS      198.4478597004
 NOTE THIS RUN IS USING CORE POTENTIALS, AND THE NUMBER OF ELECTRONS,
 OCCUPIED ORBITALS, AND NUCLEAR REPULSION ENERGY WILL BE ADJUSTED BELOW
 AFTER REMOVAL OF THE CORE CHARGES.

     $CONTRL OPTIONS
     ---------------
 SCFTYP=RHF          RUNTYP=OPTIMIZE     EXETYP=RUN     
 MPLEVL=       0     CITYP =NONE         CCTYP =NONE         VBTYP =NONE    
 DFTTYP=NONE         TDDFT =NONE    
 MULT  =       1     ICHARG=       3     NZVAR =       0     COORD =UNIQUE  
 PP    =MCP          RELWFN=NONE         LOCAL =NONE         NUMGRD=       F
 ISPHER=       1     NOSYM =       0     MAXIT =      30     UNITS =ANGS    
 PLTORB=       F     MOLPLT=       F     AIMPAC=       F     FRIEND=        
 NPRINT=       7     IREST =       0     GEOM  =INPUT   
 NORMF =       0     NORMP =       0     ITOL  =      20     ICUT  =       9
 INTTYP=BEST         GRDTYP=BEST         QMTTOL= 1.0E-06

     $SYSTEM OPTIONS
     ---------------
  REPLICATED MEMORY=     5000000 WORDS (ON EVERY NODE).
 DISTRIBUTED MEMDDI=           0 MILLION WORDS IN AGGREGATE,
 MEMDDI DISTRIBUTED OVER   1 PROCESSORS IS           0 WORDS/PROCESSOR.
 TOTAL MEMORY REQUESTED ON EACH PROCESSOR=     5000000 WORDS.
 TIMLIM=      525600.00 MINUTES, OR     365.0 DAYS.
 PARALL= F  BALTYP=  DLB     KDIAG=    0  COREFL= F
 MXSEQ2=     300 MXSEQ3=     150  mem10=         0

          ----------------
          MODEL-POTENTIALS
          ----------------
 Y               
 THE MCP PLACED ON ATOM    1 REMOVES ZCORE= 30

 THE MCP RUN REMOVES   30 CORE ELECTRONS, AND THE SAME NUMBER OF PROTONS.
 NUMBER OF ELECTRONS KEPT IN THE CALCULATION IS =   26
 NUMBER OF OCCUPIED ORBITALS (ALPHA) KEPT IS    =   13
 NUMBER OF OCCUPIED ORBITALS (BETA ) KEPT IS    =   13
 THE ADJUSTED NUCLEAR REPULSION ENERGY=       73.5138928332

     MODEL-POTENTIAL PARAMETERS
     --------------------------

  NO.    N                        ALPHA           A

 Y         
   1     0                      182.543000    1.452766
   2     0                        9.036120    0.822289
   3     0                        1.651661    0.256470
   1     1                     3825.005900  151.577530
   2     1                       44.221136   11.729729
   3     1                        1.338685    0.375445

     CORE-SHELL BASIS SET FOR MODEL-POTENTIAL ATOMS
     ----------------------------------------------

 SHELL TYPE PRIM    EXPONENT          CONTRACTION COEFFICIENTS

 Y         

   1   S    PARAMETER B =      1260.670000
   1   S    1     33058.640000   32.175953 (  0.018414) 
   1   S    2      3775.311200   44.206443 (  0.128784) 
   1   S    3       780.463580   47.181812 (  0.448332) 
   1   S    4       209.107720   20.776752 (  0.530139) 
   1   S    5       342.407760   -0.244208 ( -0.004305) 
   1   S    6        37.643325    0.299828 (  0.027682) 
   1   S    7        15.808645    0.106974 (  0.018932) 
   1   S    8        29.469536    0.052021 (  0.005771) 
   1   S    9         4.839497   -0.043677 ( -0.018782) 
   1   S   10         2.116704   -0.009630 ( -0.007700) 
   1   S   11         3.613694    0.000000 (  0.000000) 
   1   S   12         0.684853    0.000000 (  0.000000) 
   1   S   13         0.282092    0.000000 (  0.000000) 

   2   S    PARAMETER B =       177.759400
   2   S   14     33058.640000   11.530776 (  0.006599) 
   2   S   15      3775.311200   15.842155 (  0.046152) 
   2   S   16       780.463580   16.908415 (  0.160668) 
   2   S   17       209.107720    7.445705 (  0.189985) 
   2   S   18       342.407760    5.852544 (  0.103164) 
   2   S   19        37.643325   -7.185541 ( -0.663412) 
   2   S   20        15.808645   -2.563687 ( -0.453716) 
   2   S   21        29.469536    0.037581 (  0.004169) 
   2   S   22         4.839497   -0.031554 ( -0.013569) 
   2   S   23         2.116704   -0.006957 ( -0.005563) 
   2   S   24         3.613694   -0.001932 ( -0.001034) 
   2   S   25         0.684853    0.001680 (  0.003131) 
   2   S   26         0.282092    0.000372 (  0.001347) 

   3   S    PARAMETER B =        30.472400
   3   S   27     33058.640000    4.819473 (  0.002758) 
   3   S   28      3775.311200    6.621542 (  0.019290) 
   3   S   29       780.463580    7.067206 (  0.067154) 
   3   S   30       209.107720    3.112080 (  0.079408) 
   3   S   31       342.407760    2.863934 (  0.050483) 
   3   S   32        37.643325   -3.516234 ( -0.324640) 
   3   S   33        15.808645   -1.254537 ( -0.222025) 
   3   S   34        29.469536   -2.465723 ( -0.273529) 
   3   S   35         4.839497    2.070262 (  0.890256) 
   3   S   36         2.116704    0.456471 (  0.364971) 
   3   S   37         3.613694   -0.002229 ( -0.001193) 
   3   S   38         0.684853    0.001938 (  0.003612) 
   3   S   39         0.282092    0.000429 (  0.001554) 

   4   S    PARAMETER B =         4.308378
   4   S   40     33058.640000    1.774234 (  0.001015) 
   4   S   41      3775.311200    2.437532 (  0.007101) 
   4   S   42       780.463580    2.601590 (  0.024721) 
   4   S   43       209.107720    1.145623 (  0.029232) 
   4   S   44       342.407760    1.055321 (  0.018602) 
   4   S   45        37.643325   -1.295683 ( -0.119625) 
   4   S   46        15.808645   -0.462279 ( -0.081813) 
   4   S   47        29.469536   -1.180825 ( -0.130992) 
   4   S   48         4.839497    0.991440 (  0.426340) 
   4   S   49         2.116704    0.218602 (  0.174783) 
   4   S   50         3.613694    0.554400 (  0.296790) 
   4   S   51         0.684853   -0.482088 ( -0.898499) 
   4   S   52         0.282092   -0.106630 ( -0.386525) 

   5   P    PARAMETER B =       157.898320
   5   P   53      1061.759200  245.312179 (  0.028395) 
   5   P   54       227.799790  239.686129 (  0.190003) 
   5   P   55        69.231419  145.754716 (  0.512039) 
   5   P   56        23.978064   32.042632 (  0.423663) 
   5   P   57        11.051461    0.407726 (  0.014196) 
   5   P   58         4.423992    0.191802 (  0.020972) 
   5   P   59         1.880484    0.018297 (  0.005829) 
   5   P   60         1.072135   -0.007632 ( -0.004908) 
   5   P   61         0.441815   -0.002939 ( -0.005724) 
   5   P   62         0.173043   -0.000223 ( -0.001404) 

   6   P    PARAMETER B =        23.815760
   6   P   63      1061.759200  114.295516 (  0.013230) 
   6   P   64       227.799790  111.674635 (  0.088526) 
   6   P   65        69.231419   67.910079 (  0.238570) 
   6   P   66        23.978064   14.929316 (  0.197393) 
   6   P   67        11.051461  -11.846821 ( -0.412465) 
   6   P   68         4.423992   -5.572962 ( -0.609366) 
   6   P   69         1.880484   -0.531639 ( -0.169371) 
   6   P   70         1.072135   -0.002192 ( -0.001409) 
   6   P   71         0.441815   -0.000844 ( -0.001644) 
   6   P   72         0.173043   -0.000064 ( -0.000403) 

   7   D    PARAMETER B =        12.817480
   7   D   73       138.996700  239.450204 (  0.025855) 
   7   D   74        38.242597  153.009814 (  0.158071) 
   7   D   75        13.384030   62.533084 (  0.405670) 
   7   D   76         4.983093   13.208370 (  0.482855) 
   7   D   77         1.805066    0.898089 (  0.194110) 

          ----------------
          PROPERTIES INPUT
          ----------------

     MOMENTS            FIELD           POTENTIAL          DENSITY
 IEMOM =       1   IEFLD =       0   IEPOT =       0   IEDEN =       0
 WHERE =COMASS     WHERE =NUCLEI     WHERE =NUCLEI     WHERE =NUCLEI  
 OUTPUT=BOTH       OUTPUT=BOTH       OUTPUT=BOTH       OUTPUT=BOTH    
 IEMINT=       0   IEFINT=       0                     IEDINT=       0
                                                       MORB  =       0
          EXTRAPOLATION IN EFFECT
          SOSCF IN EFFECT
 ORBITAL PRINTING OPTION: NPREO=     1    86     2     1

     -------------------------------
     INTEGRAL TRANSFORMATION OPTIONS
     -------------------------------
     NWORD  =            0
     CUTOFF = 1.0E-09     MPTRAN =       0
     DIRTRF =       F     AOINTS =DUP     

          ----------------------
          INTEGRAL INPUT OPTIONS
          ----------------------
 NOPK  =       1 NORDER=       0 SCHWRZ=       T

     ------------------------------------------
     THE POINT GROUP IS C1 , NAXIS= 0, ORDER= 1
     ------------------------------------------

 -- VARIATIONAL SPACE WILL BE RESTRICTED TO PURE SPHERICAL HARMONICS ONLY --
 AFTER EXCLUDING CONTAMINANT COMBINATIONS FROM THE CARTESIAN GAUSSIAN BASIS
 SET, THE NUMBER OF SPHERICAL HARMONICS KEPT IN THE VARIATION SPACE IS   78

     DIMENSIONS OF THE SYMMETRY SUBSPACES ARE
 A   =   78

 ..... DONE SETTING UP THE RUN .....
 STEP CPU TIME =     0.02 TOTAL CPU TIME =        0.0 (    0.0 MIN)
 TOTAL WALL CLOCK TIME=        0.0 SECONDS, CPU UTILIZATION IS  66.67%


          -----------------------------
          STATIONARY POINT LOCATION RUN
          -----------------------------

 OBTAINING INITIAL HESSIAN, HESS=GUESS   
 CARTESIAN COORDINATE OPTIMIZATION USING BADGER'S RULE FORCE CONSTANT GUESS

          PARAMETERS CONTROLLING GEOMETRY SEARCH ARE
          METHOD =QA                  UPHESS =BFGS    
          NNEG   =         0          NFRZ   =         0
          NSTEP  =         5          IFOLOW =         1
          HESS   =GUESS               RESTAR =         F
          IHREP  =         0          HSSEND =         F
          NPRT   =         0          NPUN   =         0
          OPTTOL = 1.000E-05          RMIN   = 1.500E-03
          RMAX   = 1.000E-01          RLIM   = 7.000E-02
          DXMAX  = 3.000E-01          PURIFY =         F
          MOVIE  =         F          TRUPD  =         T
          TRMAX  = 5.000E-01          TRMIN  = 5.000E-02
          ITBMAT =         5          STPT   =         F
          STSTEP = 1.000E-02          PROJCT=          T

 BEGINNING GEOMETRY SEARCH POINT NSERCH=   0 ...

 COORDINATES OF ALL ATOMS ARE (ANGS)
   ATOM   CHARGE       X              Y              Z
 ------------------------------------------------------------
 Y          39.0   0.2898620000  -0.2203200000   0.1109360000
 O           8.0  -1.6931420000   0.5403560000  -0.9441190000
 H           1.0  -1.6119260000   1.1429640000  -1.6968530000
 H           1.0  -2.5132160000   0.0118330000  -0.9749740000
 O           8.0  -1.5109770000  -1.9486690000   0.3873360000
 H           1.0  -1.8801330000  -2.2299230000   1.2314490000
 H           1.0  -1.6125060000  -2.6065880000  -0.3050780000

          ********************
          1 ELECTRON INTEGRALS
          ********************
 TIME TO DO ORDINARY INTEGRALS=      0.00
 TIME TO DO      MCP INTEGRALS=      0.01
 ...... END OF ONE-ELECTRON INTEGRALS ......
 STEP CPU TIME =     0.01 TOTAL CPU TIME =        0.0 (    0.0 MIN)
 TOTAL WALL CLOCK TIME=        0.0 SECONDS, CPU UTILIZATION IS  75.00%

          -------------
          GUESS OPTIONS
          -------------
          GUESS =HUCKEL            NORB  =       0          NORDER=       0
          MIX   =       F          PRTMO =       F          PUNMO =       F
          TOLZ  = 1.0E-08          TOLE  = 1.0E-05
          SYMDEN=       F          PURIFY=       F

 INITIAL GUESS ORBITALS GENERATED BY HUCKEL   ROUTINE.
 HUCKEL GUESS REQUIRES     66127 WORDS.

 STATISTICS FOR GENERATION OF SYMMETRY ORBITAL -Q- MATRIX
 NUMBER OF CARTESIAN ATOMIC ORBITALS=         86
 NUMBER OF SPHERICAL CONTAMINANTS DROPPED=     8
 NUMBER OF LINEARLY DEPENDENT MOS DROPPED=     0
 TOTAL NUMBER OF MOS IN VARIATION SPACE=      78

 SYMMETRIES FOR INITIAL GUESS ORBITALS FOLLOW.   BOTH SET(S).
    13 ORBITALS ARE OCCUPIED (    5 CORE ORBITALS).
     6=A        7=A        8=A        9=A       10=A       11=A       12=A   
    13=A       14=A       15=A       16=A       17=A       18=A       19=A   
    20=A       21=A       22=A       23=A   
 ...... END OF INITIAL ORBITAL SELECTION ......
 STEP CPU TIME =     0.01 TOTAL CPU TIME =        0.0 (    0.0 MIN)
 TOTAL WALL CLOCK TIME=        0.1 SECONDS, CPU UTILIZATION IS  80.00%

                    ----------------------
                    AO INTEGRAL TECHNOLOGY
                    ----------------------
     S,P,L SHELL ROTATED AXIS INTEGRALS, REPROGRAMMED BY
        KAZUYA ISHIMURA (IMS) AND JOSE SIERRA (SYNSTAR).
     S,P,D,L SHELL ROTATED AXIS INTEGRALS PROGRAMMED BY
        KAZUYA ISHIMURA (INSTITUTE FOR MOLECULAR SCIENCE).
     S,P,D,F,G SHELL TO TOTAL QUARTET ANGULAR MOMENTUM SUM 5,
        ERIC PROGRAM BY GRAHAM FLETCHER (ELORET AND NASA ADVANCED
        SUPERCOMPUTING DIVISION, AMES RESEARCH CENTER).
     S,P,D,F,G,L SHELL GENERAL RYS QUADRATURE PROGRAMMED BY
        MICHEL DUPUIS (PACIFIC NORTHWEST NATIONAL LABORATORY).

          --------------------
          2 ELECTRON INTEGRALS
          --------------------

 THE -PK- OPTION IS OFF, THE INTEGRALS ARE NOT IN SUPERMATRIX FORM.
 STORING   15000 INTEGRALS/RECORD ON DISK, USING 12 BYTES/INTEGRAL.
 TWO ELECTRON INTEGRAL EVALUATION REQUIRES   99628 WORDS OF MEMORY.
 SCHWARZ INEQUALITY OVERHEAD:      3741 INTEGRALS, T=        0.01
 II,JST,KST,LST =  1  1  1  1 NREC =         1 INTLOC =    1
 II,JST,KST,LST =  2  1  1  1 NREC =         1 INTLOC =    2
 II,JST,KST,LST =  3  1  1  1 NREC =         1 INTLOC =    7
 II,JST,KST,LST =  4  1  1  1 NREC =         1 INTLOC =   34
 II,JST,KST,LST =  5  1  1  1 NREC =         1 INTLOC =  139
 II,JST,KST,LST =  6  1  1  1 NREC =         1 INTLOC =  880
 II,JST,KST,LST =  7  1  1  1 NREC =         1 INTLOC = 3364
 II,JST,KST,LST =  8  1  1  1 NREC =         1 INTLOC = 9571
 II,JST,KST,LST =  9  1  1  1 NREC =         2 INTLOC =14744
 II,JST,KST,LST = 10  1  1  1 NREC =         4 INTLOC =10069
 II,JST,KST,LST = 11  1  1  1 NREC =         6 INTLOC = 7524
 II,JST,KST,LST = 12  1  1  1 NREC =         8 INTLOC = 7203
 II,JST,KST,LST = 13  1  1  1 NREC =        15 INTLOC = 5599
 II,JST,KST,LST = 14  1  1  1 NREC =        23 INTLOC =12913
 II,JST,KST,LST = 15  1  1  1 NREC =        46 INTLOC = 6316
 II,JST,KST,LST = 16  1  1  1 NREC =        51 INTLOC = 1646
 II,JST,KST,LST = 17  1  1  1 NREC =        56 INTLOC = 1110
 II,JST,KST,LST = 18  1  1  1 NREC =        72 INTLOC =10798
 II,JST,KST,LST = 19  1  1  1 NREC =        78 INTLOC =13415
 II,JST,KST,LST = 20  1  1  1 NREC =        85 INTLOC = 6000
 II,JST,KST,LST = 21  1  1  1 NREC =       106 INTLOC =14707
 II,JST,KST,LST = 22  1  1  1 NREC =       112 INTLOC =14704
 II,JST,KST,LST = 23  1  1  1 NREC =       120 INTLOC = 5642
 II,JST,KST,LST = 24  1  1  1 NREC =       129 INTLOC =  112
 II,JST,KST,LST = 25  1  1  1 NREC =       154 INTLOC = 3740
 II,JST,KST,LST = 26  1  1  1 NREC =       186 INTLOC = 6484
 II,JST,KST,LST = 27  1  1  1 NREC =       255 INTLOC = 9719
 II,JST,KST,LST = 28  1  1  1 NREC =       268 INTLOC =13623
 II,JST,KST,LST = 29  1  1  1 NREC =       284 INTLOC = 4193
 II,JST,KST,LST = 30  1  1  1 NREC =       324 INTLOC =12342
 II,JST,KST,LST = 31  1  1  1 NREC =       341 INTLOC = 9743
 II,JST,KST,LST = 32  1  1  1 NREC =       360 INTLOC =  645
 SCHWARZ INEQUALITY TEST SKIPPED        7511 INTEGRAL BLOCKS.
 TOTAL NUMBER OF NONZERO TWO-ELECTRON INTEGRALS =             6158169
        411 INTEGRAL RECORDS WERE STORED ON DISK FILE  8.
  ...... END OF TWO-ELECTRON INTEGRALS .....
 STEP CPU TIME =     1.03 TOTAL CPU TIME =        1.1 (    0.0 MIN)
 TOTAL WALL CLOCK TIME=        1.1 SECONDS, CPU UTILIZATION IS  98.17%

          --------------------------
                 RHF SCF CALCULATION
          --------------------------

     NUCLEAR ENERGY =        73.5138928332
     MAXIT =   30     NPUNCH=    2
     EXTRAP=T  DAMP=F  SHIFT=F  RSTRCT=F  DIIS=F  DEM=F  SOSCF=T
     DENSITY MATRIX CONV=  1.00E-05
     SOSCF WILL OPTIMIZE     845 ORBITAL ROTATIONS, SOGTOL=   0.250
     MEMORY REQUIRED FOR RHF ITERS=     86356 WORDS.

 ITER EX DEM     TOTAL ENERGY        E CHANGE  DENSITY CHANGE     ORB. GRAD
   1  0  0     -174.2515081773  -174.2515081773   0.292186453   0.000000000
          ---------------START SECOND ORDER SCF---------------
   2  1  0     -175.0330014430    -0.7814932657   0.212044892   0.099336530
   3  2  0     -175.1180443078    -0.0850428649   0.059723341   0.041658600
   4  3  0     -175.1519626107    -0.0339183028   0.009173957   0.004630662
   5  4  0     -175.1531106996    -0.0011480889   0.006473700   0.002258202
   6  5  0     -175.1532929909    -0.0001822914   0.000855558   0.000463587
   7  6  0     -175.1533063044    -0.0000133134   0.000461825   0.000214867
   8  7  0     -175.1533091890    -0.0000028847   0.000254609   0.000094584
   9  8  0     -175.1533094588    -0.0000002698   0.000079220   0.000041072
  10  9  0     -175.1533095156    -0.0000000568   0.000020945   0.000008054
  11 10  0     -175.1533095202    -0.0000000046   0.000003767   0.000003348
  12 11  0     -175.1533095206    -0.0000000004   0.000002940   0.000001560

          -----------------
          DENSITY CONVERGED
          -----------------
     TIME TO FORM FOCK OPERATORS=       0.9 SECONDS (       0.1 SEC/ITER)
     TIME TO SOLVE SCF EQUATIONS=       0.0 SECONDS (       0.0 SEC/ITER)

 FINAL RHF ENERGY IS     -175.1533095206 AFTER  12 ITERATIONS

          ------------
          EIGENVECTORS
          ------------

                      1          2          3          4          5
                  -21.1856   -21.1675    -2.1305    -2.1294    -2.1280
                     A          A          A          A          A   
    1  Y  1  S    0.000366   0.000290  -0.001302   0.003103  -0.001482
    2  Y  1  S    0.000259   0.000183   0.006526  -0.009591   0.018534
    3  Y  1  X    0.000068   0.000078   0.019058  -0.640720   0.767562
    4  Y  1  Y   -0.000013   0.000072   0.112843   0.767850   0.643222
    5  Y  1  Z    0.000037  -0.000011   1.001948  -0.065416  -0.091499
    6  Y  1  X   -0.000757  -0.000513  -0.005367   0.023988  -0.037683
    7  Y  1  Y    0.000259  -0.000532  -0.001352  -0.025800  -0.028991
    8  Y  1  Z   -0.000427   0.000099  -0.032550   0.005884   0.002567
    9  Y  1 XX   -0.000044  -0.000015   0.000280  -0.005786   0.005444
   10  Y  1 YY    0.000036  -0.000026  -0.001198   0.004115  -0.000960
   11  Y  1 ZZ    0.000009   0.000041   0.000918   0.001671  -0.004485
   12  Y  1 XY    0.000041  -0.000084  -0.000178   0.005086   0.006098
   13  Y  1 XZ   -0.000058   0.000017   0.006430  -0.003039   0.000746
   14  Y  1 YZ    0.000021   0.000010   0.000766   0.001169  -0.000540
   15  Y  1 XX    0.000207   0.000048  -0.000745  -0.002522   0.002369
   16  Y  1 YY   -0.000155   0.000088  -0.000291   0.001300  -0.001158
   17  Y  1 ZZ   -0.000051  -0.000136   0.001036   0.001222  -0.001210
   18  Y  1 XY   -0.000198   0.000282   0.001351   0.001734   0.002136
   19  Y  1 XZ    0.000268  -0.000062   0.003066   0.002024  -0.000845
   20  Y  1 YZ   -0.000103  -0.000035   0.001314  -0.001199   0.000514
   21  Y  1 XX    0.000299   0.000167   0.002373  -0.005307   0.009784
   22  Y  1 YY   -0.000189   0.000075  -0.001477   0.004521  -0.000407
   23  Y  1 ZZ   -0.000110  -0.000242  -0.000896   0.000787  -0.009377
   24  Y  1 XY   -0.000183   0.000388  -0.002579   0.005660   0.013605
   25  Y  1 XZ    0.000350  -0.000051   0.006684  -0.006965   0.001594
   26  Y  1 YZ   -0.000085  -0.000046  -0.000832   0.003777  -0.000588
   27  Y  1 XXX  -0.000100   0.000034   0.000617   0.002945  -0.002922
   28  Y  1 YYY  -0.000155   0.000081  -0.001429   0.000638   0.002752
   29  Y  1 ZZZ   0.000209  -0.000071   0.003381  -0.002277   0.000434
   30  Y  1 XXY   0.000206  -0.000286  -0.000160  -0.001562  -0.006427
   31  Y  1 XXZ  -0.000354   0.000027  -0.003858   0.002232  -0.002157
   32  Y  1 YYX   0.000152  -0.000245   0.000715  -0.002527  -0.001442
   33  Y  1 YYZ   0.000074   0.000068  -0.000678   0.000822   0.001574
   34  Y  1 ZZX  -0.000018   0.000200  -0.001542  -0.001424   0.005363
   35  Y  1 ZZY   0.000002   0.000177   0.002078   0.000706   0.002736
   36  Y  1 XYZ   0.000176   0.000066  -0.000412  -0.002521  -0.000018
   37  O  2  S    1.001051   0.000127   0.000963  -0.001622   0.000757
   38  O  2  S    0.001527  -0.000002  -0.026341   0.049410  -0.024790
   39  O  2  S   -0.003587  -0.000052  -0.026717   0.050405  -0.023821
   40  O  2  X   -0.000336  -0.000009  -0.007383   0.011965  -0.004853
   41  O  2  Y   -0.000105   0.000005   0.004245  -0.004075   0.004559
   42  O  2  Z   -0.000748  -0.000004   0.000686   0.005009  -0.002329
   43  O  2  X   -0.000392   0.000093  -0.006305   0.007450  -0.003482
   44  O  2  Y    0.000270   0.000045   0.005250  -0.001873   0.005295
   45  O  2  Z   -0.000089   0.000022  -0.000673   0.007880  -0.003298
   46  O  2 XX   -0.000040   0.000006  -0.000645   0.000848  -0.000199
   47  O  2 YY    0.000025  -0.000007   0.000160  -0.000523   0.000053
   48  O  2 ZZ    0.000015   0.000000   0.000486  -0.000325   0.000146
   49  O  2 XY    0.000128  -0.000006   0.000394  -0.000234   0.000393
   50  O  2 XZ   -0.000044  -0.000001  -0.000203   0.000839  -0.000361
   51  O  2 YZ   -0.000090   0.000010   0.000053  -0.000328   0.000317
   52  H  3  S   -0.000106   0.000001  -0.006710   0.011966  -0.006894
   53  H  3  S   -0.000053   0.000086  -0.010671   0.012543   0.003720
   54  H  3  X    0.000087  -0.000016  -0.000757   0.001196   0.000069
   55  H  3  Y    0.000355  -0.000018   0.001782  -0.002808   0.000750
   56  H  3  Z   -0.000469   0.000006  -0.002171   0.003172  -0.001132
   57  H  4  S   -0.000058   0.000036  -0.005638   0.010208  -0.004424
   58  H  4  S   -0.000033  -0.000068  -0.003599   0.007518  -0.016341
   59  H  4  X   -0.000423   0.000011  -0.001519   0.003098  -0.002761
   60  H  4  Y   -0.000322   0.000034  -0.000549   0.000808  -0.000352
   61  H  4  Z   -0.000012  -0.000014  -0.000102   0.000275  -0.000679
   62  O  5  S   -0.000123   1.001029  -0.000087   0.000143   0.002024
   63  O  5  S    0.000002   0.001497   0.000346  -0.002641  -0.037827
   64  O  5  S   -0.000033  -0.003316   0.001242  -0.002788  -0.043287
   65  O  5  X   -0.000025  -0.000136   0.000329  -0.002207  -0.009156
   66  O  5  Y   -0.000006  -0.000837   0.000273   0.001026  -0.006457
   67  O  5  Z   -0.000006   0.000137   0.001438  -0.000240   0.000966
   68  O  5  X    0.000123  -0.000366   0.001150  -0.004699  -0.009016
   69  O  5  Y   -0.000022  -0.000187  -0.000668   0.001873  -0.013157
   70  O  5  Z    0.000022   0.000031   0.001221  -0.001336   0.001824
   71  O  5 XX    0.000012  -0.000128   0.000021  -0.000339  -0.000291
   72  O  5 YY   -0.000010  -0.000026   0.000038   0.000262  -0.000141
   73  O  5 ZZ   -0.000002   0.000153  -0.000059   0.000077   0.000432
   74  O  5 XY    0.000002  -0.000007   0.000034  -0.000051  -0.000779
   75  O  5 XZ    0.000005  -0.000055   0.000190  -0.000001   0.000142
   76  O  5 YZ    0.000011   0.000057   0.000269  -0.000002   0.000174
   77  H  6  S    0.000033  -0.000173  -0.000572  -0.000668  -0.007995
   78  H  6  S    0.000022   0.000041   0.006884   0.000022  -0.014360
   79  H  6  X   -0.000012  -0.000201   0.000483   0.000102  -0.001858
   80  H  6  Y    0.000001  -0.000163   0.000553  -0.000234  -0.001133
   81  H  6  Z   -0.000019   0.000548  -0.000459   0.000115   0.002624
   82  H  7  S    0.000034  -0.000163   0.000398  -0.000618  -0.009438
   83  H  7  S   -0.000093   0.000044  -0.007252  -0.003620  -0.015922
   84  H  7  X   -0.000018  -0.000029  -0.000428  -0.000196  -0.001346
   85  H  7  Y   -0.000018  -0.000414  -0.000735  -0.000598  -0.002786
   86  H  7  Z    0.000009  -0.000460  -0.000399  -0.000211  -0.002221

                      6          7          8          9         10
                   -1.9490    -1.9363    -1.3277    -1.3150    -1.2179
                     A          A          A          A          A   
    1  Y  1  S    0.035446   0.017537  -0.002981  -0.005550   0.146489
    2  Y  1  S   -0.012907  -0.004662  -0.001772   0.000294  -0.017800
    3  Y  1  X    0.152996   0.055984  -0.013304   0.000088   0.125316
    4  Y  1  Y   -0.039049   0.084873  -0.021511  -0.003242  -0.022884
    5  Y  1  Z    0.074585  -0.024140   0.009137  -0.018225   0.046455
    6  Y  1  X   -0.022277  -0.010041   0.016104  -0.001196  -0.095317
    7  Y  1  Y    0.003880  -0.013936   0.024730   0.003329   0.012877
    8  Y  1  Z   -0.012452   0.003509  -0.009579   0.023520  -0.032670
    9  Y  1 XX    0.006911   0.001411  -0.008362   0.002410   0.044520
   10  Y  1 YY   -0.003877   0.002198   0.003074  -0.003391  -0.020178
   11  Y  1 ZZ   -0.003035  -0.003609   0.005288   0.000981  -0.024342
   12  Y  1 XY   -0.004072   0.007907  -0.007558  -0.000511  -0.020982
   13  Y  1 XZ    0.007143  -0.002309   0.001582  -0.006307   0.039962
   14  Y  1 YZ   -0.002689  -0.000568  -0.005981  -0.003373  -0.019353
   15  Y  1 XX    0.006685   0.000554  -0.016976   0.005277   0.052616
   16  Y  1 YY   -0.004300   0.003328   0.006419  -0.007637  -0.022823
   17  Y  1 ZZ   -0.002385  -0.003883   0.010557   0.002360  -0.029793
   18  Y  1 XY   -0.002775   0.007752  -0.013772  -0.001545  -0.026462
   19  Y  1 XZ    0.008660  -0.002378   0.002945  -0.012351   0.046192
   20  Y  1 YZ   -0.003587  -0.001008  -0.013206  -0.007497  -0.023604
   21  Y  1 XX    0.004162   0.000719  -0.014825   0.004999   0.025128
   22  Y  1 YY   -0.002926   0.003017   0.004139  -0.006853  -0.009693
   23  Y  1 ZZ   -0.001235  -0.003737   0.010686   0.001854  -0.015435
   24  Y  1 XY   -0.002445   0.005437  -0.014617   0.000012  -0.003690
   25  Y  1 XZ    0.007066  -0.001157   0.001428  -0.014678   0.018782
   26  Y  1 YZ   -0.001794  -0.001569  -0.011687  -0.009441  -0.010816
   27  Y  1 XXX   0.000205   0.001298   0.014533  -0.005449  -0.006029
   28  Y  1 YYY  -0.002738  -0.000717  -0.006129   0.006296  -0.010851
   29  Y  1 ZZZ   0.003129  -0.001292  -0.001741  -0.009955   0.014310
   30  Y  1 XXY   0.002502  -0.001639   0.005527  -0.001413   0.010496
   31  Y  1 XXZ  -0.006599   0.000357   0.006043   0.006469  -0.022253
   32  Y  1 YYX   0.001540  -0.004329  -0.007251   0.008138   0.000418
   33  Y  1 YYZ   0.002401   0.001377  -0.003708   0.006887   0.003054
   34  Y  1 ZZX  -0.001815   0.002588  -0.012247  -0.000828   0.007670
   35  Y  1 ZZY   0.001171   0.002600   0.002696  -0.007034   0.004062
   36  Y  1 XYZ   0.003411   0.001481   0.013054   0.010032   0.019791
   37  O  2  S   -0.007343   0.001602  -0.000694   0.000019  -0.006241
   38  O  2  S    0.444167  -0.074823  -0.005636   0.003380   0.058399
   39  O  2  S    0.397379  -0.070295  -0.007731   0.005844   0.198946
   40  O  2  X   -0.028780   0.004445   0.276075  -0.066776   0.395476
   41  O  2  Y   -0.000657  -0.001905   0.355650  -0.066382  -0.073216
   42  O  2  Z   -0.043173   0.008359  -0.224815   0.050796   0.334127
   43  O  2  X    0.029697  -0.007343   0.135983  -0.034004   0.258410
   44  O  2  Y   -0.007876   0.001726   0.172637  -0.032630  -0.049500
   45  O  2  Z    0.014675  -0.004096  -0.108298   0.025361   0.203393
   46  O  2 XX    0.001706  -0.000437  -0.008269   0.001894   0.002824
   47  O  2 YY   -0.000846   0.000296  -0.001941   0.000136   0.001419
   48  O  2 ZZ   -0.000859   0.000140   0.010210  -0.002030  -0.004244
   49  O  2 XY    0.002225  -0.000396  -0.006411   0.001620  -0.004868
   50  O  2 XZ    0.001082  -0.000130  -0.003856   0.000899  -0.002235
   51  O  2 YZ   -0.003768   0.000429  -0.009154   0.001822  -0.000398
   52  H  3  S    0.168296  -0.029950   0.290890  -0.059612  -0.168306
   53  H  3  S   -0.008412  -0.000149   0.008750   0.000409  -0.043136
   54  H  3  X   -0.008757   0.001794   0.010009  -0.002490   0.012601
   55  H  3  Y   -0.026781   0.004923  -0.023588   0.004888   0.023310
   56  H  3  Z    0.028546  -0.005209   0.035762  -0.006943  -0.018003
   57  H  4  S    0.164562  -0.026724  -0.286424   0.062000  -0.179919
   58  H  4  S   -0.005452   0.001205  -0.008595   0.002045  -0.044708
   59  H  4  X    0.031194  -0.004700  -0.039403   0.007943  -0.023598
   60  H  4  Y    0.024329  -0.004871  -0.014863   0.004099  -0.021934
   61  H  4  Z   -0.004319   0.001350  -0.009809   0.002223   0.010625
   62  O  5  S   -0.001396  -0.008472   0.000565   0.000289  -0.001512
   63  O  5  S    0.071165   0.444600   0.002466   0.004369   0.019844
   64  O  5  S    0.064210   0.396422  -0.007035   0.006629   0.064730
   65  O  5  X   -0.003540  -0.018457  -0.018018  -0.084495   0.059142
   66  O  5  Y   -0.005881  -0.050512  -0.026036   0.126010   0.160176
   67  O  5  Z   -0.000201   0.007003   0.111158   0.481285  -0.022883
   68  O  5  X    0.001294   0.023679  -0.003718  -0.041523   0.038426
   69  O  5  Y    0.002082   0.027025  -0.016243   0.062340   0.096890
   70  O  5  Z   -0.000355  -0.005863   0.056845   0.233075  -0.015082
   71  O  5 XX   -0.000607  -0.002159   0.000290   0.001675   0.001251
   72  O  5 YY    0.000086  -0.000592  -0.001245  -0.006268  -0.001160
   73  O  5 ZZ    0.000521   0.002750   0.000955   0.004593  -0.000091
   74  O  5 XY    0.000432   0.002749   0.000503   0.001446   0.000242
   75  O  5 XZ   -0.000341  -0.001859  -0.001250  -0.005045  -0.000024
   76  O  5 YZ    0.000012   0.001585  -0.002633  -0.014979  -0.000341
   77  H  6  S    0.025082   0.171018   0.077009   0.290116  -0.052820
   78  H  6  S    0.000015  -0.002810   0.009465   0.014574  -0.013773
   79  H  6  X    0.002072   0.013580   0.005472   0.021054  -0.003901
   80  H  6  Y    0.001101   0.006124   0.004420   0.022387   0.001500
   81  H  6  Z   -0.005289  -0.038443  -0.010020  -0.030836   0.009970
   82  H  7  S    0.026980   0.173560  -0.040534  -0.298024  -0.062365
   83  H  7  S   -0.002514  -0.003571   0.003086  -0.015573  -0.018987
   84  H  7  X    0.000367   0.001106  -0.002176  -0.012499  -0.000704
   85  H  7  Y    0.003824   0.024125  -0.005977  -0.036392  -0.004500
   86  H  7  Z    0.004686   0.033584  -0.000900  -0.021382  -0.010767

                     11         12         13         14         15
                   -1.1909    -1.1194    -1.1013    -0.6041    -0.6021
                     A          A          A          A          A   
    1  Y  1  S    0.064432  -0.017351   0.052114   0.290024   0.009324
    2  Y  1  S    0.005368   0.004075   0.000339   0.162736   0.003861
    3  Y  1  X    0.040339  -0.013431   0.015557   0.016941   0.003482
    4  Y  1  Y    0.079971   0.006063   0.034764   0.009757   0.002093
    5  Y  1  Z   -0.023783  -0.043881   0.005233   0.008332  -0.006296
    6  Y  1  X   -0.046457   0.008571  -0.004503  -0.022975  -0.005592
    7  Y  1  Y   -0.069801  -0.000571  -0.050999  -0.023486  -0.008644
    8  Y  1  Z    0.015991   0.051606  -0.001629  -0.015720   0.011158
    9  Y  1 XX    0.002441  -0.006169  -0.011477  -0.116028  -0.032778
   10  Y  1 YY    0.017896   0.028938   0.015709  -0.179950   0.261610
   11  Y  1 ZZ   -0.020338  -0.022768  -0.004231   0.295978  -0.228832
   12  Y  1 XY    0.062452   0.000715   0.013554  -0.064002  -0.060488
   13  Y  1 XZ   -0.021652  -0.038210   0.010447  -0.176994   0.141248
   14  Y  1 YZ   -0.002817   0.001690  -0.012864   0.260878   0.360368
   15  Y  1 XX    0.002056  -0.004870  -0.022283  -0.149188  -0.039328
   16  Y  1 YY    0.023801   0.039870   0.024425  -0.212867   0.313105
   17  Y  1 ZZ   -0.025857  -0.035000  -0.002142   0.362054  -0.273777
   18  Y  1 XY    0.081551  -0.004639   0.016818  -0.078916  -0.072263
   19  Y  1 XZ   -0.028346  -0.049468   0.012801  -0.219893   0.168258
   20  Y  1 YZ   -0.005485   0.001300  -0.017607   0.317261   0.431549
   21  Y  1 XX    0.009363  -0.001870  -0.021847  -0.028818  -0.009303
   22  Y  1 YY    0.004010   0.023150   0.022947  -0.058530   0.083799
   23  Y  1 ZZ   -0.013374  -0.021280  -0.001100   0.087348  -0.074496
   24  Y  1 XY    0.035226  -0.007526   0.014970  -0.006611  -0.013632
   25  Y  1 XZ   -0.005469  -0.028660   0.003241  -0.049598   0.049262
   26  Y  1 YZ   -0.001514  -0.001248  -0.009015   0.077813   0.121122
   27  Y  1 XXX   0.007365  -0.002372   0.018057  -0.002526  -0.001302
   28  Y  1 YYY   0.012452  -0.003486  -0.015218  -0.001071   0.005238
   29  Y  1 ZZZ  -0.009416  -0.004508  -0.003285   0.006321  -0.008298
   30  Y  1 XXY  -0.030667   0.012094   0.012001  -0.005099  -0.006642
   31  Y  1 XXZ   0.010112   0.016538  -0.008095  -0.010923   0.006822
   32  Y  1 YYX  -0.020144  -0.023220  -0.015310  -0.009186   0.010909
   33  Y  1 YYZ   0.002521  -0.010490   0.012502   0.002443   0.004311
   34  Y  1 ZZX   0.010263   0.026402  -0.008916   0.012575  -0.009162
   35  Y  1 ZZY   0.013961  -0.007416   0.008417   0.006537  -0.000385
   36  Y  1 XYZ   0.002581   0.000225   0.007921   0.010657   0.015688
   37  O  2  S    0.001132   0.004592  -0.002286  -0.001937  -0.000339
   38  O  2  S   -0.034902   0.040148   0.004347  -0.000947   0.000142
   39  O  2  S   -0.083902   0.040213   0.030941   0.015574   0.003714
   40  O  2  X   -0.083408  -0.234172   0.074157   0.010735   0.012929
   41  O  2  Y    0.032113   0.412310  -0.153848   0.004350  -0.007336
   42  O  2  Z   -0.167701   0.365356  -0.062451   0.016296  -0.020772
   43  O  2  X   -0.062045  -0.170526   0.056706   0.021962   0.010344
   44  O  2  Y    0.014040   0.303377  -0.108917  -0.001872  -0.009852
   45  O  2  Z   -0.105125   0.273806  -0.052375   0.020667  -0.016495
   46  O  2 XX   -0.002993   0.002863   0.000844  -0.001357  -0.002133
   47  O  2 YY    0.000220  -0.000157  -0.000348   0.000542   0.000978
   48  O  2 ZZ    0.002772  -0.002706  -0.000496   0.000816   0.001156
   49  O  2 XY    0.000542   0.001511   0.000047  -0.000773  -0.000108
   50  O  2 XZ    0.000133   0.003012  -0.000784  -0.002025   0.001171
   51  O  2 YZ   -0.001667  -0.005270   0.003063   0.000632   0.000390
   52  H  3  S    0.090935  -0.012791  -0.034320  -0.002046   0.008087
   53  H  3  S    0.019131   0.010955  -0.002464  -0.009560   0.008044
   54  H  3  X   -0.002634  -0.009151   0.002353  -0.001249  -0.002008
   55  H  3  Y   -0.010743   0.015791  -0.002125   0.000600  -0.000832
   56  H  3  Z    0.008263   0.012194  -0.007291  -0.001553   0.000289
   57  H  4  S    0.027616  -0.007497   0.009825  -0.009903  -0.009164
   58  H  4  S   -0.008672   0.003139  -0.014846  -0.028151  -0.008222
   59  H  4  X    0.003026  -0.008994   0.002497  -0.002516   0.000278
   60  H  4  Y    0.002306   0.014918  -0.000830   0.000670  -0.001713
   61  H  4  Z   -0.004778   0.011788  -0.004717  -0.000140  -0.002020
   62  O  5  S   -0.006490  -0.001311  -0.003107  -0.000506  -0.000065
   63  O  5  S    0.067889   0.002429  -0.031739  -0.001679   0.001201
   64  O  5  S    0.222137   0.017639  -0.037424  -0.004355   0.003459
   65  O  5  X    0.276631   0.165341   0.495705   0.022411  -0.006874
   66  O  5  Y    0.438761  -0.045884  -0.302388   0.005126   0.015734
   67  O  5  Z   -0.058468   0.024082   0.165370   0.001925   0.027144
   68  O  5  X    0.187693   0.122021   0.373118   0.026458  -0.002855
   69  O  5  Y    0.279340  -0.035139  -0.227636   0.008255   0.008569
   70  O  5  Z   -0.039095   0.023563   0.123074   0.002969   0.004675
   71  O  5 XX    0.005696   0.000643  -0.001034  -0.001235   0.001385
   72  O  5 YY   -0.005155   0.000305   0.002641   0.000140  -0.002150
   73  O  5 ZZ   -0.000541  -0.000948  -0.001607   0.001095   0.000765
   74  O  5 XY   -0.000553  -0.001568  -0.005180  -0.001026  -0.000615
   75  O  5 XZ    0.000892   0.000498   0.000687  -0.000127  -0.003768
   76  O  5 YZ    0.000578   0.000675  -0.002292   0.000895  -0.003647
   77  H  6  S   -0.169659  -0.022257   0.016212  -0.000573   0.031977
   78  H  6  S   -0.035979  -0.009565  -0.006744  -0.020203   0.024331
   79  H  6  X   -0.007879   0.003485   0.018311   0.000132  -0.000855
   80  H  6  Y    0.003349  -0.003146  -0.010109  -0.000010   0.001031
   81  H  6  Z    0.030498   0.004606   0.003915   0.001622  -0.002521
   82  H  7  S   -0.178245  -0.001113   0.009992   0.005137  -0.035758
   83  H  7  S   -0.041623  -0.000431  -0.011649  -0.015583  -0.029928
   84  H  7  X    0.002368   0.005936   0.018583   0.000816   0.002031
   85  H  7  Y   -0.012264  -0.002469  -0.010525  -0.001033  -0.001351
   86  H  7  Z   -0.029537   0.000363   0.006952  -0.001024  -0.002934

                     16         17         18         19         20
                   -0.5938    -0.5906    -0.5661    -0.5506    -0.4424
                     A          A          A          A          A   
    1  Y  1  S    0.035400   0.213848   0.185261   0.501813   0.010665
    2  Y  1  S    0.027420   0.124741   0.109310   0.335484   0.003425
    3  Y  1  X    0.018782   0.021541  -0.021787  -0.172189   0.098375
    4  Y  1  Y   -0.019194   0.007994  -0.119119   0.007583  -0.151370
    5  Y  1  Z   -0.031765   0.018354   0.057758  -0.056961  -0.345229
    6  Y  1  X   -0.044756  -0.034719   0.058308   0.365342  -0.269408
    7  Y  1  Y    0.041586  -0.019375   0.240922  -0.012849   0.417535
    8  Y  1  Z    0.058359  -0.035926  -0.115266   0.114279   0.966413
    9  Y  1 XX   -0.295141  -0.301379  -0.031932   0.191079   0.019931
   10  Y  1 YY    0.037107   0.323359   0.151014  -0.079934   0.004269
   11  Y  1 ZZ    0.258033  -0.021980  -0.119082  -0.111146  -0.024200
   12  Y  1 XY    0.172840  -0.204212   0.391473  -0.038687  -0.020087
   13  Y  1 XZ    0.320520  -0.114166  -0.186798   0.172402  -0.059027
   14  Y  1 YZ   -0.025343  -0.173280   0.012657  -0.075846  -0.003375
   15  Y  1 XX   -0.353359  -0.366783  -0.042994   0.220762   0.016851
   16  Y  1 YY    0.044021   0.387832   0.180612  -0.095461   0.006365
   17  Y  1 ZZ    0.309338  -0.021049  -0.137617  -0.125301  -0.023216
   18  Y  1 XY    0.206182  -0.244600   0.465918  -0.050267  -0.019747
   19  Y  1 XZ    0.383163  -0.143476  -0.227944   0.197848  -0.057850
   20  Y  1 YZ   -0.029526  -0.203008   0.019521  -0.083072   0.000093
   21  Y  1 XX   -0.083331  -0.086947  -0.003950   0.059281  -0.010957
   22  Y  1 YY    0.011632   0.093093   0.032377  -0.023774  -0.000908
   23  Y  1 ZZ    0.071699  -0.006146  -0.028427  -0.035508   0.011865
   24  Y  1 XY    0.045814  -0.048345   0.102633   0.005231   0.024355
   25  Y  1 XZ    0.099631  -0.027444  -0.041974   0.049928   0.034491
   26  Y  1 YZ   -0.010389  -0.060615   0.000897  -0.027005  -0.006587
   27  Y  1 XXX  -0.024090  -0.020424  -0.011110   0.012377   0.014673
   28  Y  1 YYY  -0.003752   0.018569  -0.018654   0.010910  -0.001883
   29  Y  1 ZZZ  -0.006798   0.006845   0.017096  -0.013550   0.015174
   30  Y  1 XXY   0.011145  -0.029055   0.041584  -0.011657  -0.010624
   31  Y  1 XXZ   0.019005  -0.007409  -0.022655   0.029836  -0.025934
   32  Y  1 YYX   0.004461   0.024704   0.032604  -0.008686   0.006686
   33  Y  1 YYZ  -0.009885  -0.001774  -0.000282  -0.011657   0.005576
   34  Y  1 ZZX   0.027859   0.002698  -0.017699  -0.007919  -0.026371
   35  Y  1 ZZY  -0.006111   0.004142  -0.016557  -0.002981   0.013150
   36  Y  1 XYZ   0.002385  -0.012106   0.000843  -0.015012  -0.003492
   37  O  2  S    0.000005  -0.000585  -0.002175   0.002075  -0.000648
   38  O  2  S    0.002704  -0.012286   0.025192  -0.058746   0.004139
   39  O  2  S    0.007454  -0.028319   0.080577  -0.166884   0.021161
   40  O  2  X   -0.035598   0.001407   0.060168  -0.092659   0.032026
   41  O  2  Y    0.050766  -0.052758  -0.025549   0.042234  -0.046697
   42  O  2  Z    0.070544  -0.014496   0.031502  -0.036602  -0.064048
   43  O  2  X   -0.028335   0.027673   0.070119  -0.081865   0.033387
   44  O  2  Y    0.054605  -0.035888  -0.028970   0.041196  -0.049167
   45  O  2  Z    0.056308  -0.016688   0.034417  -0.032659  -0.061339
   46  O  2 XX    0.004113   0.002772  -0.002849   0.001320  -0.003094
   47  O  2 YY    0.001198  -0.001873   0.002356  -0.001259  -0.000984
   48  O  2 ZZ   -0.005311  -0.000899   0.000493  -0.000061   0.004078
   49  O  2 XY   -0.001731   0.004860   0.000537  -0.001322   0.002163
   50  O  2 XZ   -0.002587   0.000118  -0.002959   0.002775   0.002186
   51  O  2 YZ    0.000963   0.003673  -0.000192  -0.001062  -0.000316
   52  H  3  S   -0.030357  -0.027155  -0.011310   0.035033   0.016696
   53  H  3  S   -0.027043  -0.038337  -0.020613   0.009810  -0.010682
   54  H  3  X    0.001094   0.002267   0.001626  -0.005335  -0.001741
   55  H  3  Y    0.005496  -0.000008   0.002510  -0.000403  -0.003630
   56  H  3  Z    0.001335  -0.004248  -0.002113   0.000982  -0.000919
   57  H  4  S    0.009773   0.048357  -0.024377   0.042334  -0.004709
   58  H  4  S    0.009115   0.029964  -0.030551   0.008244  -0.010971
   59  H  4  X   -0.001456   0.002356  -0.000596   0.000385   0.001450
   60  H  4  Y    0.003022   0.001509  -0.003092   0.005843  -0.001795
   61  H  4  Z    0.004239  -0.002215   0.001537  -0.002249  -0.003399
   62  O  5  S   -0.000091  -0.000810   0.002950   0.001055  -0.000026
   63  O  5  S    0.000862  -0.002372  -0.052338  -0.028533  -0.002685
   64  O  5  S    0.003347   0.001781  -0.150091  -0.080352  -0.007328
   65  O  5  X   -0.021699  -0.050513  -0.094566  -0.032954   0.011404
   66  O  5  Y    0.022948   0.041768  -0.067291  -0.025154  -0.024072
   67  O  5  Z    0.004270  -0.023939   0.004260   0.002587  -0.037329
   68  O  5  X   -0.016779  -0.044580  -0.094401  -0.030380   0.008876
   69  O  5  Y    0.016111   0.035072  -0.066505  -0.025492  -0.021143
   70  O  5  Z   -0.005716  -0.016173   0.003725   0.002286  -0.024857
   71  O  5 XX    0.001834   0.003685   0.000869  -0.000359  -0.001755
   72  O  5 YY   -0.002940  -0.003346   0.001153   0.000696   0.002949
   73  O  5 ZZ    0.001105  -0.000340  -0.002023  -0.000337  -0.001194
   74  O  5 XY    0.000277  -0.000419   0.004204   0.000630   0.000343
   75  O  5 XZ   -0.001133   0.001578  -0.000763  -0.000243   0.003787
   76  O  5 YZ   -0.001784   0.002129  -0.000355  -0.000626   0.004415
   77  H  6  S    0.014760  -0.015176   0.038301   0.019779  -0.035432
   78  H  6  S    0.008384  -0.024054   0.016097  -0.016377  -0.003901
   79  H  6  X   -0.001050  -0.003939  -0.002102  -0.001461   0.001204
   80  H  6  Y    0.001552   0.002430  -0.001042  -0.001622  -0.000334
   81  H  6  Z   -0.000603   0.001621  -0.004916  -0.000576   0.003009
   82  H  7  S   -0.019988  -0.000603   0.031928   0.014691   0.040176
   83  H  7  S   -0.016234  -0.011122   0.016781  -0.013649  -0.003028
   84  H  7  X   -0.000642  -0.003418  -0.003098  -0.001754  -0.002539
   85  H  7  Y    0.000931   0.001169   0.000782  -0.001057   0.000331
   86  H  7  Z   -0.002947  -0.002620   0.003352   0.000549   0.004110

                     21         22         23         24         25
                   -0.4112    -0.3750    -0.2912    -0.2839    -0.2775
                     A          A          A          A          A   
    1  Y  1  S   -0.016480  -0.104363   0.005547  -0.002101  -0.022621
    2  Y  1  S   -0.011001  -0.036755   0.025282  -0.036667  -0.039354
    3  Y  1  X    0.003590  -0.249066   0.003752   0.000200  -0.018295
    4  Y  1  Y   -0.309743  -0.022807  -0.017083   0.008240   0.000784
    5  Y  1  Z    0.129797  -0.047025   0.008474   0.001002   0.019637
    6  Y  1  X   -0.015408   0.710774  -0.038396   0.038596   0.080797
    7  Y  1  Y    0.890394   0.051476   0.074220  -0.029298  -0.003940
    8  Y  1  Z   -0.375613   0.137790  -0.045413   0.017581  -0.049052
    9  Y  1 XX    0.028383  -0.160954   0.008466   0.011146   0.011500
   10  Y  1 YY   -0.064548   0.051012  -0.058569  -0.177778   0.108257
   11  Y  1 ZZ    0.036165   0.109942   0.050103   0.166632  -0.119758
   12  Y  1 XY   -0.161374  -0.029730  -0.026839   0.012977  -0.085506
   13  Y  1 XZ    0.078563  -0.085249   0.015330  -0.141262  -0.174104
   14  Y  1 YZ    0.006081   0.038392  -0.230647   0.048606  -0.028901
   15  Y  1 XX    0.027868  -0.174582   0.008105   0.013968   0.016430
   16  Y  1 YY   -0.064412   0.053360  -0.083257  -0.250651   0.161429
   17  Y  1 ZZ    0.036545   0.121221   0.075152   0.236683  -0.177858
   18  Y  1 XY   -0.164942  -0.026937  -0.045696   0.015160  -0.120938
   19  Y  1 XZ    0.080396  -0.089152   0.022770  -0.206959  -0.262138
   20  Y  1 YZ    0.007712   0.037948  -0.334794   0.068607  -0.047679
   21  Y  1 XX   -0.018876   0.291247   0.015293  -0.073926  -0.072736
   22  Y  1 YY    0.062687  -0.068747   0.211036   0.765716  -0.498310
   23  Y  1 ZZ   -0.043811  -0.222500  -0.226328  -0.691790   0.571046
   24  Y  1 XY    0.173125   0.074159   0.090387  -0.023376   0.372466
   25  Y  1 XZ   -0.077239   0.128925  -0.024498   0.581229   0.797296
   26  Y  1 YZ   -0.019747  -0.059118   0.967154  -0.193146   0.159064
   27  Y  1 XXX   0.020024  -0.038246   0.027556  -0.015227   0.000223
   28  Y  1 YYY   0.029785  -0.018690   0.006132   0.017137  -0.004799
   29  Y  1 ZZZ  -0.045931   0.039035  -0.005627  -0.003675  -0.026214
   30  Y  1 XXY  -0.084456  -0.016171   0.017251  -0.013072   0.031106
   31  Y  1 XXZ   0.049286  -0.093180   0.005344   0.021841   0.039700
   32  Y  1 YYX  -0.062120  -0.009699  -0.008928   0.028643  -0.042388
   33  Y  1 YYZ   0.012338   0.040810   0.002205  -0.016911  -0.004530
   34  Y  1 ZZX   0.035256   0.061011  -0.028042  -0.008215   0.042089
   35  Y  1 ZZY   0.044496   0.041246  -0.025478  -0.009919  -0.024667
   36  Y  1 XYZ  -0.012650   0.059585   0.025201   0.000167   0.019522
   37  O  2  S    0.002650  -0.007092  -0.008931   0.008700   0.007899
   38  O  2  S   -0.062176   0.110766   0.023104  -0.028375  -0.009909
   39  O  2  S   -0.224502   0.450833   0.229291  -0.244747  -0.168521
   40  O  2  X   -0.053197   0.027794  -0.011033   0.048162   0.024305
   41  O  2  Y   -0.023933  -0.037431   0.055782  -0.016475   0.045832
   42  O  2  Z   -0.000321  -0.013189  -0.080314   0.036996   0.092045
   43  O  2  X   -0.043072   0.026133  -0.001260   0.069588   0.031498
   44  O  2  Y   -0.019016  -0.027593   0.106969  -0.028792   0.088051
   45  O  2  Z    0.006597  -0.033343  -0.130239   0.046644   0.136119
   46  O  2 XX    0.005140   0.001301   0.000117  -0.000927  -0.000264
   47  O  2 YY   -0.002636  -0.000203  -0.000920   0.003615   0.000677
   48  O  2 ZZ   -0.002504  -0.001098   0.000802  -0.002688  -0.000413
   49  O  2 XY    0.003097   0.002372  -0.002070   0.002493   0.000235
   50  O  2 XZ    0.001793  -0.000984   0.002613  -0.000893  -0.001718
   51  O  2 YZ    0.003214   0.000696   0.001432   0.000878   0.001299
   52  H  3  S    0.000084  -0.075277  -0.070294   0.031734   0.010993
   53  H  3  S    0.137179  -0.234186  -0.238869   0.086227   0.063134
   54  H  3  X    0.004104  -0.002007  -0.007323   0.003298   0.002230
   55  H  3  Y    0.000031  -0.001383  -0.002950   0.007309  -0.003414
   56  H  3  Z   -0.001067  -0.000197   0.001894   0.003682  -0.003958
   57  H  4  S    0.075245  -0.046152  -0.022463   0.049389   0.027816
   58  H  4  S    0.079514  -0.275238  -0.013286   0.180379   0.093291
   59  H  4  X    0.000958   0.000015  -0.000615   0.001547   0.001432
   60  H  4  Y    0.003956   0.003383   0.001184  -0.005965  -0.002609
   61  H  4  Z   -0.001816  -0.002181  -0.005970   0.000712  -0.003783
   62  O  5  S   -0.003796  -0.007976   0.004187   0.004687   0.000374
   63  O  5  S    0.072927   0.097084  -0.004580  -0.017933   0.002358
   64  O  5  S    0.267247   0.416691  -0.078909  -0.144035   0.005712
   65  O  5  X    0.094981  -0.000013   0.007185  -0.012147   0.017755
   66  O  5  Y   -0.006020   0.018087   0.038673   0.049348   0.007466
   67  O  5  Z    0.018350  -0.018309   0.076968   0.055299   0.064965
   68  O  5  X    0.085012   0.002720   0.013789  -0.040697   0.025551
   69  O  5  Y   -0.017964  -0.019538   0.055059   0.078384   0.012772
   70  O  5  Z    0.016360  -0.014323   0.150792   0.100527   0.123552
   71  O  5 XX   -0.003993   0.001494   0.000250   0.002074  -0.000422
   72  O  5 YY    0.001936  -0.002269  -0.001769  -0.001364  -0.002331
   73  O  5 ZZ    0.002057   0.000774   0.001519  -0.000710   0.002753
   74  O  5 XY   -0.002223  -0.000023  -0.000290  -0.002724   0.001181
   75  O  5 XZ   -0.000938   0.000557  -0.003042   0.000304  -0.000897
   76  O  5 YZ   -0.001042   0.001969  -0.000945  -0.004580  -0.004043
   77  H  6  S   -0.031554  -0.065897   0.006797   0.002246   0.006860
   78  H  6  S   -0.126118  -0.196417  -0.076102  -0.051421  -0.077997
   79  H  6  X    0.002503  -0.003624  -0.004212   0.002109   0.000455
   80  H  6  Y   -0.002833  -0.000641   0.003208  -0.004379  -0.001643
   81  H  6  Z    0.001829   0.000219  -0.001533  -0.001755   0.000735
   82  H  7  S   -0.038505  -0.057384   0.030921   0.001888   0.002565
   83  H  7  S   -0.126194  -0.264048   0.177094   0.172775   0.136249
   84  H  7  X    0.002656  -0.004025   0.004030   0.002781  -0.001908
   85  H  7  Y   -0.002384  -0.002651   0.001174   0.000031   0.006016
   86  H  7  Z    0.000669   0.000460  -0.004685  -0.000046  -0.005342

                     26         27         28         29         30
                   -0.2739    -0.2666    -0.2099    -0.2027    -0.1958
                     A          A          A          A          A   
    1  Y  1  S   -0.033946  -0.001478  -0.034756  -0.010200   0.027243
    2  Y  1  S   -0.071471  -0.056708  -0.088436  -0.061710   0.043332
    3  Y  1  X   -0.012327   0.026953  -0.061518   0.013670   0.030787
    4  Y  1  Y    0.004459  -0.020557   0.092693   0.131412  -0.029964
    5  Y  1  Z   -0.007260  -0.003015  -0.069618  -0.084756  -0.043254
    6  Y  1  X    0.090800  -0.023158   0.271159  -0.004115  -0.133700
    7  Y  1  Y    0.031923   0.031150  -0.415046  -0.524578   0.125297
    8  Y  1  Z    0.018121   0.047717   0.309196   0.348547   0.136732
    9  Y  1 XX   -0.108784  -0.169550   0.068965  -0.074697  -0.023309
   10  Y  1 YY    0.036941   0.102195  -0.038871   0.025866   0.046584
   11  Y  1 ZZ    0.071843   0.067355  -0.030094   0.048831  -0.023275
   12  Y  1 XY   -0.152669   0.111686  -0.006249  -0.061683   0.014428
   13  Y  1 XZ    0.041953  -0.015691   0.036973   0.030838   0.066929
   14  Y  1 YZ    0.055826  -0.031101   0.023233  -0.060596   0.079621
   15  Y  1 XX   -0.160905  -0.270284   0.097606  -0.085137  -0.030876
   16  Y  1 YY    0.050065   0.169621  -0.056424   0.011315   0.052449
   17  Y  1 ZZ    0.110840   0.100662  -0.041182   0.073822  -0.021572
   18  Y  1 XY   -0.242139   0.171781  -0.035599  -0.119678   0.018988
   19  Y  1 XZ    0.071710  -0.041325   0.066241   0.054012   0.074896
   20  Y  1 YZ    0.071370  -0.045349   0.017966  -0.075634   0.092923
   21  Y  1 XX    0.464687   0.819058  -0.507816   0.277899   0.177966
   22  Y  1 YY   -0.168879  -0.509144   0.384266   0.057169  -0.255547
   23  Y  1 ZZ   -0.295808  -0.309915   0.123551  -0.335068   0.077581
   24  Y  1 XY    0.686224  -0.484312   0.481921   0.702377  -0.122372
   25  Y  1 XZ   -0.229677   0.063371  -0.509547  -0.374195  -0.268413
   26  Y  1 YZ   -0.200295   0.173516  -0.013803   0.362076  -0.422393
   27  Y  1 XXX   0.045552   0.072931  -0.071441  -0.068909   0.016787
   28  Y  1 YYY  -0.021040  -0.009138  -0.078959  -0.102970  -0.026269
   29  Y  1 ZZZ   0.038610  -0.036887   0.104286   0.044062  -0.003021
   30  Y  1 XXY   0.064477  -0.027982   0.098344   0.115727   0.010026
   31  Y  1 XXZ  -0.016741   0.041933  -0.140385  -0.000555   0.049716
   32  Y  1 YYX  -0.006072  -0.058207   0.064428   0.143296   0.005578
   33  Y  1 YYZ  -0.035059   0.007556   0.000470  -0.058560  -0.045662
   34  Y  1 ZZX  -0.055043  -0.039641   0.031420  -0.050845  -0.028100
   35  Y  1 ZZY  -0.036248   0.040242   0.007591   0.022422   0.025218
   36  Y  1 XYZ   0.007263   0.004228   0.091280   0.044393  -0.055521
   37  O  2  S   -0.001284   0.018369   0.011124   0.008733  -0.004498
   38  O  2  S    0.003784  -0.065038  -0.027758  -0.020599   0.012497
   39  O  2  S    0.045746  -0.546913  -0.293194  -0.225373   0.132246
   40  O  2  X    0.056671   0.128448   0.180805  -0.054264  -0.034380
   41  O  2  Y    0.075803   0.002459   0.099037  -0.158721  -0.017356
   42  O  2  Z   -0.036182   0.030404   0.012131   0.155655  -0.033455
   43  O  2  X    0.104290   0.207367   0.366677  -0.149476  -0.063083
   44  O  2  Y    0.148643   0.026736   0.209304  -0.345094  -0.030310
   45  O  2  Z   -0.072394   0.008873   0.018014   0.325383  -0.054722
   46  O  2 XX    0.000075  -0.002709   0.003302  -0.006242  -0.000842
   47  O  2 YY   -0.000354   0.000552  -0.001824   0.002877  -0.000701
   48  O  2 ZZ    0.000279   0.002158  -0.001478   0.003365   0.001543
   49  O  2 XY    0.000719   0.000838  -0.000514  -0.004946   0.000907
   50  O  2 XZ   -0.000312  -0.005175   0.000186   0.001050  -0.000020
   51  O  2 YZ   -0.003971   0.002184  -0.002512  -0.006614  -0.000558
   52  H  3  S   -0.019729   0.047662   0.001825   0.190480  -0.007484
   53  H  3  S   -0.195888   0.173518  -0.076551   1.615909  -0.126384
   54  H  3  X    0.000594   0.004193  -0.002704  -0.005088   0.001783
   55  H  3  Y    0.001627   0.001061  -0.001088  -0.006155   0.000942
   56  H  3  Z   -0.000133  -0.000603   0.002732   0.001804  -0.001511
   57  H  4  S    0.036146   0.092611   0.134227  -0.099625  -0.026114
   58  H  4  S    0.239782   0.421026   1.320086  -0.761281  -0.238758
   59  H  4  X   -0.001804  -0.001284   0.003712  -0.001693  -0.000635
   60  H  4  Y   -0.005146  -0.000961   0.006798  -0.001191  -0.001547
   61  H  4  Z    0.002583   0.005031  -0.003285   0.005174  -0.000557
   62  O  5  S    0.023173  -0.005592  -0.015468  -0.001201   0.001247
   63  O  5  S   -0.065826   0.002313   0.037755   0.004286   0.004726
   64  O  5  S   -0.611794   0.103222   0.408906   0.035195  -0.004261
   65  O  5  X    0.087998   0.046640  -0.070069  -0.056361  -0.047693
   66  O  5  Y    0.091427  -0.081293  -0.085702  -0.023635   0.060964
   67  O  5  Z   -0.028785   0.029158   0.044050   0.009244   0.262487
   68  O  5  X    0.116447   0.061999  -0.167746  -0.088482  -0.091399
   69  O  5  Y    0.102190  -0.120724  -0.153784  -0.064434   0.143570
   70  O  5  Z   -0.042235   0.048698   0.086094   0.033983   0.578712
   71  O  5 XX    0.000356  -0.000631   0.002592  -0.001035  -0.001296
   72  O  5 YY   -0.002246   0.003123  -0.000619   0.000437   0.001956
   73  O  5 ZZ    0.001891  -0.002492  -0.001973   0.000598  -0.000660
   74  O  5 XY   -0.006031  -0.000239  -0.003220  -0.000712   0.001118
   75  O  5 XZ    0.002521   0.000184   0.003964  -0.000537   0.003433
   76  O  5 YZ    0.002030  -0.001664  -0.001869   0.004187   0.003040
   77  H  6  S    0.070188  -0.029223  -0.109411  -0.025273  -0.137803
   78  H  6  S    0.334230  -0.046453  -0.694019  -0.359143  -1.356281
   79  H  6  X    0.003653  -0.002751   0.003580  -0.003683  -0.001952
   80  H  6  Y    0.009589  -0.000394  -0.002690   0.003637   0.002091
   81  H  6  Z    0.005613  -0.001970   0.005589   0.003802   0.004210
   82  H  7  S    0.077416  -0.023371  -0.077177   0.020761   0.144635
   83  H  7  S    0.307552  -0.001869  -0.340478  -0.247943   1.383627
   84  H  7  X    0.002631  -0.002467  -0.000956   0.003681  -0.001445
   85  H  7  Y    0.005991   0.002269   0.000482  -0.006597   0.001248
   86  H  7  Z   -0.006917   0.002040  -0.001154  -0.001863   0.007880

                     31         32         33         34         35
                   -0.1795    -0.0979    -0.0927    -0.0776    -0.0545
                     A          A          A          A          A   
    1  Y  1  S   -0.307770  -0.003435  -0.026332  -0.005560   0.009274
    2  Y  1  S   -0.475297   0.001610  -0.039381  -0.004662   0.009978
    3  Y  1  X   -0.227239  -0.003352  -0.013548  -0.001651   0.018469
    4  Y  1  Y   -0.087931  -0.007288   0.009891  -0.017372  -0.005222
    5  Y  1  Z   -0.052954   0.005957  -0.021025  -0.009793  -0.011737
    6  Y  1  X    0.972883   0.010986   0.060807   0.006291  -0.064563
    7  Y  1  Y    0.340015   0.034759  -0.036407   0.062672   0.022471
    8  Y  1  Z    0.235700  -0.028305   0.080659   0.030325   0.044317
    9  Y  1 XX   -0.015822   0.008734  -0.020094   0.002422  -0.005212
   10  Y  1 YY    0.017339  -0.003427   0.009454   0.007958   0.009046
   11  Y  1 ZZ   -0.001517  -0.005307   0.010640  -0.010380  -0.003834
   12  Y  1 XY    0.034819  -0.003912  -0.010154   0.011205  -0.015715
   13  Y  1 XZ    0.006965  -0.009658   0.021471   0.013740  -0.005446
   14  Y  1 YZ   -0.004943  -0.002099  -0.003019   0.023695  -0.016011
   15  Y  1 XX    0.050272   0.004236  -0.000842  -0.004474  -0.023712
   16  Y  1 YY   -0.001859  -0.002655  -0.003687   0.009560  -0.000173
   17  Y  1 ZZ   -0.048413  -0.001581   0.004529  -0.005087   0.023885
   18  Y  1 XY    0.079616  -0.000440  -0.009813   0.011631   0.007802
   19  Y  1 XZ    0.034278  -0.003110   0.016212   0.013837   0.010508
   20  Y  1 YZ   -0.018884  -0.002081  -0.001680   0.016716  -0.008445
   21  Y  1 XX   -0.452826  -0.022393   0.014128   0.021827   0.137057
   22  Y  1 YY    0.050560   0.006862   0.007122  -0.059586   0.006123
   23  Y  1 ZZ    0.402266   0.015531  -0.021250   0.037759  -0.143179
   24  Y  1 XY   -0.461662  -0.022329   0.051028  -0.069142  -0.044654
   25  Y  1 XZ   -0.308043   0.027329  -0.095553  -0.087881  -0.058442
   26  Y  1 YZ    0.174510  -0.005569   0.017072  -0.111806   0.060970
   27  Y  1 XXX  -0.100530  -0.329266   0.047619  -0.294966  -0.553999
   28  Y  1 YYY  -0.003178  -0.692243   0.171185   0.344959  -0.068049
   29  Y  1 ZZZ   0.172133  -0.503447  -0.484109  -0.462463   0.090094
   30  Y  1 XXY  -0.194892   0.153849   0.152013  -0.093524   0.413653
   31  Y  1 XXZ  -0.245811   0.334328  -0.331535   0.518236   0.157440
   32  Y  1 YYX  -0.078894   0.289735  -0.179607   0.352113  -0.222517
   33  Y  1 YYZ   0.014871   0.341117   0.981035   0.102222  -0.278315
   34  Y  1 ZZX   0.213769   0.152021   0.115719   0.043625   0.965784
   35  Y  1 ZZY   0.199156   0.774893  -0.381682  -0.369288  -0.322356
   36  Y  1 XYZ   0.227718  -0.083759  -0.153642   0.666353  -0.154504
   37  O  2  S    0.013627  -0.000130   0.002518   0.000724  -0.000421
   38  O  2  S    0.015670   0.006050  -0.003099   0.003560  -0.018724
   39  O  2  S   -0.170234   0.033113  -0.070690   0.012354  -0.058228
   40  O  2  X    0.090883   0.007300   0.007061   0.011053   0.051394
   41  O  2  Y   -0.080598   0.026184  -0.007055  -0.018085  -0.099705
   42  O  2  Z    0.099699  -0.014483   0.030721  -0.027435  -0.124743
   43  O  2  X    0.139760   0.009871  -0.035437   0.024374   0.023031
   44  O  2  Y   -0.136561   0.027151  -0.030439  -0.003482  -0.123480
   45  O  2  Z    0.174301  -0.014766   0.036729  -0.027020  -0.104575
   46  O  2 XX    0.004237  -0.001181  -0.009539   0.002891  -0.017684
   47  O  2 YY    0.001246  -0.005811   0.003515  -0.005578  -0.001064
   48  O  2 ZZ   -0.005483   0.006991   0.006024   0.002687   0.018749
   49  O  2 XY    0.005895  -0.003404  -0.010267   0.003885   0.006068
   50  O  2 XZ   -0.000336  -0.004767   0.001188  -0.001744   0.010910
   51  O  2 YZ   -0.000601  -0.005698   0.000755  -0.002138  -0.008770
   52  H  3  S    0.049741   0.041193   0.037082   0.004914   0.149854
   53  H  3  S    0.535660  -0.180998   0.281081  -0.114574   0.064309
   54  H  3  X    0.008812   0.007116  -0.017501   0.008330  -0.011635
   55  H  3  Y    0.003469  -0.011256  -0.002027  -0.006624  -0.003481
   56  H  3  Z    0.005392  -0.007739  -0.008166  -0.002829  -0.010343
   57  H  4  S    0.072475  -0.033579  -0.110097   0.034107  -0.051521
   58  H  4  S    0.411163   0.091725  -0.013836   0.051365  -0.081741
   59  H  4  X    0.005536  -0.004012   0.004423  -0.003628   0.009005
   60  H  4  Y   -0.005678   0.005663  -0.000748   0.006087  -0.012487
   61  H  4  Z    0.003965   0.011161  -0.004349   0.007655  -0.005394
   62  O  5  S    0.013793  -0.000750  -0.000276   0.000925  -0.001194
   63  O  5  S   -0.014089  -0.011900  -0.004894  -0.001768  -0.009421
   64  O  5  S   -0.312260  -0.052489  -0.027118  -0.022776  -0.026185
   65  O  5  X    0.094497  -0.000775  -0.027523   0.028523   0.020516
   66  O  5  Y    0.164829   0.017468   0.037941  -0.027083  -0.017465
   67  O  5  Z    0.004677  -0.015401   0.002076  -0.014762   0.009014
   68  O  5  X    0.127680  -0.012290  -0.032082   0.002570   0.015231
   69  O  5  Y    0.296669   0.002368   0.030102   0.009995  -0.022469
   70  O  5  Z    0.011739  -0.009206   0.035714   0.104327  -0.014834
   71  O  5 XX    0.001819   0.005005   0.003502  -0.007616   0.000352
   72  O  5 YY   -0.001639   0.002471  -0.002736   0.014340   0.002234
   73  O  5 ZZ   -0.000179  -0.007475  -0.000766  -0.006724  -0.002585
   74  O  5 XY   -0.000937  -0.004044  -0.000070   0.001082  -0.002826
   75  O  5 XZ    0.002363   0.000512   0.008533   0.017710  -0.006194
   76  O  5 YZ    0.000459   0.000935  -0.000116   0.022502  -0.005079
   77  H  6  S    0.031714  -0.046538  -0.053874  -0.216244   0.035523
   78  H  6  S    0.505517   0.129320  -0.080978  -0.102601   0.060873
   79  H  6  X    0.005090  -0.009617   0.005607   0.011343  -0.006862
   80  H  6  Y   -0.001012  -0.003669  -0.003327   0.008055  -0.006823
   81  H  6  Z   -0.000033  -0.003405   0.001557   0.003013  -0.003507
[...]
   43  O  2  X    0.032676   0.012186  -0.040893  -0.080913  -0.031152
   44  O  2  Y   -0.060780  -0.026951   0.023863   0.031457   0.050550
   45  O  2  Z   -0.090982  -0.020166  -0.027798  -0.057040   0.078370
   46  O  2 XX   -0.005029   0.006289   0.000759   0.002780   0.003172
   47  O  2 YY   -0.001312  -0.004795  -0.001053  -0.002196   0.001258
   48  O  2 ZZ    0.006341  -0.001494   0.000294  -0.000584  -0.004430
   49  O  2 XY    0.002854   0.005653  -0.002461  -0.002730  -0.002493
   50  O  2 XZ    0.003546   0.001008   0.001980   0.004434  -0.002643
   51  O  2 YZ   -0.001384   0.005190  -0.001033  -0.001637   0.000622
   52  H  3  S    0.014156  -0.057937   0.004460   0.057193  -0.003997
   53  H  3  S    0.014790  -0.057586   0.014427   0.038126   0.004112
   54  H  3  X    0.001776   0.001839  -0.000792  -0.005471  -0.000864
   55  H  3  Y   -0.004690   0.002707  -0.001776  -0.005191   0.002764
   56  H  3  Z   -0.005358  -0.003430   0.000811   0.001228   0.003375
   57  H  4  S   -0.020164   0.060066  -0.013586   0.056134   0.011955
   58  H  4  S   -0.018705   0.057376  -0.004171   0.047544   0.007215
   59  H  4  X    0.000700   0.003531  -0.001331   0.002258  -0.000742
   60  H  4  Y   -0.004889   0.001290   0.000347   0.006194   0.002898
   61  H  4  Z   -0.004758  -0.003174   0.000005  -0.004255   0.002889
   62  O  5  S   -0.000188  -0.000483  -0.003173  -0.001473  -0.000126
   63  O  5  S    0.001611  -0.005608   0.071658  -0.009748   0.002966
   64  O  5  S    0.006554  -0.009564   0.220069  -0.013913   0.010603
   65  O  5  X    0.014681  -0.078463   0.065751  -0.011110  -0.022670
   66  O  5  Y   -0.012897   0.061145   0.087610   0.018634   0.030293
   67  O  5  Z    0.004459  -0.036490  -0.018587  -0.010800   0.038278
   68  O  5  X    0.012457  -0.071180   0.063052   0.004470  -0.021176
   69  O  5  Y   -0.013700   0.062243   0.082285   0.036590   0.028007
   70  O  5  Z    0.004912  -0.030494  -0.016928  -0.011487   0.027495
   71  O  5 XX   -0.000546   0.006107  -0.000779   0.001088   0.002536
   72  O  5 YY    0.001946  -0.004977  -0.001889  -0.001448  -0.004350
   73  O  5 ZZ   -0.001400  -0.001130   0.002667   0.000360   0.001814
   74  O  5 XY   -0.001098   0.000953  -0.004694  -0.002466  -0.000669
   75  O  5 XZ   -0.000460   0.001693   0.001003   0.001671  -0.005241
   76  O  5 YZ    0.000412   0.003101   0.001109  -0.000004  -0.005069
   77  H  6  S   -0.006343  -0.005255  -0.055034  -0.001727   0.048080
   78  H  6  S   -0.003156  -0.005994  -0.030783  -0.015076   0.005293
   79  H  6  X   -0.000176  -0.005664  -0.000156  -0.001472  -0.000196
   80  H  6  Y   -0.000355   0.003832   0.003949  -0.000643  -0.000807
   81  H  6  Z   -0.000026  -0.002061   0.006264  -0.000020  -0.003617
   82  H  7  S   -0.000693   0.012331  -0.052341   0.004453  -0.050176
   83  H  7  S   -0.003218   0.010615  -0.033567  -0.004982  -0.011987
   84  H  7  X    0.001191  -0.005450   0.001856  -0.001862  -0.000335
   85  H  7  Y   -0.002194   0.004237  -0.000176   0.000808   0.000214
   86  H  7  Z    0.001019  -0.000964  -0.007175   0.000361  -0.003678

                     21         22         23
                   -0.3852    -0.3770    -0.2850
                     A          A          A   
    1  Y  1  S    0.038506  -0.085084  -0.014482
    2  Y  1  S    0.010804  -0.023949  -0.022601
    3  Y  1  X    0.051240  -0.233448  -0.008547
    4  Y  1  Y    0.255881   0.014655  -0.025831
    5  Y  1  Z   -0.101254  -0.098638   0.011991
    6  Y  1  X   -0.136680   0.668402   0.026183
    7  Y  1  Y   -0.743714  -0.049936   0.123416
    8  Y  1  Z    0.299646   0.285532  -0.063533
    9  Y  1 XX   -0.008809  -0.109148   0.015029
   10  Y  1 YY    0.091184   0.053882  -0.067584
   11  Y  1 ZZ   -0.082375   0.055266   0.052555
   12  Y  1 XY    0.178592   0.012524  -0.061885
   13  Y  1 XZ   -0.071641  -0.110932  -0.055200
   14  Y  1 YZ   -0.017256   0.041073  -0.160337
   15  Y  1 XX   -0.008091  -0.121371   0.012165
   16  Y  1 YY    0.099645   0.059626  -0.094514
   17  Y  1 ZZ   -0.091555   0.061745   0.082349
   18  Y  1 XY    0.191956   0.016404  -0.100573
   19  Y  1 XZ   -0.076961  -0.125011  -0.091734
   20  Y  1 YZ   -0.020235   0.042187  -0.258176
   21  Y  1 XX   -0.002876   0.151934   0.006875
   22  Y  1 YY   -0.111826  -0.070576   0.208138
   23  Y  1 ZZ    0.114702  -0.081358  -0.215013
   24  Y  1 XY   -0.202582  -0.014852   0.207920
   25  Y  1 XZ    0.069300   0.153003   0.340215
   26  Y  1 YZ    0.037451  -0.037792   0.757623
   27  Y  1 XXX  -0.015539  -0.001966   0.037631
   28  Y  1 YYY  -0.017181  -0.034437   0.015865
   29  Y  1 ZZZ   0.053783   0.040521  -0.035609
   30  Y  1 XXY   0.077964   0.014061   0.010559
   31  Y  1 XXZ  -0.030071  -0.084576   0.030197
   32  Y  1 YYX   0.082768  -0.009248  -0.026999
   33  Y  1 YYZ  -0.042087   0.030212   0.017577
   34  Y  1 ZZX  -0.061921   0.011886  -0.023489
   35  Y  1 ZZY  -0.054913   0.032141  -0.031844
   36  Y  1 XYZ   0.004929   0.069104   0.045932
   37  O  2  S   -0.001707  -0.010063  -0.002685
   38  O  2  S    0.055703   0.135054   0.007437
   39  O  2  S    0.201209   0.583673   0.073802
   40  O  2  X    0.039134  -0.023676   0.024004
   41  O  2  Y    0.042289  -0.000521   0.095433
   42  O  2  Z    0.004710  -0.006634  -0.043503
   43  O  2  X    0.035059  -0.029825   0.052388
   44  O  2  Y    0.047070   0.007314   0.179438
   45  O  2  Z    0.002310  -0.011708  -0.084199
   46  O  2 XX   -0.006675   0.002968   0.001101
   47  O  2 YY    0.004615  -0.001864   0.000062
   48  O  2 ZZ    0.002060  -0.001105  -0.001163
   49  O  2 XY   -0.002732   0.001933  -0.000978
   50  O  2 XZ   -0.001997  -0.000004   0.002745
   51  O  2 YZ   -0.002801   0.002083   0.002905
   52  H  3  S    0.004526  -0.109045  -0.068354
   53  H  3  S   -0.169433  -0.319976  -0.299923
   54  H  3  X   -0.002757  -0.005646  -0.004511
   55  H  3  Y   -0.001223  -0.003898  -0.000102
   56  H  3  Z    0.000729   0.000528   0.003231
   57  H  4  S   -0.073926  -0.059389   0.022075
   58  H  4  S   -0.073620  -0.366849   0.212283
   59  H  4  X    0.000791   0.000088   0.000106
   60  H  4  Y   -0.003455   0.008494  -0.002524
   61  H  4  Z    0.003121  -0.006016  -0.005485
   62  O  5  S    0.007139  -0.006705   0.005501
   63  O  5  S   -0.125807   0.067965  -0.007944
   64  O  5  S   -0.502231   0.321030  -0.119011
   65  O  5  X   -0.030371  -0.074443   0.030008
   66  O  5  Y    0.005683   0.024072   0.066772
   67  O  5  Z   -0.012942  -0.031493   0.143072
   68  O  5  X   -0.014544  -0.065938   0.038285
   69  O  5  Y    0.025312   0.016627   0.118906
   70  O  5  Z   -0.017842  -0.027435   0.272734
   71  O  5 XX    0.002302   0.004031  -0.000338
   72  O  5 YY   -0.000868  -0.002616  -0.000462
   73  O  5 ZZ   -0.001434  -0.001415   0.000800
   74  O  5 XY    0.002404   0.003063  -0.001484
   75  O  5 XZ    0.000240   0.001471  -0.001205
   76  O  5 YZ    0.001008   0.003150   0.000344
   77  H  6  S    0.074366  -0.046381  -0.027874
   78  H  6  S    0.298765  -0.143757  -0.221429
   79  H  6  X   -0.000311  -0.004096  -0.001082
   80  H  6  Y    0.003651  -0.000407   0.000748
   81  H  6  Z    0.000551  -0.005929  -0.002336
   82  H  7  S    0.080963  -0.019982   0.065548
   83  H  7  S    0.289565  -0.191727   0.452816
   84  H  7  X    0.000080  -0.006104   0.001948
   85  H  7  Y    0.002159   0.000876   0.002539
   86  H  7  Z   -0.002183   0.005076  -0.005584

     ----------------------------------------------------------------
     PROPERTY VALUES FOR THE RHF   SELF-CONSISTENT FIELD WAVEFUNCTION
     ----------------------------------------------------------------

          -----------------
          ENERGY COMPONENTS
          -----------------

         WAVEFUNCTION NORMALIZATION =       1.0000000000

                ONE ELECTRON ENERGY =    -378.6453619051
                TWO ELECTRON ENERGY =     129.2632701079
           NUCLEAR REPULSION ENERGY =      74.2064577837
                                      ------------------
                       TOTAL ENERGY =    -175.1756340135

 ELECTRON-ELECTRON POTENTIAL ENERGY =     129.2632701079
  NUCLEUS-ELECTRON POTENTIAL ENERGY =    -563.5955435819
   NUCLEUS-NUCLEUS POTENTIAL ENERGY =      74.2064577837
                                      ------------------
             TOTAL POTENTIAL ENERGY =    -360.1258156903
               TOTAL KINETIC ENERGY =     184.9501816768
                 VIRIAL RATIO (V/T) =       1.9471503754

          ---------------------------------------
          MULLIKEN AND LOWDIN POPULATION ANALYSES
          ---------------------------------------

     ATOMIC MULLIKEN POPULATION IN EACH MOLECULAR ORBITAL

                      1          2          3          4          5

                  2.000000   2.000000   2.000000   2.000000   2.000000

    1             0.000253   0.000239   1.866795   1.906996   1.998041
    2             1.999954   0.000000   0.101707   0.009505   0.001007
    3            -0.000092   0.000000   0.006436   0.001966   0.000019
    4            -0.000116  -0.000001   0.010887  -0.000010   0.000056
    5             0.000000   2.000002   0.011974   0.069047   0.000410
    6             0.000000  -0.000115   0.000709   0.006562   0.000065
    7             0.000000  -0.000126   0.001491   0.005934   0.000403

                      6          7          8          9         10

                  2.000000   2.000000   2.000000   2.000000   2.000000

    1             0.160072   0.117548   0.044874   0.033581   0.179591
    2             1.488527   0.000343   1.295493   0.027156   1.515768
    3             0.163509  -0.000031   0.292277   0.004975   0.151866
    4             0.186685  -0.000536   0.320878   0.007333   0.118681
    5             0.000852   1.502505   0.033745   1.311855   0.029687
    6             0.000180   0.186140   0.009807   0.296888   0.003291
    7             0.000175   0.194031   0.002926   0.318212   0.001116

                     11         12         13

                  2.000000   2.000000   2.000000

    1             0.168601   0.094365   0.076394
    2             0.029191   1.856857   0.031249
    3             0.000387   0.011595   0.003587
    4             0.006275   0.013510   0.000103
    5             1.516272   0.023182   1.862230
    6             0.145328   0.000344   0.012922
    7             0.133947   0.000148   0.013515

               ----- POPULATIONS IN EACH AO -----
                             MULLIKEN      LOWDIN
              1  Y  1  S      0.13371     0.07398
              2  Y  1  S     -0.02787     0.00711
              3  Y  1  X      2.02457     1.82176
              4  Y  1  Y      2.02311     1.82153
              5  Y  1  Z      2.02116     1.82071
              6  Y  1  X      0.01910     0.05741
              7  Y  1  Y      0.00698     0.05073
              8  Y  1  Z      0.00169     0.03655
              9  Y  1 XX      0.01071     0.00449
             10  Y  1 YY      0.01090     0.00680
             11  Y  1 ZZ      0.02860     0.00950
             12  Y  1 XY      0.01820     0.02375
             13  Y  1 XZ      0.00623     0.01530
             14  Y  1 YZ      0.00000     0.00523
             15  Y  1 XX      0.03309     0.07772
             16  Y  1 YY      0.03562     0.05713
             17  Y  1 ZZ      0.07379     0.02161
             18  Y  1 XY      0.04633     0.11734
             19  Y  1 XZ      0.02047     0.07174
             20  Y  1 YZ      0.00000     0.02793
             21  Y  1 XX      0.01361     0.04184
             22  Y  1 YY      0.02249     0.03465
             23  Y  1 ZZ      0.01433     0.01636
             24  Y  1 XY      0.01173     0.05320
             25  Y  1 XZ      0.00999     0.03619
             26  Y  1 YZ      0.00000     0.02429
             27  Y  1 XXX     0.01392     0.11944
             28  Y  1 YYY     0.00932     0.11409
             29  Y  1 ZZZ     0.01636     0.09274
             30  Y  1 XXY     0.00627     0.10338
             31  Y  1 XXZ     0.00683     0.07746
             32  Y  1 YYX     0.01512     0.09105
             33  Y  1 YYZ     0.02098     0.05709
             34  Y  1 ZZX     0.00000     0.06820
             35  Y  1 ZZY     0.00000     0.04748
             36  Y  1 XYZ     0.00000     0.03715
             37  O  2  S      2.00206     1.90243
             38  O  2  S      0.81745     0.57202
             39  O  2  S      0.82858     0.42680
             40  O  2  X      0.91396     0.84572
             41  O  2  Y      0.93266     0.86047
             42  O  2  Z      1.02659     0.97128
             43  O  2  X      0.55264     0.57918
             44  O  2  Y      0.58177     0.59685
             45  O  2  Z      0.69656     0.66814
             46  O  2 XX      0.00052     0.17327
             47  O  2 YY      0.00179     0.16851
             48  O  2 ZZ      0.00090     0.16105
             49  O  2 XY      0.00009     0.00265
             50  O  2 XZ      0.00117     0.00015
             51  O  2 YZ      0.00000     0.00289
             52  H  3  S      0.54786     0.45105
             53  H  3  S      0.01430     0.11319
             54  H  3  X      0.00875     0.02740
             55  H  3  Y      0.04090     0.07235
             56  H  3  Z      0.02468     0.05656
             57  H  4  S      0.57990     0.47067
             58  H  4  S      0.00590     0.11324
             59  H  4  X      0.04561     0.08237
             60  H  4  Y      0.02005     0.04415
             61  H  4  Z      0.01229     0.04177
             62  O  5  S      2.00205     1.90212
             63  O  5  S      0.81563     0.57167
             64  O  5  S      0.82807     0.43340
             65  O  5  X      1.01420     0.95944
             66  O  5  Y      0.98367     0.92520
             67  O  5  Z      0.87477     0.79503
             68  O  5  X      0.68545     0.66973
             69  O  5  Y      0.64020     0.63695
             70  O  5  Z      0.51281     0.55591
             71  O  5 XX      0.00026     0.16381
             72  O  5 YY      0.00040     0.16626
             73  O  5 ZZ      0.00051     0.17330
             74  O  5 XY      0.00206     0.00084
             75  O  5 XZ      0.00168     0.00433
             76  O  5 YZ      0.00000     0.00414
             77  H  6  S      0.56905     0.46385
             78  H  6  S      0.01574     0.11333
             79  H  6  X      0.02293     0.05560
             80  H  6  Y      0.01215     0.03901
             81  H  6  Z      0.04225     0.06852
             82  H  7  S      0.57937     0.46995
             83  H  7  S      0.01385     0.11368
             84  H  7  X      0.01526     0.04614
             85  H  7  Y      0.03052     0.06524
             86  H  7  Z      0.03278     0.05544

          ----- MULLIKEN ATOMIC OVERLAP POPULATIONS -----
          (OFF-DIAGONAL ELEMENTS NEED TO BE MULTIPLIED BY 2)

             1           2           3           4           5

    1    6.2827641
    2    0.2179854   7.4646698
    3   -0.0145970   0.3340955   0.3105723
    4   -0.0152206   0.3428254   0.0063749   0.3311575
    5    0.2073720  -0.0022815   0.0000512  -0.0019077   7.4698717
    6   -0.0153284  -0.0001125  -0.0000027   0.0001752   0.3428518
    7   -0.0156253  -0.0004262   0.0000015   0.0003417   0.3458032

             6           7

    6    0.3275098
    7    0.0070279   0.3346474

          TOTAL MULLIKEN AND LOWDIN ATOMIC POPULATIONS
       ATOM         MULL.POP.    CHARGE          LOW.POP.     CHARGE
    1 Y             6.647350    2.352650         7.142935    1.857065
    2 O             8.356756   -0.356756         7.931419    0.068581
    3 H             0.636496    0.363504         0.720559    0.279441
    4 H             0.663746    0.336254         0.752200    0.247800
    5 O             8.361761   -0.361761         7.962134    0.037866
    6 H             0.662121    0.337879         0.740300    0.259700
    7 H             0.671770    0.328230         0.750453    0.249547

          MULLIKEN SPHERICAL HARMONIC POPULATIONS
       ATOM           S       P       D      F      G      H      I    TOTAL
    1 Y             0.11    6.10    0.36   0.09   0.00   0.00   0.00    6.65
    2 O             3.65    4.70    0.00   0.00   0.00   0.00   0.00    8.36
    3 H             0.56    0.07    0.00   0.00   0.00   0.00   0.00    0.64
    4 H             0.59    0.08    0.00   0.00   0.00   0.00   0.00    0.66
    5 O             3.65    4.71    0.00   0.00   0.00   0.00   0.00    8.36
    6 H             0.58    0.08    0.00   0.00   0.00   0.00   0.00    0.66
    7 H             0.59    0.08    0.00   0.00   0.00   0.00   0.00    0.67

          -------------------------------
          BOND ORDER AND VALENCE ANALYSIS     BOND ORDER THRESHOLD=0.050
          -------------------------------

                   BOND                       BOND                       BOND
  ATOM PAIR DIST  ORDER      ATOM PAIR DIST  ORDER      ATOM PAIR DIST  ORDER
    1   2  2.225  0.593        1   5  2.262  0.536        2   3  0.977  0.858
    2   4  0.981  0.881        5   6  0.972  0.881        5   7  0.972  0.888

                       TOTAL       BONDED        FREE
      ATOM            VALENCE     VALENCE     VALENCE
    1 Y                 1.190       1.190      -0.000
    2 O                 2.332       2.332      -0.000
    3 H                 0.889       0.889      -0.000
    4 H                 0.910       0.910      -0.000
    5 O                 2.303       2.303      -0.000
    6 H                 0.911       0.911       0.000
    7 H                 0.918       0.918       0.000

          ---------------------
          ELECTROSTATIC MOMENTS
          ---------------------

 POINT   1           X           Y           Z (BOHR)    CHARGE
                -0.750666   -0.842823   -0.029023        3.00 (A.U.)
         DX          DY          DZ         /D/  (DEBYE)
    -0.257581   -0.059879   -0.035253    0.266789
 ...... END OF PROPERTY EVALUATION ......
 STEP CPU TIME =     0.02 TOTAL CPU TIME =       26.1 (    0.4 MIN)
 TOTAL WALL CLOCK TIME=       26.2 SECONDS, CPU UTILIZATION IS  99.66%
  $VIB   
          IVIB=   0 IATOM=   0 ICOORD=   0 E=     -175.1756340135
  1.079474688E-02 8.972696603E-03 2.915665642E-04 1.265438162E-04-2.118695371E-02
  1.253832261E-02 5.301192343E-03 2.898165547E-02-1.745059123E-02-8.479485086E-03
 -1.138240569E-02 5.210503759E-03 1.009548430E-02 1.034040081E-03-5.674814202E-03
 -1.232990953E-02-9.273010861E-04 1.571816102E-02-5.508572723E-03-5.491731666E-03
 -1.063314852E-02
 -2.575810228E-01-5.987889859E-02-3.525288960E-02
 ......END OF GEOMETRY SEARCH......
 STEP CPU TIME =     0.00 TOTAL CPU TIME =       26.1 (    0.4 MIN)
 TOTAL WALL CLOCK TIME=       26.2 SECONDS, CPU UTILIZATION IS  99.66%
              2604575  WORDS OF DYNAMIC MEMORY USED
 EXECUTION OF GAMESS TERMINATED NORMALLY Fri Jun  2 01:37:23 2017
 DDI: 263640 bytes (0.3 MB / 0 MWords) used by master data server.

 ----------------------------------------
 CPU timing information for all processes
 ========================================
 0: 25.325 + 0.830 = 26.156
 ----------------------------------------
 ddikick.x: exited gracefully.
unset echo
----- accounting info -----
Files used on the master node compute-0-2.local were:
-rw-rw-r-- 1 sarom sarom     5600 Jun  2 01:36 /scratch/mcp-y-wat2-rhf.F05
-rw-rw-r-- 1 sarom sarom 71826384 Jun  2 01:37 /scratch/mcp-y-wat2-rhf.F08
-rw-rw-r-- 1 sarom sarom  1865040 Jun  2 01:37 /scratch/mcp-y-wat2-rhf.F10
rm: cannot remove `/scratch/sarom': Is a directory
rm: cannot remove `/scratch/tmp': Is a directory
ls: No match.
ls: No match.
ls: No match.
Fri Jun  2 01:37:26 CDT 2017
0.155u 0.069s 0:29.54 0.7%	0+0k 16+384io 0pf+0w
Deleting shmid=3964928.
Deleting shmid=3997697.
Deleting shmid=4227074.
/opt/gridengine/default/spool/compute-0-2/active_jobs/23615.1/pe_hostfile compute-0-2.local
