-catch_rsh /opt/gridengine/default/spool/compute-0-8/active_jobs/23609.1/pe_hostfile
compute-0-8
The primary node assigned by SGE to this run is compute-0-8
Warning: no access to tty (Bad file descriptor).
Thus no job control in this shell.
Deleting shmid=2785280.
Deleting shmid=2818049.
source /home/sarom/gamess.github.2017-05-31.14.06/install.info
setenv GMS_PATH /home/sarom/gamess.github.2017-05-31.14.06
setenv GMS_BUILD_DIR /home/sarom/gamess.github.2017-05-31.14.06
setenv GMS_TARGET linux64
setenv GMS_FORTRAN gfortran
setenv GMS_GFORTRAN_VERNO 4.4
setenv GMS_MATHLIB mkl-so
setenv GMS_MATHLIB_PATH /share/apps/intel/compilers_and_libraries_2017.1.132/linux/mkl/lib/intel64
setenv GMS_MKL_VERNO 12
setenv GMS_DDI_COMM sockets
setenv GMS_LIBCCHEM false
setenv GMS_EIGEN_PATH
setenv GMS_PHI false
setenv GMS_SHMTYPE sysv
setenv GMS_OPENMP false
unset echo
mcp-ir4co12
tests/mcp
----- GAMESS execution script 'rungms' -----
This job is running on host compute-0-8.local
under operating system Linux at Fri Jun 2 01:35:42 CDT 2017
Available scratch disk space (Kbyte units) at beginning of the job is
Filesystem           1K-blocks      Used Available Use% Mounted on
/dev/sda1             16126920   3867344  11440376  26% /
GAMESS temporary binary files will be written to /scratch
GAMESS supplementary output files will be written to /home/sarom/restart
Copying input file mcp-ir4co12.inp to your run's scratch directory...
cp tests/mcp/mcp-ir4co12.inp /scratch/mcp-ir4co12.F05
unset echo
The generated host list is
compute-0-8.local
/home/sarom/gamess.github.2017-05-31.14.06/ddikick.x /home/sarom/gamess.github.2017-05-31.14.06/gamess.00.x mcp-ir4co12 -ddi 1 1 compute-0-8.local -scr /scratch

 Distributed Data Interface kickoff program.
 Initiating 1 compute processes on 1 nodes to run the following command:
 /home/sarom/gamess.github.2017-05-31.14.06/gamess.00.x mcp-ir4co12 

          ******************************************************
          *         GAMESS VERSION = 20 APR 2017 (R1)          *
          *             FROM IOWA STATE UNIVERSITY             *
          * M.W.SCHMIDT, K.K.BALDRIDGE, J.A.BOATZ, S.T.ELBERT, *
          *   M.S.GORDON, J.H.JENSEN, S.KOSEKI, N.MATSUNAGA,   *
          *          K.A.NGUYEN, S.J.SU, T.L.WINDUS,           *
          *       TOGETHER WITH M.DUPUIS, J.A.MONTGOMERY       *
          *         J.COMPUT.CHEM.  14, 1347-1363(1993)        *
          **************** 64 BIT LINUX VERSION ****************

  SINCE 1993, STUDENTS AND POSTDOCS WORKING AT IOWA STATE UNIVERSITY
  AND ALSO IN THEIR VARIOUS JOBS AFTER LEAVING ISU HAVE MADE IMPORTANT
  CONTRIBUTIONS TO THE CODE:
     IVANA ADAMOVIC, CHRISTINE AIKENS, YURI ALEXEEV, POOJA ARORA,
     ANDREY ASADCHEV, ROB BELL, PRADIPTA BANDYOPADHYAY, JONATHAN BENTZ,
     BRETT BODE, KURT BRORSEN, CALEB CARLIN, GALINA CHABAN, WEI CHEN,
     CHEOL HO CHOI, PAUL DAY, ALBERT DEFUSCO, NUWAN DESILVA, TIM DUDLEY,
     DMITRI FEDOROV, GRAHAM FLETCHER, MARK FREITAG, KURT GLAESEMANN,
     DAN KEMP, GRANT MERRILL, NORIYUKI MINEZAWA, JONATHAN MULLIN,
     TAKESHI NAGATA, SEAN NEDD, HEATHER NETZLOFF, BOSILJKA NJEGIC, RYAN OLSON,
     MIKE PAK, SPENCER PRUITT, LUKE ROSKOP, JIM SHOEMAKER, LYUDMILA SLIPCHENKO,
     TONY SMITH, SAROM SOK LEANG, JIE SONG, TETSUYA TAKETSUGU, SIMON WEBB,
     PENG XU, SOOHAENG YOO, FEDERICO ZAHARIEV

  ADDITIONAL CODE HAS BEEN PROVIDED BY COLLABORATORS IN OTHER GROUPS:
     IOWA STATE UNIVERSITY:
          JOE IVANIC, AARON WEST, LAIMUTIS BYTAUTAS, KLAUS RUEDENBERG
     UNIVERSITY OF TOKYO: KIMIHIKO HIRAO, TAKAHITO NAKAJIMA,
          TAKAO TSUNEDA, MUNEAKI KAMIYA, SUSUMU YANAGISAWA,
          KIYOSHI YAGI, MAHITO CHIBA, SEIKEN TOKURA, NAOAKI KAWAKAMI
     UNIVERSITY OF AARHUS: FRANK JENSEN
     UNIVERSITY OF IOWA: VISVALDAS KAIRYS, HUI LI
     NATIONAL INST. OF STANDARDS AND TECHNOLOGY: WALT STEVENS, DAVID GARMER
     UNIVERSITY OF PISA: BENEDETTA MENNUCCI, JACOPO TOMASI
     UNIVERSITY OF MEMPHIS: HENRY KURTZ, PRAKASHAN KORAMBATH
     UNIVERSITY OF ALBERTA: TOBY ZENG, MARIUSZ KLOBUKOWSKI
     UNIVERSITY OF NEW ENGLAND: MARK SPACKMAN
     MIE UNIVERSITY: HIROAKI UMEDA
     NAT. INST. OF ADVANCED INDUSTRIAL SCIENCE AND TECHNOLOGY: KAZUO KITAURA
     MICHIGAN STATE UNIVERSITY:
          KAROL KOWALSKI, MARTA WLOCH, JEFFREY GOUR, JESSE LUTZ,
          WEI LI, PIOTR PIECUCH
     UNIVERSITY OF SILESIA: MONIKA MUSIAL, STANISLAW KUCHARSKI
     FACULTES UNIVERSITAIRES NOTRE-DAME DE LA PAIX:
          OLIVIER QUINET, BENOIT CHAMPAGNE
     UNIVERSITY OF CALIFORNIA - SANTA BARBARA: BERNARD KIRTMAN
     INSTITUTE FOR MOLECULAR SCIENCE:
          KAZUYA ISHIMURA, MICHIO KATOUDA, AND SHIGERU NAGASE
     UNIVERSITY OF NOTRE DAME: ANNA POMOGAEVA, DAN CHIPMAN
     KYUSHU UNIVERSITY:
          HARUYUKI NAKANO,
          FENG LONG GU, JACEK KORCHOWIEC, MARCIN MAKOWSKI, AND YURIKO AOKI,
          HIROTOSHI MORI AND EISAKU MIYOSHI
     PENNSYLVANIA STATE UNIVERSITY:
          TZVETELIN IORDANOV, CHET SWALINA, JONATHAN SKONE,
          SHARON HAMMES-SCHIFFER
     WASEDA UNIVERSITY:
          MASATO KOBAYASHI, TOMOKO AKAMA, TSUGUKI TOUMA,
          TAKESHI YOSHIKAWA, YASUHIRO IKABATA, JUNJI SEINO,
          YUYA NAKAJIMA, HIROMI NAKAI
     NANJING UNIVERSITY: SHUHUA LI
     UNIVERSITY OF NEBRASKA:
          PEIFENG SU, DEJUN SI, NANDUN THELLAMUREGE, YALI WANG, HUI LI
     UNIVERSITY OF ZURICH: ROBERTO PEVERATI, KIM BALDRIDGE
     N. COPERNICUS UNIVERSITY AND JACKSON STATE UNIVERSITY:
          MARIA BARYSZ
     UNIVERSITY OF COPENHAGEN: Jimmy Kromann, CASPER STEINMANN
     TOKYO INSTITUTE OF TECHNOLOGY: HIROYA NAKATA
     NAGOYA UNIVERSITY: YOSHIO NISHIMOTO, STEPHAN IRLE
     MOSCOW STATE UNIVERSITY: VLADIMIR MIRONOV

 EXECUTION OF GAMESS BEGUN Fri Jun  2 01:35:42 2017

            ECHO OF THE FIRST FEW INPUT CARDS -
 INPUT CARD>!    test of potentials and basis sets on the Ir4(CO)12 cluster                 
 INPUT CARD>!    The calculations use the same all-electron 6-31G(d) for C and O.           
 INPUT CARD>!                                                                               
 INPUT CARD>!    FINAL E= 1659.1309107544, 14 iters, RMS grad= 0.000001684                  
 INPUT CARD>!                                                                               
 INPUT CARD>!    this test takes 90 seconds on 2.66 GHz Cloverton ( 7 Apr 2015)             
 INPUT CARD>!    answers unchanged since 2008                                               
 INPUT CARD>!                                                                               
 INPUT CARD>!    Compare to crystal structure given by                                      
 INPUT CARD>!    M.R.Churchill, J.P.Hutchinson  Inorg.Chem. 17, 3528-3535(1978)             
 INPUT CARD>!    avg r(IrIr)=2.693  avg r(IrC)=1.87  assumed r(CO)=1.14, aIrCO=180          
 INPUT CARD>!                                                                               
 INPUT CARD>!    R.Ros, A.Tassen, R.Scopellito, R.Roulet                                    
 INPUT CARD>!    Inorg.Chim.Acta 358, 2327-2331(2005) solved Ir4(CO)11(NC5H4CH3)            
 INPUT CARD>!    with avg IrIr=2.6868, avg Ir-C=1.914, avg CO=1.137, avg IrCO=178.1         
 INPUT CARD>!                                                                               
 INPUT CARD>!    There are a variety of MCP and ECP calculations here, namely               
 INPUT CARD>!    4 different DATA and 2 different MCP groups and an ECP group.              
 INPUT CARD>!    To use Model Core Potentials, use mcp=read and the appropriate             
 INPUT CARD>!    potential (2 choices), and the desired basis set (3 choices).              
 INPUT CARD>!    To use Effective core potential, use mcp=read and select the               
 INPUT CARD>!    correct basis set and potential group.                                     
 INPUT CARD>!                                                                               
 INPUT CARD>!               #AOs #MOs  r(IrIr)  r(IrC)  r(CO)   a(IrCO)                     
 INPUT CARD>!    SBKJC      496  460    2.704   1.964   1.120   179.07 (*)                  
 INPUT CARD>!    IMCP-SR1   468  432    2.684   1.985   1.118   178.14                      
 INPUT CARD>!    IMCP-SR2   508  460    2.681   1.980   1.118   178.12                      
 INPUT CARD>!    MCP-TZP    504  456    2.708   1.961   1.120   178.78                      
 INPUT CARD>!      these use RHF.  First two are s,p,d metal bases, last two add f's        
 INPUT CARD>!    IMCP-SR2 using PBE     2.698   1.902   1.164   179.68                      
 INPUT CARD>!                                                                               
 INPUT CARD>!    (*) ECP shown by analytic hessian to be positive definite,                 
 INPUT CARD>!    with the vibrational spectra running                                       
 INPUT CARD>!        36.7, 54.0(3), 67.4(2) ... 2372.8(3), 2415.5 cm-1                      
 INPUT CARD>!    the ECP hessian took 5936 s.conds on 2.66 GHz Cloverton.                   
 INPUT CARD>!                                                                               
 INPUT CARD> $contrl scftyp=rhf mplevl=0 runtyp=gradient pp=mcp ispher=1 $end               
 INPUT CARD> $system mwords=40 $end                                                         
 INPUT CARD> $scf    rstrct=.false. ethrsh=2.0 $end                                         
 INPUT CARD> $guess  guess=huckel $end                                                      
 INPUT CARD> $cphf   cphf=ao $end                                                           
 INPUT CARD>x$mp2    nacore=36 code=ims $end    (400 Mwords/process needed)                 
 INPUT CARD>                                                                                
 INPUT CARD>----- Ir=IMCP-SR1, C,O=6-31G(d):   RHF                                          
 INPUT CARD>IR         77.0   0.9488831296   0.9488831296   0.9488831296                    
 INPUT CARD>C           6.0   2.2092984232   0.0748507999   2.2092984232                    
 INPUT CARD>O           8.0   2.9076750079  -0.4498362390   2.9076750079                    
 INPUT CARD>                                                                                
 INPUT CARD>----- Ir=IMCP-SR2, C,O=6-31G(d):   RHF                                          
 INPUT CARD>IR         77.0   0.9478003335   0.9478003335   0.9478003335                    
   40000000 WORDS OF MEMORY AVAILABLE


     RUN TITLE
     ---------
 Ir4(CO)12 cluster...IMCP-SR1 basis set on Ir                                    

 THE POINT GROUP OF THE MOLECULE IS TD      
 THE ORDER OF THE PRINCIPAL AXIS IS     0

     MODEL-POTENTIAL ATOMS
     ---------------------

 ATOM     ATOMIC   CORE-   TYPE   VALENCE-       CONTRACTION
          CHARGE ELECTRONS        SHELLS

 IR         77                    MODEL-POTENTIAL IN $MCP GROUP

 *** WARNING! ATOM   1 SHELL    1 TYPE S HAS NORMALIZATION   2.04077829
 *** WARNING! ATOM   1 SHELL    6 TYPE D HAS NORMALIZATION   1.28715761

 ATOM      ATOMIC                      COORDINATES (BOHR)
           CHARGE         X                   Y                   Z
 IR         77.0     1.7931291093       -1.7931291093       -1.7931291093
 IR         77.0    -1.7931291093        1.7931291093       -1.7931291093
 IR         77.0    -1.7931291093       -1.7931291093        1.7931291093
 IR         77.0     1.7931291093        1.7931291093        1.7931291093
 C           6.0     4.1749686450       -0.1414475018       -4.1749686450
 C           6.0    -4.1749686450        0.1414475018       -4.1749686450
 C           6.0    -4.1749686450       -0.1414475018        4.1749686450
 C           6.0     4.1749686450        4.1749686450        0.1414475018
 C           6.0    -4.1749686450        4.1749686450       -0.1414475018
 C           6.0    -4.1749686450       -4.1749686450        0.1414475018
 C           6.0     4.1749686450       -4.1749686450       -0.1414475018
 C           6.0     0.1414475018        4.1749686450        4.1749686450
 C           6.0    -0.1414475018       -4.1749686450        4.1749686450
 C           6.0     0.1414475018       -4.1749686450       -4.1749686450
 C           6.0    -0.1414475018        4.1749686450       -4.1749686450
 C           6.0     4.1749686450        0.1414475018        4.1749686450
 O           8.0     5.4947090263        0.8500672311       -5.4947090263
 O           8.0    -5.4947090263       -0.8500672311       -5.4947090263
 O           8.0    -5.4947090263        0.8500672311        5.4947090263
 O           8.0     5.4947090263        5.4947090263       -0.8500672311
 O           8.0    -5.4947090263        5.4947090263        0.8500672311
 O           8.0    -5.4947090263       -5.4947090263       -0.8500672311
 O           8.0     5.4947090263       -5.4947090263        0.8500672311
 O           8.0    -0.8500672311        5.4947090263        5.4947090263
 O           8.0     0.8500672311       -5.4947090263        5.4947090263
 O           8.0    -0.8500672311       -5.4947090263       -5.4947090263
 O           8.0     0.8500672311        5.4947090263       -5.4947090263
 O           8.0     5.4947090263       -0.8500672311        5.4947090263

          INTERNUCLEAR DISTANCES (ANGS.)
          ------------------------------

                1 IR         2 IR         3 IR         4 IR         5 C     

   1 IR      0.0000000    2.6838468 *  2.6838468 *  2.6838468 *  1.9852521 *
   2 IR      2.6838468 *  0.0000000    2.6838468 *  2.6838468 *  3.5511672  
   3 IR      2.6838468 *  2.6838468 *  0.0000000    2.6838468 *  4.5510608  
   4 IR      2.6838468 *  2.6838468 *  2.6838468 *  0.0000000    3.5511672  
   5 C       1.9852521 *  3.5511672    4.5510608    3.5511672    0.0000000  
   6 C       3.5511672    1.9852521 *  3.5511672    4.5510608    4.4211321  
   7 C       4.5510608    3.5511672    1.9852521 *  3.5511672    6.2488396  
   8 C       3.5511672    3.5511672    4.5510608    1.9852521 *  3.2302748  
   9 C       4.5510608    1.9852521 *  3.5511672    3.5511672    5.4126890  
  10 C       3.5511672    3.5511672    1.9852521 *  4.5510608    5.4126890  
  11 C       1.9852521 *  4.5510608    3.5511672    3.5511672    3.0185648  
  12 C       4.5510608    3.5511672    3.5511672    1.9852521 *  5.4126890  
  13 C       3.5511672    4.5510608    1.9852521 *  3.5511672    5.4126890  
  14 C       1.9852521 *  3.5511672    3.5511672    4.5510608    3.0185648  
  15 C       3.5511672    1.9852521 *  4.5510608    3.5511672    3.2302748  
  16 C       3.5511672    4.5510608    3.5511672    1.9852521 *  4.4211321  
  17 O       3.1032478    4.3541881    5.6304971    4.3541881    1.1183721 *
  18 O       4.3541881    3.1032478    4.3541881    5.6304971    5.1780074  
  19 O       5.6304971    4.3541881    3.1032478    4.3541881    7.2554897  
  20 O       4.3541881    4.3541881    5.6304971    3.1032478    3.5325483  
  21 O       5.6304971    3.1032478    4.3541881    4.3541881    6.4922935  
  22 O       4.3541881    4.3541881    3.1032478    5.6304971    6.1077015  
  23 O       3.1032478    5.6304971    4.3541881    4.3541881    3.9476094  
  24 O       5.6304971    4.3541881    4.3541881    3.1032478    6.4922935  
  25 O       4.3541881    5.6304971    3.1032478    4.3541881    6.1077015  
  26 O       3.1032478    4.3541881    4.3541881    5.6304971    3.9476094  
  27 O       4.3541881    3.1032478    5.6304971    4.3541881    3.5325483  
  28 O       4.3541881    5.6304971    4.3541881    3.1032478    5.1780074  

                6 C          7 C          8 C          9 C         10 C     

   1 IR      3.5511672    4.5510608    3.5511672    4.5510608    3.5511672  
   2 IR      1.9852521 *  3.5511672    3.5511672    1.9852521 *  3.5511672  
   3 IR      3.5511672    1.9852521 *  4.5510608    3.5511672    1.9852521 *
   4 IR      4.5510608    3.5511672    1.9852521 *  3.5511672    4.5510608  
   5 C       4.4211321    6.2488396    3.2302748    5.4126890    5.4126890  
   6 C       0.0000000    4.4211321    5.4126890    3.0185648    3.2302748  
   7 C       4.4211321    0.0000000    5.4126890    3.2302748    3.0185648  
   8 C       5.4126890    5.4126890    0.0000000    4.4211321    6.2488396  
   9 C       3.0185648    3.2302748    4.4211321    0.0000000    4.4211321  
  10 C       3.2302748    3.0185648    6.2488396    4.4211321    0.0000000  
  11 C       5.4126890    5.4126890    4.4211321    6.2488396    4.4211321  
  12 C       5.4126890    3.2302748    3.0185648    3.2302748    5.4126890  
  13 C       5.4126890    3.0185648    5.4126890    5.4126890    3.0185648  
  14 C       3.2302748    5.4126890    5.4126890    5.4126890    3.2302748  
  15 C       3.0185648    5.4126890    3.2302748    3.0185648    5.4126890  
  16 C       6.2488396    4.4211321    3.0185648    5.4126890    5.4126890  
  17 O       5.1780074    7.2554897    3.5325483    6.1077015    6.4922935  
  18 O       1.1183721 *  5.1780074    6.4922935    3.9476094    3.5325483  
  19 O       5.1780074    1.1183721 *  6.1077015    3.5325483    3.9476094  
  20 O       6.1077015    6.4922935    1.1183721 *  5.1780074    7.2554897  
  21 O       3.9476094    3.5325483    5.1780074    1.1183721 *  5.1780074  
  22 O       3.5325483    3.9476094    7.2554897    5.1780074    1.1183721 *
  23 O       6.4922935    6.1077015    5.1780074    7.2554897    5.1780074  
  24 O       6.1077015    3.5325483    3.9476094    3.5325483    6.1077015  
  25 O       6.4922935    3.9476094    6.1077015    6.4922935    3.9476094  
  26 O       3.5325483    6.1077015    6.4922935    6.1077015    3.5325483  
  27 O       3.9476094    6.4922935    3.5325483    3.9476094    6.4922935  
  28 O       7.2554897    5.1780074    3.9476094    6.4922935    6.1077015  

               11 C         12 C         13 C         14 C         15 C     

   1 IR      1.9852521 *  4.5510608    3.5511672    1.9852521 *  3.5511672  
   2 IR      4.5510608    3.5511672    4.5510608    3.5511672    1.9852521 *
   3 IR      3.5511672    3.5511672    1.9852521 *  3.5511672    4.5510608  
   4 IR      3.5511672    1.9852521 *  3.5511672    4.5510608    3.5511672  
   5 C       3.0185648    5.4126890    5.4126890    3.0185648    3.2302748  
   6 C       5.4126890    5.4126890    5.4126890    3.2302748    3.0185648  
   7 C       5.4126890    3.2302748    3.0185648    5.4126890    5.4126890  
   8 C       4.4211321    3.0185648    5.4126890    5.4126890    3.2302748  
   9 C       6.2488396    3.2302748    5.4126890    5.4126890    3.0185648  
  10 C       4.4211321    5.4126890    3.0185648    3.2302748    5.4126890  
  11 C       0.0000000    5.4126890    3.2302748    3.0185648    5.4126890  
  12 C       5.4126890    0.0000000    4.4211321    6.2488396    4.4211321  
  13 C       3.2302748    4.4211321    0.0000000    4.4211321    6.2488396  
  14 C       3.0185648    6.2488396    4.4211321    0.0000000    4.4211321  
  15 C       5.4126890    4.4211321    6.2488396    4.4211321    0.0000000  
  16 C       3.2302748    3.0185648    3.2302748    5.4126890    5.4126890  
  17 O       3.9476094    6.1077015    6.4922935    3.9476094    3.5325483  
  18 O       6.1077015    6.4922935    6.1077015    3.5325483    3.9476094  
  19 O       6.4922935    3.5325483    3.9476094    6.4922935    6.1077015  
  20 O       5.1780074    3.9476094    6.4922935    6.1077015    3.5325483  
  21 O       7.2554897    3.5325483    6.1077015    6.4922935    3.9476094  
  22 O       5.1780074    6.4922935    3.9476094    3.5325483    6.1077015  
  23 O       1.1183721 *  6.1077015    3.5325483    3.9476094    6.4922935  
  24 O       6.4922935    1.1183721 *  5.1780074    7.2554897    5.1780074  
  25 O       3.5325483    5.1780074    1.1183721 *  5.1780074    7.2554897  
  26 O       3.9476094    7.2554897    5.1780074    1.1183721 *  5.1780074  
  27 O       6.1077015    5.1780074    7.2554897    5.1780074    1.1183721 *
  28 O       3.5325483    3.9476094    3.5325483    6.1077015    6.4922935  

               16 C         17 O         18 O         19 O         20 O     

   1 IR      3.5511672    3.1032478    4.3541881    5.6304971    4.3541881  
   2 IR      4.5510608    4.3541881    3.1032478    4.3541881    4.3541881  
   3 IR      3.5511672    5.6304971    4.3541881    3.1032478    5.6304971  
   4 IR      1.9852521 *  4.3541881    5.6304971    4.3541881    3.1032478  
   5 C       4.4211321    1.1183721 *  5.1780074    7.2554897    3.5325483  
   6 C       6.2488396    5.1780074    1.1183721 *  5.1780074    6.1077015  
   7 C       4.4211321    7.2554897    5.1780074    1.1183721 *  6.4922935  
   8 C       3.0185648    3.5325483    6.4922935    6.1077015    1.1183721 *
   9 C       5.4126890    6.1077015    3.9476094    3.5325483    5.1780074  
  10 C       5.4126890    6.4922935    3.5325483    3.9476094    7.2554897  
  11 C       3.2302748    3.9476094    6.1077015    6.4922935    5.1780074  
  12 C       3.0185648    6.1077015    6.4922935    3.5325483    3.9476094  
  13 C       3.2302748    6.4922935    6.1077015    3.9476094    6.4922935  
  14 C       5.4126890    3.9476094    3.5325483    6.4922935    6.1077015  
  15 C       5.4126890    3.5325483    3.9476094    6.1077015    3.5325483  
  16 C       0.0000000    5.1780074    7.2554897    5.1780074    3.9476094  
  17 O       5.1780074    0.0000000    5.8845311    8.2241469    3.4759089  
  18 O       7.2554897    5.8845311    0.0000000    5.8845311    7.1506747  
  19 O       5.1780074    8.2241469    5.8845311    0.0000000    7.1506747  
  20 O       3.9476094    3.4759089    7.1506747    7.1506747    0.0000000  
  21 O       6.1077015    7.1506747    4.7482379    3.4759089    5.8845311  
  22 O       6.4922935    7.1506747    3.4759089    4.7482379    8.2241469  
  23 O       3.5325483    4.7482379    7.1506747    7.1506747    5.8845311  
  24 O       3.9476094    7.1506747    7.1506747    3.4759089    4.7482379  
  25 O       3.5325483    7.1506747    7.1506747    4.7482379    7.1506747  
  26 O       6.4922935    4.7482379    3.4759089    7.1506747    7.1506747  
  27 O       6.1077015    3.4759089    4.7482379    7.1506747    3.4759089  
  28 O       1.1183721 *  5.8845311    8.2241469    5.8845311    4.7482379  

               21 O         22 O         23 O         24 O         25 O     

   1 IR      5.6304971    4.3541881    3.1032478    5.6304971    4.3541881  
   2 IR      3.1032478    4.3541881    5.6304971    4.3541881    5.6304971  
   3 IR      4.3541881    3.1032478    4.3541881    4.3541881    3.1032478  
   4 IR      4.3541881    5.6304971    4.3541881    3.1032478    4.3541881  
   5 C       6.4922935    6.1077015    3.9476094    6.4922935    6.1077015  
   6 C       3.9476094    3.5325483    6.4922935    6.1077015    6.4922935  
   7 C       3.5325483    3.9476094    6.1077015    3.5325483    3.9476094  
   8 C       5.1780074    7.2554897    5.1780074    3.9476094    6.1077015  
   9 C       1.1183721 *  5.1780074    7.2554897    3.5325483    6.4922935  
  10 C       5.1780074    1.1183721 *  5.1780074    6.1077015    3.9476094  
  11 C       7.2554897    5.1780074    1.1183721 *  6.4922935    3.5325483  
  12 C       3.5325483    6.4922935    6.1077015    1.1183721 *  5.1780074  
  13 C       6.1077015    3.9476094    3.5325483    5.1780074    1.1183721 *
  14 C       6.4922935    3.5325483    3.9476094    7.2554897    5.1780074  
  15 C       3.9476094    6.1077015    6.4922935    5.1780074    7.2554897  
  16 C       6.1077015    6.4922935    3.5325483    3.9476094    3.5325483  
  17 O       7.1506747    7.1506747    4.7482379    7.1506747    7.1506747  
  18 O       4.7482379    3.4759089    7.1506747    7.1506747    7.1506747  
  19 O       3.4759089    4.7482379    7.1506747    3.4759089    4.7482379  
  20 O       5.8845311    8.2241469    5.8845311    4.7482379    7.1506747  
  21 O       0.0000000    5.8845311    8.2241469    3.4759089    7.1506747  
  22 O       5.8845311    0.0000000    5.8845311    7.1506747    4.7482379  
  23 O       8.2241469    5.8845311    0.0000000    7.1506747    3.4759089  
  24 O       3.4759089    7.1506747    7.1506747    0.0000000    5.8845311  
  25 O       7.1506747    4.7482379    3.4759089    5.8845311    0.0000000  
  26 O       7.1506747    3.4759089    4.7482379    8.2241469    5.8845311  
  27 O       4.7482379    7.1506747    7.1506747    5.8845311    8.2241469  
  28 O       7.1506747    7.1506747    3.4759089    4.7482379    3.4759089  

               26 O         27 O         28 O     

   1 IR      3.1032478    4.3541881    4.3541881  
   2 IR      4.3541881    3.1032478    5.6304971  
   3 IR      4.3541881    5.6304971    4.3541881  
   4 IR      5.6304971    4.3541881    3.1032478  
   5 C       3.9476094    3.5325483    5.1780074  
   6 C       3.5325483    3.9476094    7.2554897  
   7 C       6.1077015    6.4922935    5.1780074  
   8 C       6.4922935    3.5325483    3.9476094  
   9 C       6.1077015    3.9476094    6.4922935  
  10 C       3.5325483    6.4922935    6.1077015  
  11 C       3.9476094    6.1077015    3.5325483  
  12 C       7.2554897    5.1780074    3.9476094  
  13 C       5.1780074    7.2554897    3.5325483  
  14 C       1.1183721 *  5.1780074    6.1077015  
  15 C       5.1780074    1.1183721 *  6.4922935  
  16 C       6.4922935    6.1077015    1.1183721 *
  17 O       4.7482379    3.4759089    5.8845311  
  18 O       3.4759089    4.7482379    8.2241469  
  19 O       7.1506747    7.1506747    5.8845311  
  20 O       7.1506747    3.4759089    4.7482379  
  21 O       7.1506747    4.7482379    7.1506747  
  22 O       3.4759089    7.1506747    7.1506747  
  23 O       4.7482379    7.1506747    3.4759089  
  24 O       8.2241469    5.8845311    4.7482379  
  25 O       5.8845311    8.2241469    3.4759089  
  26 O       0.0000000    5.8845311    7.1506747  
  27 O       5.8845311    0.0000000    7.1506747  
  28 O       7.1506747    7.1506747    0.0000000  

  * ... LESS THAN  3.000


     ATOMIC BASIS SET
     ----------------
 THE CONTRACTED PRIMITIVE FUNCTIONS HAVE BEEN UNNORMALIZED
 THE CONTRACTED BASIS FUNCTIONS ARE NOW NORMALIZED TO UNITY

  SHELL TYPE  PRIMITIVE        EXPONENT          CONTRACTION COEFFICIENT(S)

 IR        

     25   S       1          1811.7393400   -0.022572514016
     25   S       2           160.0656320    0.102155661460
     25   S       3            26.9096550   -0.329419007650
     25   S       4             6.1663633    0.669899335684
     25   S       5             0.9691236   -1.230589825030

     26   S       6             0.1016770    1.000000000000

     27   S       7             0.0379760    1.000000000000

     28   P       8          1085.9504800   -0.019425196209
     28   P       9           301.0060490   -0.070510621931
     28   P      10            41.4491031    0.254291895112
     28   P      11             7.2772658   -0.570336712251
     28   P      12             1.2182906    0.827311503365
     28   P      13             0.4469881    0.302973227134

     29   P      14             0.1108627    1.000000000000

     30   D      15           103.6543070    0.119009576505
     30   D      16             8.5752546   -0.323553785524
     30   D      17             1.2978859    0.528275589985
     30   D      18             0.5305834    0.552743444359

     31   D      19             0.2133150    1.000000000000

     32   D      20             0.0816659    1.000000000000

 C         

     77   S      21          3047.5248800    0.001834737132
     77   S      22           457.3695180    0.014037322813
     77   S      23           103.9486850    0.068842622264
     77   S      24            29.2101553    0.232184443216
     77   S      25             9.2866630    0.467941348435
     77   S      26             3.1639270    0.362311985337

     78   L      27             7.8682723   -0.119332419775    0.068999066591
     78   L      28             1.8812885   -0.160854151696    0.316423960957
     78   L      29             0.5442493    1.143456437840    0.744308290898

     79   L      30             0.1687145    1.000000000000    1.000000000000

     80   D      31             0.8000000    1.000000000000

 O         

    125   S      32          5484.6716600    0.001831074430
    125   S      33           825.2349460    0.013950172200
    125   S      34           188.0469580    0.068445078098
    125   S      35            52.9645000    0.232714335992
    125   S      36            16.8975704    0.470192897984
    125   S      37             5.7996353    0.358520852987

    126   L      38            15.5396162   -0.110777549525    0.070874268231
    126   L      39             3.5999336   -0.148026262701    0.339752839147
    126   L      40             1.0137618    1.130767015354    0.727158577316

    127   L      41             0.2700058    1.000000000000    1.000000000000

    128   D      42             0.8000000    1.000000000000

 TOTAL NUMBER OF BASIS SET SHELLS             =  128
 NUMBER OF CARTESIAN GAUSSIAN BASIS FUNCTIONS =  468
 NOTE: THIS RUN WILL RESTRICT THE MO VARIATION SPACE TO SPHERICAL HARMONICS.
 THE NUMBER OF ORBITALS KEPT IN THE VARIATIONAL SPACE WILL BE PRINTED LATER.
 NUMBER OF ELECTRONS                          =  476
 CHARGE OF MOLECULE                           =    0
 SPIN MULTIPLICITY                            =    1
 NUMBER OF OCCUPIED ORBITALS (ALPHA)          =  238
 NUMBER OF OCCUPIED ORBITALS (BETA )          =  238
 TOTAL NUMBER OF ATOMS                        =   28
 THE NUCLEAR REPULSION ENERGY IS    16204.7545947578
 NOTE THIS RUN IS USING CORE POTENTIALS, AND THE NUMBER OF ELECTRONS,
 OCCUPIED ORBITALS, AND NUCLEAR REPULSION ENERGY WILL BE ADJUSTED BELOW
 AFTER REMOVAL OF THE CORE CHARGES.

     $CONTRL OPTIONS
     ---------------
 SCFTYP=RHF          RUNTYP=GRADIENT     EXETYP=RUN     
 MPLEVL=       0     CITYP =NONE         CCTYP =NONE         VBTYP =NONE    
 DFTTYP=NONE         TDDFT =NONE    
 MULT  =       1     ICHARG=       0     NZVAR =       0     COORD =UNIQUE  
 PP    =MCP          RELWFN=NONE         LOCAL =NONE         NUMGRD=       F
 ISPHER=       1     NOSYM =       0     MAXIT =      30     UNITS =ANGS    
 PLTORB=       F     MOLPLT=       F     AIMPAC=       F     FRIEND=        
 NPRINT=       7     IREST =       0     GEOM  =INPUT   
 NORMF =       0     NORMP =       0     ITOL  =      20     ICUT  =       9
 INTTYP=BEST         GRDTYP=BEST         QMTTOL= 1.0E-06

     $SYSTEM OPTIONS
     ---------------
  REPLICATED MEMORY=    40000000 WORDS (ON EVERY NODE).
 DISTRIBUTED MEMDDI=           0 MILLION WORDS IN AGGREGATE,
 MEMDDI DISTRIBUTED OVER   1 PROCESSORS IS           0 WORDS/PROCESSOR.
 TOTAL MEMORY REQUESTED ON EACH PROCESSOR=    40000000 WORDS.
 TIMLIM=      525600.00 MINUTES, OR     365.0 DAYS.
 PARALL= F  BALTYP=  DLB     KDIAG=    0  COREFL= F
 MXSEQ2=     300 MXSEQ3=     150  mem10=         0

          ----------------
          MODEL-POTENTIALS
          ----------------
 IR              
 IR              
 IR              
 IR              
 THE MCP PLACED ON ATOM    1 REMOVES ZCORE= 62
 THE MCP PLACED ON ATOM    2 REMOVES ZCORE= 62
 THE MCP PLACED ON ATOM    3 REMOVES ZCORE= 62
 THE MCP PLACED ON ATOM    4 REMOVES ZCORE= 62

 THE MCP RUN REMOVES  248 CORE ELECTRONS, AND THE SAME NUMBER OF PROTONS.
 NUMBER OF ELECTRONS KEPT IN THE CALCULATION IS =  228
 NUMBER OF OCCUPIED ORBITALS (ALPHA) KEPT IS    =  114
 NUMBER OF OCCUPIED ORBITALS (BETA ) KEPT IS    =  114
 THE ADJUSTED NUCLEAR REPULSION ENERGY=     3396.3314107686

     MODEL-POTENTIAL PARAMETERS
     --------------------------

  NO.    N                        ALPHA           A

 IR        
   1     0                      138.423380    2.476726
   2     0                        3.388113    0.771833
   3     0                        0.285742    0.012763
   1     1                    11374.242000  674.463560
   2     1                       30.019743   13.648947
   3     1                        3.673314    0.172344

 IR        
   1     0                      138.423380    2.476726
   2     0                        3.388113    0.771833
   3     0                        0.285742    0.012763
   1     1                    11374.242000  674.463560
   2     1                       30.019743   13.648947
   3     1                        3.673314    0.172344

 IR        
   1     0                      138.423380    2.476726
   2     0                        3.388113    0.771833
   3     0                        0.285742    0.012763
   1     1                    11374.242000  674.463560
   2     1                       30.019743   13.648947
   3     1                        3.673314    0.172344

 IR        
   1     0                      138.423380    2.476726
   2     0                        3.388113    0.771833
   3     0                        0.285742    0.012763
   1     1                    11374.242000  674.463560
   2     1                       30.019743   13.648947
   3     1                        3.673314    0.172344

     CORE-SHELL BASIS SET FOR MODEL-POTENTIAL ATOMS
     ----------------------------------------------

 SHELL TYPE PRIM    EXPONENT          CONTRACTION COEFFICIENTS

 IR        

   1   S    PARAMETER B =      5645.129800
   1   S    1    127789.300000  251.157635 (  0.052139) 
   1   S    2     47823.634000  -68.308985 ( -0.029637) 
   1   S    3     19394.076000  178.851654 (  0.152697) 
   1   S    4      8404.207800   21.419725 (  0.034240) 
   1   S    5      3841.446100  115.459150 (  0.332007) 
   1   S    6      1830.848300   38.635981 (  0.193683) 
   1   S    7       900.900610   43.246025 (  0.369002) 
   1   S    8       453.960520    2.741823 (  0.039117) 
   1   S    9       232.720710    2.310598 (  0.054411) 
   1   S   10       120.760210   -0.310123 ( -0.011945) 
   1   S   11        63.186663    0.000000 (  0.000000) 
   1   S   12        33.245073    0.000000 (  0.000000) 
   1   S   13        17.553763    0.000000 (  0.000000) 
   1   S   14         9.288913    0.000000 (  0.000000) 
   1   S   15         4.921773    0.000000 (  0.000000) 
   1   S   16         2.609713    0.000000 (  0.000000) 
   1   S   17         1.384296    0.000000 (  0.000000) 
   1   S   18         0.734421    0.000000 (  0.000000) 
   1   S   19         0.389669    0.000000 (  0.000000) 
   1   S   20         0.206757    0.000000 (  0.000000) 

   2   S    PARAMETER B =       998.454520
   2   S   21    127789.300000 -105.230592 ( -0.021845) 
   2   S   22     47823.634000   27.306363 (  0.011847) 
   2   S   23     19394.076000  -76.983433 ( -0.065726) 
   2   S   24      8404.207800  -12.165432 ( -0.019447) 
   2   S   25      3841.446100  -55.118999 ( -0.158497) 
   2   S   26      1830.848300  -23.896621 ( -0.119795) 
   2   S   27       900.900610  -26.450857 ( -0.225695) 
   2   S   28       453.960520    3.854442 (  0.054991) 
   2   S   29       232.720710   14.903408 (  0.350953) 
   2   S   30       120.760210   14.623637 (  0.563252) 
   2   S   31        63.186663    2.781942 (  0.174168) 
   2   S   32        33.245073    0.250431 (  0.025379) 
   2   S   33        17.553763   -0.020904 ( -0.003420) 
   2   S   34         9.288913    0.000000 (  0.000000) 
   2   S   35         4.921773    0.000000 (  0.000000) 
   2   S   36         2.609713    0.000000 (  0.000000) 
   2   S   37         1.384296    0.000000 (  0.000000) 
   2   S   38         0.734421    0.000000 (  0.000000) 
   2   S   39         0.389669    0.000000 (  0.000000) 
   2   S   40         0.206757    0.000000 (  0.000000) 

   3   S    PARAMETER B =       238.105160
   3   S   41    127789.300000   51.067061 (  0.010601) 
   3   S   42     47823.634000  -13.144985 ( -0.005703) 
   3   S   43     19394.076000   37.522022 (  0.032035) 
   3   S   44      8404.207800    6.190293 (  0.009895) 
   3   S   45      3841.446100   27.351951 (  0.078652) 
   3   S   46      1830.848300   12.436260 (  0.062343) 
   3   S   47       900.900610   13.782414 (  0.117600) 
   3   S   48       453.960520   -2.821017 ( -0.040247) 
   3   S   49       232.720710  -12.794643 ( -0.301295) 
   3   S   50       120.760210  -15.639374 ( -0.602374) 
   3   S   51        63.186663   -1.118401 ( -0.070019) 
   3   S   52        33.245073    7.787600 (  0.789220) 
   3   S   53        17.553763    3.104715 (  0.507965) 
   3   S   54         9.288913    0.176932 (  0.046658) 
   3   S   55         4.921773    0.010436 (  0.004431) 
   3   S   56         2.609713    0.000000 (  0.000000) 
   3   S   57         1.384296    0.000000 (  0.000000) 
   3   S   58         0.734421    0.000000 (  0.000000) 
   3   S   59         0.389669    0.000000 (  0.000000) 
   3   S   60         0.206757    0.000000 (  0.000000) 

   4   S    PARAMETER B =        53.181706
   4   S   61    127789.300000  -25.397876 ( -0.005272) 
   4   S   62     47823.634000    6.520135 (  0.002829) 
   4   S   63     19394.076000  -18.675650 ( -0.015945) 
   4   S   64      8404.207800   -3.127324 ( -0.004999) 
   4   S   65      3841.446100  -13.665898 ( -0.039297) 
   4   S   66      1830.848300   -6.318819 ( -0.031676) 
   4   S   67       900.900610   -6.953442 ( -0.059331) 
   4   S   68       453.960520    1.505079 (  0.021473) 
   4   S   69       232.720710    7.381579 (  0.173825) 
   4   S   70       120.760210    9.481969 (  0.365212) 
   4   S   71        63.186663    0.666063 (  0.041700) 
   4   S   72        33.245073   -8.522706 ( -0.863718) 
   4   S   73        17.553763   -4.126925 ( -0.675210) 
   4   S   74         9.288913    2.566185 (  0.676712) 
   4   S   75         4.921773    1.873386 (  0.795474) 
   4   S   76         2.609713    0.220415 (  0.150621) 
   4   S   77         1.384296    0.003301 (  0.003629) 
   4   S   78         0.734421    0.000759 (  0.001342) 
   4   S   79         0.389669    0.000000 (  0.000000) 
   4   S   80         0.206757    0.000000 (  0.000000) 

   5   S    PARAMETER B =         8.290547
   5   S   81    127789.300000   10.710403 (  0.002223) 
   5   S   82     47823.634000   -2.745853 ( -0.001191) 
   5   S   83     19394.076000    7.873853 (  0.006722) 
   5   S   84      8404.207800    1.329577 (  0.002125) 
   5   S   85      3841.446100    5.761808 (  0.016568) 
   5   S   86      1830.848300    2.689230 (  0.013481) 
   5   S   87       900.900610    2.929532 (  0.024997) 
   5   S   88       453.960520   -0.629470 ( -0.008981) 
   5   S   89       232.720710   -3.244038 ( -0.076392) 
   5   S   90       120.760210   -4.177195 ( -0.160891) 
   5   S   91        63.186663   -0.328981 ( -0.020596) 
   5   S   92        33.245073    4.406192 (  0.446537) 
   5   S   93        17.553763    2.158764 (  0.353197) 
   5   S   94         9.288913   -1.803328 ( -0.475544) 
   5   S   95         4.921773   -2.066528 ( -0.877486) 
   5   S   96         2.609713   -0.053529 ( -0.036579) 
   5   S   97         1.384296    0.700671 (  0.770340) 
   5   S   98         0.734421    0.299613 (  0.529897) 
   5   S   99         0.389669    0.036599 (  0.104121) 
   5   S  100         0.206757    0.001811 (  0.008289) 

   6   P    PARAMETER B =       870.059420
   6   P  101     47823.634000 1093.434310 (  0.001085) 
   6   P  102     19394.076000  442.036785 (  0.001355) 
   6   P  103      8404.207800  841.236296 (  0.007334) 
   6   P  104      3841.446100  796.328585 (  0.018473) 
   6   P  105      1830.848300  918.544557 (  0.053808) 
   6   P  106       900.900610  888.891500 (  0.126346) 
   6   P  107       453.960520  750.544852 (  0.251283) 
   6   P  108       232.720710  456.651209 (  0.352453) 
   6   P  109       120.760210  160.285182 (  0.280898) 
   6   P  110        63.186663   22.369294 (  0.088091) 
   6   P  111        33.245073    0.796025 (  0.006996) 
   6   P  112        17.553763   -0.012780 ( -0.000250) 
   6   P  113         9.288913    0.000000 (  0.000000) 
   6   P  114         4.921773    0.000000 (  0.000000) 
   6   P  115         2.609713    0.000000 (  0.000000) 
   6   P  116         1.384296    0.000000 (  0.000000) 
   6   P  117         0.734421    0.000000 (  0.000000) 
   6   P  118         0.389669    0.000000 (  0.000000) 

   7   P    PARAMETER B =       199.781810
   7   P  119     47823.634000 -578.164751 ( -0.000574) 
   7   P  120     19394.076000 -234.032318 ( -0.000717) 
   7   P  121      8404.207800 -449.842533 ( -0.003922) 
   7   P  122      3841.446100 -428.027092 ( -0.009929) 
   7   P  123      1830.848300 -504.910347 ( -0.029577) 
   7   P  124       900.900610 -501.544979 ( -0.071289) 
   7   P  125       453.960520 -444.547591 ( -0.148835) 
   7   P  126       232.720710 -278.668840 ( -0.215082) 
   7   P  127       120.760210  -64.027201 ( -0.112207) 
   7   P  128        63.186663   72.131085 (  0.284054) 
   7   P  129        33.245073   63.381526 (  0.557011) 
   7   P  130        17.553763   14.028413 (  0.273909) 
   7   P  131         9.288913    0.792204 (  0.034272) 
   7   P  132         4.921773    0.021268 (  0.002035) 
   7   P  133         2.609713    0.000000 (  0.000000) 
   7   P  134         1.384296    0.000000 (  0.000000) 
   7   P  135         0.734421    0.000000 (  0.000000) 
   7   P  136         0.389669    0.000000 (  0.000000) 

   8   P    PARAMETER B =        40.350738
   8   P  137     47823.634000  286.691420 (  0.000284) 
   8   P  138     19394.076000  115.945722 (  0.000355) 
   8   P  139      8404.207800  223.721734 (  0.001951) 
   8   P  140      3841.446100  212.902338 (  0.004939) 
   8   P  141      1830.848300  252.760605 (  0.014807) 
   8   P  142       900.900610  252.460106 (  0.035884) 
   8   P  143       453.960520  226.776518 (  0.075925) 
   8   P  144       232.720710  143.151896 (  0.110488) 
   8   P  145       120.760210   26.657481 (  0.046717) 
   8   P  146        63.186663  -56.169714 ( -0.221198) 
   8   P  147        33.245073  -52.543062 ( -0.461760) 
   8   P  148        17.553763   -2.782611 ( -0.054331) 
   8   P  149         9.288913   13.015021 (  0.563052) 
   8   P  150         4.921773    5.283769 (  0.505652) 
   8   P  151         2.609713    0.558015 (  0.118022) 
   8   P  152         1.384296    0.017940 (  0.008382) 
   8   P  153         0.734421    0.000185 (  0.000191) 
   8   P  154         0.389669    0.000107 (  0.000243) 

   9   D    PARAMETER B =       156.142920
   9   D  155      8404.207800 1973.635239 (  0.000163) 
   9   D  156      3841.446100 1426.916008 (  0.000463) 
   9   D  157      1830.848300 1937.947505 (  0.002298) 
   9   D  158       900.900610 2175.201659 (  0.008921) 
   9   D  159       453.960520 2280.278216 (  0.031031) 
   9   D  160       232.720710 2114.627884 (  0.092654) 
   9   D  161       120.760210 1556.992178 (  0.215036) 
   9   D  162        63.186663  825.318488 (  0.354093) 
   9   D  163        33.245073  258.586491 (  0.341329) 
   9   D  164        17.553763   36.305271 (  0.146525) 
   9   D  165         9.288913    1.871127 (  0.023001) 
   9   D  166         4.921773    0.036825 (  0.001376) 
   9   D  167         2.609713    0.002321 (  0.000263) 
   9   D  168         1.384296    0.000000 (  0.000000) 
   9   D  169         0.734421    0.000000 (  0.000000) 
   9   D  170         0.389669    0.000000 (  0.000000) 

  10   D    PARAMETER B =        24.039268
  10   D  171      8404.207800 -991.258240 ( -0.000082) 
  10   D  172      3841.446100 -754.365397 ( -0.000245) 
  10   D  173      1830.848300 -980.097599 ( -0.001162) 
  10   D  174       900.900610-1137.296188 ( -0.004664) 
  10   D  175       453.960520-1181.547300 ( -0.016079) 
  10   D  176       232.720710-1125.988673 ( -0.049336) 
  10   D  177       120.760210 -831.818212 ( -0.114882) 
  10   D  178        63.186663 -433.304397 ( -0.185904) 
  10   D  179        33.245073  -92.905747 ( -0.122634) 
  10   D  180        17.553763   44.737758 (  0.180558) 
  10   D  181         9.288913   35.859012 (  0.440809) 
  10   D  182         4.921773   10.164180 (  0.379708) 
  10   D  183         2.609713    1.212034 (  0.137426) 
  10   D  184         1.384296    0.057489 (  0.019771) 
  10   D  185         0.734421    0.001121 (  0.001169) 
  10   D  186         0.389669    0.000066 (  0.000209) 

  11   F    PARAMETER B =         5.847961
  11   F  187       900.900610 1365.381679 (  0.000209) 
  11   F  188       453.960520 1138.830127 (  0.000813) 
  11   F  189       232.720710 1213.790216 (  0.003898) 
  11   F  190       120.760210 1169.421573 (  0.016432) 
  11   F  191        63.186663  858.987677 (  0.051835) 
  11   F  192        33.245073  524.118306 (  0.134149) 
  11   F  193        17.553763  227.529656 (  0.245048) 
  11   F  194         9.288913   70.093146 (  0.316082) 
  11   F  195         4.921773   15.407189 (  0.290065) 
  11   F  196         2.609713    2.454323 (  0.192594) 
  11   F  197         1.384296    0.232649 (  0.076029) 
  11   F  198         0.734421    0.020470 (  0.027848) 

 IR        

  12   S    PARAMETER B =      5645.129800
  12   S  199    127789.300000  251.157635 (  0.052139) 
  12   S  200     47823.634000  -68.308985 ( -0.029637) 
  12   S  201     19394.076000  178.851654 (  0.152697) 
  12   S  202      8404.207800   21.419725 (  0.034240) 
  12   S  203      3841.446100  115.459150 (  0.332007) 
  12   S  204      1830.848300   38.635981 (  0.193683) 
  12   S  205       900.900610   43.246025 (  0.369002) 
  12   S  206       453.960520    2.741823 (  0.039117) 
  12   S  207       232.720710    2.310598 (  0.054411) 
  12   S  208       120.760210   -0.310123 ( -0.011945) 
  12   S  209        63.186663    0.000000 (  0.000000) 
  12   S  210        33.245073    0.000000 (  0.000000) 
  12   S  211        17.553763    0.000000 (  0.000000) 
  12   S  212         9.288913    0.000000 (  0.000000) 
  12   S  213         4.921773    0.000000 (  0.000000) 
  12   S  214         2.609713    0.000000 (  0.000000) 
  12   S  215         1.384296    0.000000 (  0.000000) 
  12   S  216         0.734421    0.000000 (  0.000000) 
  12   S  217         0.389669    0.000000 (  0.000000) 
  12   S  218         0.206757    0.000000 (  0.000000) 

  13   S    PARAMETER B =       998.454520
  13   S  219    127789.300000 -105.230592 ( -0.021845) 
  13   S  220     47823.634000   27.306363 (  0.011847) 
  13   S  221     19394.076000  -76.983433 ( -0.065726) 
  13   S  222      8404.207800  -12.165432 ( -0.019447) 
  13   S  223      3841.446100  -55.118999 ( -0.158497) 
  13   S  224      1830.848300  -23.896621 ( -0.119795) 
  13   S  225       900.900610  -26.450857 ( -0.225695) 
  13   S  226       453.960520    3.854442 (  0.054991) 
  13   S  227       232.720710   14.903408 (  0.350953) 
  13   S  228       120.760210   14.623637 (  0.563252) 
  13   S  229        63.186663    2.781942 (  0.174168) 
  13   S  230        33.245073    0.250431 (  0.025379) 
  13   S  231        17.553763   -0.020904 ( -0.003420) 
  13   S  232         9.288913    0.000000 (  0.000000) 
  13   S  233         4.921773    0.000000 (  0.000000) 
  13   S  234         2.609713    0.000000 (  0.000000) 
  13   S  235         1.384296    0.000000 (  0.000000) 
  13   S  236         0.734421    0.000000 (  0.000000) 
  13   S  237         0.389669    0.000000 (  0.000000) 
  13   S  238         0.206757    0.000000 (  0.000000) 

  14   S    PARAMETER B =       238.105160
  14   S  239    127789.300000   51.067061 (  0.010601) 
  14   S  240     47823.634000  -13.144985 ( -0.005703) 
  14   S  241     19394.076000   37.522022 (  0.032035) 
  14   S  242      8404.207800    6.190293 (  0.009895) 
  14   S  243      3841.446100   27.351951 (  0.078652) 
  14   S  244      1830.848300   12.436260 (  0.062343) 
  14   S  245       900.900610   13.782414 (  0.117600) 
  14   S  246       453.960520   -2.821017 ( -0.040247) 
  14   S  247       232.720710  -12.794643 ( -0.301295) 
  14   S  248       120.760210  -15.639374 ( -0.602374) 
  14   S  249        63.186663   -1.118401 ( -0.070019) 
  14   S  250        33.245073    7.787600 (  0.789220) 
  14   S  251        17.553763    3.104715 (  0.507965) 
  14   S  252         9.288913    0.176932 (  0.046658) 
  14   S  253         4.921773    0.010436 (  0.004431) 
  14   S  254         2.609713    0.000000 (  0.000000) 
  14   S  255         1.384296    0.000000 (  0.000000) 
  14   S  256         0.734421    0.000000 (  0.000000) 
  14   S  257         0.389669    0.000000 (  0.000000) 
  14   S  258         0.206757    0.000000 (  0.000000) 

  15   S    PARAMETER B =        53.181706
  15   S  259    127789.300000  -25.397876 ( -0.005272) 
  15   S  260     47823.634000    6.520135 (  0.002829) 
  15   S  261     19394.076000  -18.675650 ( -0.015945) 
  15   S  262      8404.207800   -3.127324 ( -0.004999) 
  15   S  263      3841.446100  -13.665898 ( -0.039297) 
  15   S  264      1830.848300   -6.318819 ( -0.031676) 
  15   S  265       900.900610   -6.953442 ( -0.059331) 
  15   S  266       453.960520    1.505079 (  0.021473) 
  15   S  267       232.720710    7.381579 (  0.173825) 
  15   S  268       120.760210    9.481969 (  0.365212) 
  15   S  269        63.186663    0.666063 (  0.041700) 
  15   S  270        33.245073   -8.522706 ( -0.863718) 
  15   S  271        17.553763   -4.126925 ( -0.675210) 
  15   S  272         9.288913    2.566185 (  0.676712) 
  15   S  273         4.921773    1.873386 (  0.795474) 
  15   S  274         2.609713    0.220415 (  0.150621) 
  15   S  275         1.384296    0.003301 (  0.003629) 
  15   S  276         0.734421    0.000759 (  0.001342) 
  15   S  277         0.389669    0.000000 (  0.000000) 
  15   S  278         0.206757    0.000000 (  0.000000) 

  16   S    PARAMETER B =         8.290547
  16   S  279    127789.300000   10.710403 (  0.002223) 
  16   S  280     47823.634000   -2.745853 ( -0.001191) 
  16   S  281     19394.076000    7.873853 (  0.006722) 
  16   S  282      8404.207800    1.329577 (  0.002125) 
  16   S  283      3841.446100    5.761808 (  0.016568) 
  16   S  284      1830.848300    2.689230 (  0.013481) 
  16   S  285       900.900610    2.929532 (  0.024997) 
  16   S  286       453.960520   -0.629470 ( -0.008981) 
  16   S  287       232.720710   -3.244038 ( -0.076392) 
  16   S  288       120.760210   -4.177195 ( -0.160891) 
  16   S  289        63.186663   -0.328981 ( -0.020596) 
  16   S  290        33.245073    4.406192 (  0.446537) 
  16   S  291        17.553763    2.158764 (  0.353197) 
  16   S  292         9.288913   -1.803328 ( -0.475544) 
  16   S  293         4.921773   -2.066528 ( -0.877486) 
  16   S  294         2.609713   -0.053529 ( -0.036579) 
  16   S  295         1.384296    0.700671 (  0.770340) 
  16   S  296         0.734421    0.299613 (  0.529897) 
  16   S  297         0.389669    0.036599 (  0.104121) 
  16   S  298         0.206757    0.001811 (  0.008289) 

  17   P    PARAMETER B =       870.059420
  17   P  299     47823.634000 1093.434310 (  0.001085) 
  17   P  300     19394.076000  442.036785 (  0.001355) 
  17   P  301      8404.207800  841.236296 (  0.007334) 
  17   P  302      3841.446100  796.328585 (  0.018473) 
  17   P  303      1830.848300  918.544557 (  0.053808) 
  17   P  304       900.900610  888.891500 (  0.126346) 
  17   P  305       453.960520  750.544852 (  0.251283) 
  17   P  306       232.720710  456.651209 (  0.352453) 
  17   P  307       120.760210  160.285182 (  0.280898) 
  17   P  308        63.186663   22.369294 (  0.088091) 
  17   P  309        33.245073    0.796025 (  0.006996) 
  17   P  310        17.553763   -0.012780 ( -0.000250) 
  17   P  311         9.288913    0.000000 (  0.000000) 
  17   P  312         4.921773    0.000000 (  0.000000) 
  17   P  313         2.609713    0.000000 (  0.000000) 
  17   P  314         1.384296    0.000000 (  0.000000) 
  17   P  315         0.734421    0.000000 (  0.000000) 
  17   P  316         0.389669    0.000000 (  0.000000) 

  18   P    PARAMETER B =       199.781810
  18   P  317     47823.634000 -578.164751 ( -0.000574) 
  18   P  318     19394.076000 -234.032318 ( -0.000717) 
  18   P  319      8404.207800 -449.842533 ( -0.003922) 
  18   P  320      3841.446100 -428.027092 ( -0.009929) 
  18   P  321      1830.848300 -504.910347 ( -0.029577) 
  18   P  322       900.900610 -501.544979 ( -0.071289) 
  18   P  323       453.960520 -444.547591 ( -0.148835) 
  18   P  324       232.720710 -278.668840 ( -0.215082) 
  18   P  325       120.760210  -64.027201 ( -0.112207) 
  18   P  326        63.186663   72.131085 (  0.284054) 
  18   P  327        33.245073   63.381526 (  0.557011) 
  18   P  328        17.553763   14.028413 (  0.273909) 
  18   P  329         9.288913    0.792204 (  0.034272) 
  18   P  330         4.921773    0.021268 (  0.002035) 
  18   P  331         2.609713    0.000000 (  0.000000) 
  18   P  332         1.384296    0.000000 (  0.000000) 
  18   P  333         0.734421    0.000000 (  0.000000) 
  18   P  334         0.389669    0.000000 (  0.000000) 

  19   P    PARAMETER B =        40.350738
  19   P  335     47823.634000  286.691420 (  0.000284) 
  19   P  336     19394.076000  115.945722 (  0.000355) 
  19   P  337      8404.207800  223.721734 (  0.001951) 
  19   P  338      3841.446100  212.902338 (  0.004939) 
  19   P  339      1830.848300  252.760605 (  0.014807) 
  19   P  340       900.900610  252.460106 (  0.035884) 
  19   P  341       453.960520  226.776518 (  0.075925) 
  19   P  342       232.720710  143.151896 (  0.110488) 
  19   P  343       120.760210   26.657481 (  0.046717) 
  19   P  344        63.186663  -56.169714 ( -0.221198) 
  19   P  345        33.245073  -52.543062 ( -0.461760) 
  19   P  346        17.553763   -2.782611 ( -0.054331) 
  19   P  347         9.288913   13.015021 (  0.563052) 
  19   P  348         4.921773    5.283769 (  0.505652) 
  19   P  349         2.609713    0.558015 (  0.118022) 
  19   P  350         1.384296    0.017940 (  0.008382) 
  19   P  351         0.734421    0.000185 (  0.000191) 
  19   P  352         0.389669    0.000107 (  0.000243) 

  20   D    PARAMETER B =       156.142920
  20   D  353      8404.207800 1973.635239 (  0.000163) 
  20   D  354      3841.446100 1426.916008 (  0.000463) 
  20   D  355      1830.848300 1937.947505 (  0.002298) 
  20   D  356       900.900610 2175.201659 (  0.008921) 
  20   D  357       453.960520 2280.278216 (  0.031031) 
  20   D  358       232.720710 2114.627884 (  0.092654) 
  20   D  359       120.760210 1556.992178 (  0.215036) 
  20   D  360        63.186663  825.318488 (  0.354093) 
  20   D  361        33.245073  258.586491 (  0.341329) 
  20   D  362        17.553763   36.305271 (  0.146525) 
  20   D  363         9.288913    1.871127 (  0.023001) 
  20   D  364         4.921773    0.036825 (  0.001376) 
  20   D  365         2.609713    0.002321 (  0.000263) 
  20   D  366         1.384296    0.000000 (  0.000000) 
  20   D  367         0.734421    0.000000 (  0.000000) 
  20   D  368         0.389669    0.000000 (  0.000000) 

  21   D    PARAMETER B =        24.039268
  21   D  369      8404.207800 -991.258240 ( -0.000082) 
  21   D  370      3841.446100 -754.365397 ( -0.000245) 
  21   D  371      1830.848300 -980.097599 ( -0.001162) 
  21   D  372       900.900610-1137.296188 ( -0.004664) 
  21   D  373       453.960520-1181.547300 ( -0.016079) 
  21   D  374       232.720710-1125.988673 ( -0.049336) 
  21   D  375       120.760210 -831.818212 ( -0.114882) 
  21   D  376        63.186663 -433.304397 ( -0.185904) 
  21   D  377        33.245073  -92.905747 ( -0.122634) 
  21   D  378        17.553763   44.737758 (  0.180558) 
  21   D  379         9.288913   35.859012 (  0.440809) 
  21   D  380         4.921773   10.164180 (  0.379708) 
  21   D  381         2.609713    1.212034 (  0.137426) 
  21   D  382         1.384296    0.057489 (  0.019771) 
  21   D  383         0.734421    0.001121 (  0.001169) 
  21   D  384         0.389669    0.000066 (  0.000209) 

  22   F    PARAMETER B =         5.847961
  22   F  385       900.900610 1365.381679 (  0.000209) 
  22   F  386       453.960520 1138.830127 (  0.000813) 
  22   F  387       232.720710 1213.790216 (  0.003898) 
  22   F  388       120.760210 1169.421573 (  0.016432) 
  22   F  389        63.186663  858.987677 (  0.051835) 
  22   F  390        33.245073  524.118306 (  0.134149) 
  22   F  391        17.553763  227.529656 (  0.245048) 
  22   F  392         9.288913   70.093146 (  0.316082) 
  22   F  393         4.921773   15.407189 (  0.290065) 
  22   F  394         2.609713    2.454323 (  0.192594) 
  22   F  395         1.384296    0.232649 (  0.076029) 
  22   F  396         0.734421    0.020470 (  0.027848) 

 IR        

  23   S    PARAMETER B =      5645.129800
  23   S  397    127789.300000  251.157635 (  0.052139) 
  23   S  398     47823.634000  -68.308985 ( -0.029637) 
  23   S  399     19394.076000  178.851654 (  0.152697) 
  23   S  400      8404.207800   21.419725 (  0.034240) 
  23   S  401      3841.446100  115.459150 (  0.332007) 
  23   S  402      1830.848300   38.635981 (  0.193683) 
  23   S  403       900.900610   43.246025 (  0.369002) 
  23   S  404       453.960520    2.741823 (  0.039117) 
  23   S  405       232.720710    2.310598 (  0.054411) 
  23   S  406       120.760210   -0.310123 ( -0.011945) 
  23   S  407        63.186663    0.000000 (  0.000000) 
  23   S  408        33.245073    0.000000 (  0.000000) 
  23   S  409        17.553763    0.000000 (  0.000000) 
  23   S  410         9.288913    0.000000 (  0.000000) 
  23   S  411         4.921773    0.000000 (  0.000000) 
  23   S  412         2.609713    0.000000 (  0.000000) 
  23   S  413         1.384296    0.000000 (  0.000000) 
  23   S  414         0.734421    0.000000 (  0.000000) 
  23   S  415         0.389669    0.000000 (  0.000000) 
  23   S  416         0.206757    0.000000 (  0.000000) 

  24   S    PARAMETER B =       998.454520
  24   S  417    127789.300000 -105.230592 ( -0.021845) 
  24   S  418     47823.634000   27.306363 (  0.011847) 
  24   S  419     19394.076000  -76.983433 ( -0.065726) 
  24   S  420      8404.207800  -12.165432 ( -0.019447) 
  24   S  421      3841.446100  -55.118999 ( -0.158497) 
  24   S  422      1830.848300  -23.896621 ( -0.119795) 
  24   S  423       900.900610  -26.450857 ( -0.225695) 
  24   S  424       453.960520    3.854442 (  0.054991) 
  24   S  425       232.720710   14.903408 (  0.350953) 
  24   S  426       120.760210   14.623637 (  0.563252) 
  24   S  427        63.186663    2.781942 (  0.174168) 
  24   S  428        33.245073    0.250431 (  0.025379) 
  24   S  429        17.553763   -0.020904 ( -0.003420) 
  24   S  430         9.288913    0.000000 (  0.000000) 
  24   S  431         4.921773    0.000000 (  0.000000) 
  24   S  432         2.609713    0.000000 (  0.000000) 
  24   S  433         1.384296    0.000000 (  0.000000) 
  24   S  434         0.734421    0.000000 (  0.000000) 
  24   S  435         0.389669    0.000000 (  0.000000) 
  24   S  436         0.206757    0.000000 (  0.000000) 

  25   S    PARAMETER B =       238.105160
  25   S  437    127789.300000   51.067061 (  0.010601) 
  25   S  438     47823.634000  -13.144985 ( -0.005703) 
  25   S  439     19394.076000   37.522022 (  0.032035) 
  25   S  440      8404.207800    6.190293 (  0.009895) 
  25   S  441      3841.446100   27.351951 (  0.078652) 
  25   S  442      1830.848300   12.436260 (  0.062343) 
  25   S  443       900.900610   13.782414 (  0.117600) 
  25   S  444       453.960520   -2.821017 ( -0.040247) 
  25   S  445       232.720710  -12.794643 ( -0.301295) 
  25   S  446       120.760210  -15.639374 ( -0.602374) 
  25   S  447        63.186663   -1.118401 ( -0.070019) 
  25   S  448        33.245073    7.787600 (  0.789220) 
  25   S  449        17.553763    3.104715 (  0.507965) 
  25   S  450         9.288913    0.176932 (  0.046658) 
  25   S  451         4.921773    0.010436 (  0.004431) 
  25   S  452         2.609713    0.000000 (  0.000000) 
  25   S  453         1.384296    0.000000 (  0.000000) 
  25   S  454         0.734421    0.000000 (  0.000000) 
  25   S  455         0.389669    0.000000 (  0.000000) 
  25   S  456         0.206757    0.000000 (  0.000000) 

  26   S    PARAMETER B =        53.181706
  26   S  457    127789.300000  -25.397876 ( -0.005272) 
  26   S  458     47823.634000    6.520135 (  0.002829) 
  26   S  459     19394.076000  -18.675650 ( -0.015945) 
  26   S  460      8404.207800   -3.127324 ( -0.004999) 
  26   S  461      3841.446100  -13.665898 ( -0.039297) 
  26   S  462      1830.848300   -6.318819 ( -0.031676) 
  26   S  463       900.900610   -6.953442 ( -0.059331) 
  26   S  464       453.960520    1.505079 (  0.021473) 
  26   S  465       232.720710    7.381579 (  0.173825) 
  26   S  466       120.760210    9.481969 (  0.365212) 
  26   S  467        63.186663    0.666063 (  0.041700) 
  26   S  468        33.245073   -8.522706 ( -0.863718) 
  26   S  469        17.553763   -4.126925 ( -0.675210) 
  26   S  470         9.288913    2.566185 (  0.676712) 
  26   S  471         4.921773    1.873386 (  0.795474) 
  26   S  472         2.609713    0.220415 (  0.150621) 
  26   S  473         1.384296    0.003301 (  0.003629) 
  26   S  474         0.734421    0.000759 (  0.001342) 
  26   S  475         0.389669    0.000000 (  0.000000) 
  26   S  476         0.206757    0.000000 (  0.000000) 

  27   S    PARAMETER B =         8.290547
  27   S  477    127789.300000   10.710403 (  0.002223) 
  27   S  478     47823.634000   -2.745853 ( -0.001191) 
  27   S  479     19394.076000    7.873853 (  0.006722) 
  27   S  480      8404.207800    1.329577 (  0.002125) 
  27   S  481      3841.446100    5.761808 (  0.016568) 
  27   S  482      1830.848300    2.689230 (  0.013481) 
  27   S  483       900.900610    2.929532 (  0.024997) 
  27   S  484       453.960520   -0.629470 ( -0.008981) 
  27   S  485       232.720710   -3.244038 ( -0.076392) 
  27   S  486       120.760210   -4.177195 ( -0.160891) 
  27   S  487        63.186663   -0.328981 ( -0.020596) 
  27   S  488        33.245073    4.406192 (  0.446537) 
  27   S  489        17.553763    2.158764 (  0.353197) 
  27   S  490         9.288913   -1.803328 ( -0.475544) 
  27   S  491         4.921773   -2.066528 ( -0.877486) 
  27   S  492         2.609713   -0.053529 ( -0.036579) 
  27   S  493         1.384296    0.700671 (  0.770340) 
  27   S  494         0.734421    0.299613 (  0.529897) 
  27   S  495         0.389669    0.036599 (  0.104121) 
  27   S  496         0.206757    0.001811 (  0.008289) 

  28   P    PARAMETER B =       870.059420
  28   P  497     47823.634000 1093.434310 (  0.001085) 
  28   P  498     19394.076000  442.036785 (  0.001355) 
  28   P  499      8404.207800  841.236296 (  0.007334) 
  28   P  500      3841.446100  796.328585 (  0.018473) 
  28   P  501      1830.848300  918.544557 (  0.053808) 
  28   P  502       900.900610  888.891500 (  0.126346) 
  28   P  503       453.960520  750.544852 (  0.251283) 
  28   P  504       232.720710  456.651209 (  0.352453) 
  28   P  505       120.760210  160.285182 (  0.280898) 
  28   P  506        63.186663   22.369294 (  0.088091) 
  28   P  507        33.245073    0.796025 (  0.006996) 
  28   P  508        17.553763   -0.012780 ( -0.000250) 
  28   P  509         9.288913    0.000000 (  0.000000) 
  28   P  510         4.921773    0.000000 (  0.000000) 
  28   P  511         2.609713    0.000000 (  0.000000) 
  28   P  512         1.384296    0.000000 (  0.000000) 
  28   P  513         0.734421    0.000000 (  0.000000) 
  28   P  514         0.389669    0.000000 (  0.000000) 

  29   P    PARAMETER B =       199.781810
  29   P  515     47823.634000 -578.164751 ( -0.000574) 
  29   P  516     19394.076000 -234.032318 ( -0.000717) 
  29   P  517      8404.207800 -449.842533 ( -0.003922) 
  29   P  518      3841.446100 -428.027092 ( -0.009929) 
  29   P  519      1830.848300 -504.910347 ( -0.029577) 
  29   P  520       900.900610 -501.544979 ( -0.071289) 
  29   P  521       453.960520 -444.547591 ( -0.148835) 
  29   P  522       232.720710 -278.668840 ( -0.215082) 
  29   P  523       120.760210  -64.027201 ( -0.112207) 
  29   P  524        63.186663   72.131085 (  0.284054) 
  29   P  525        33.245073   63.381526 (  0.557011) 
  29   P  526        17.553763   14.028413 (  0.273909) 
  29   P  527         9.288913    0.792204 (  0.034272) 
  29   P  528         4.921773    0.021268 (  0.002035) 
  29   P  529         2.609713    0.000000 (  0.000000) 
  29   P  530         1.384296    0.000000 (  0.000000) 
  29   P  531         0.734421    0.000000 (  0.000000) 
  29   P  532         0.389669    0.000000 (  0.000000) 

  30   P    PARAMETER B =        40.350738
  30   P  533     47823.634000  286.691420 (  0.000284) 
  30   P  534     19394.076000  115.945722 (  0.000355) 
  30   P  535      8404.207800  223.721734 (  0.001951) 
  30   P  536      3841.446100  212.902338 (  0.004939) 
  30   P  537      1830.848300  252.760605 (  0.014807) 
  30   P  538       900.900610  252.460106 (  0.035884) 
  30   P  539       453.960520  226.776518 (  0.075925) 
  30   P  540       232.720710  143.151896 (  0.110488) 
  30   P  541       120.760210   26.657481 (  0.046717) 
  30   P  542        63.186663  -56.169714 ( -0.221198) 
  30   P  543        33.245073  -52.543062 ( -0.461760) 
  30   P  544        17.553763   -2.782611 ( -0.054331) 
  30   P  545         9.288913   13.015021 (  0.563052) 
  30   P  546         4.921773    5.283769 (  0.505652) 
  30   P  547         2.609713    0.558015 (  0.118022) 
  30   P  548         1.384296    0.017940 (  0.008382) 
  30   P  549         0.734421    0.000185 (  0.000191) 
  30   P  550         0.389669    0.000107 (  0.000243) 

  31   D    PARAMETER B =       156.142920
  31   D  551      8404.207800 1973.635239 (  0.000163) 
  31   D  552      3841.446100 1426.916008 (  0.000463) 
  31   D  553      1830.848300 1937.947505 (  0.002298) 
  31   D  554       900.900610 2175.201659 (  0.008921) 
  31   D  555       453.960520 2280.278216 (  0.031031) 
  31   D  556       232.720710 2114.627884 (  0.092654) 
  31   D  557       120.760210 1556.992178 (  0.215036) 
  31   D  558        63.186663  825.318488 (  0.354093) 
  31   D  559        33.245073  258.586491 (  0.341329) 
  31   D  560        17.553763   36.305271 (  0.146525) 
  31   D  561         9.288913    1.871127 (  0.023001) 
  31   D  562         4.921773    0.036825 (  0.001376) 
  31   D  563         2.609713    0.002321 (  0.000263) 
  31   D  564         1.384296    0.000000 (  0.000000) 
  31   D  565         0.734421    0.000000 (  0.000000) 
  31   D  566         0.389669    0.000000 (  0.000000) 

  32   D    PARAMETER B =        24.039268
  32   D  567      8404.207800 -991.258240 ( -0.000082) 
  32   D  568      3841.446100 -754.365397 ( -0.000245) 
  32   D  569      1830.848300 -980.097599 ( -0.001162) 
  32   D  570       900.900610-1137.296188 ( -0.004664) 
  32   D  571       453.960520-1181.547300 ( -0.016079) 
  32   D  572       232.720710-1125.988673 ( -0.049336) 
  32   D  573       120.760210 -831.818212 ( -0.114882) 
  32   D  574        63.186663 -433.304397 ( -0.185904) 
  32   D  575        33.245073  -92.905747 ( -0.122634) 
  32   D  576        17.553763   44.737758 (  0.180558) 
  32   D  577         9.288913   35.859012 (  0.440809) 
  32   D  578         4.921773   10.164180 (  0.379708) 
  32   D  579         2.609713    1.212034 (  0.137426) 
  32   D  580         1.384296    0.057489 (  0.019771) 
  32   D  581         0.734421    0.001121 (  0.001169) 
  32   D  582         0.389669    0.000066 (  0.000209) 

  33   F    PARAMETER B =         5.847961
  33   F  583       900.900610 1365.381679 (  0.000209) 
  33   F  584       453.960520 1138.830127 (  0.000813) 
  33   F  585       232.720710 1213.790216 (  0.003898) 
  33   F  586       120.760210 1169.421573 (  0.016432) 
  33   F  587        63.186663  858.987677 (  0.051835) 
  33   F  588        33.245073  524.118306 (  0.134149) 
  33   F  589        17.553763  227.529656 (  0.245048) 
  33   F  590         9.288913   70.093146 (  0.316082) 
  33   F  591         4.921773   15.407189 (  0.290065) 
  33   F  592         2.609713    2.454323 (  0.192594) 
  33   F  593         1.384296    0.232649 (  0.076029) 
  33   F  594         0.734421    0.020470 (  0.027848) 

 IR        

  34   S    PARAMETER B =      5645.129800
  34   S  595    127789.300000  251.157635 (  0.052139) 
  34   S  596     47823.634000  -68.308985 ( -0.029637) 
  34   S  597     19394.076000  178.851654 (  0.152697) 
  34   S  598      8404.207800   21.419725 (  0.034240) 
  34   S  599      3841.446100  115.459150 (  0.332007) 
  34   S  600      1830.848300   38.635981 (  0.193683) 
  34   S  601       900.900610   43.246025 (  0.369002) 
  34   S  602       453.960520    2.741823 (  0.039117) 
  34   S  603       232.720710    2.310598 (  0.054411) 
  34   S  604       120.760210   -0.310123 ( -0.011945) 
  34   S  605        63.186663    0.000000 (  0.000000) 
  34   S  606        33.245073    0.000000 (  0.000000) 
  34   S  607        17.553763    0.000000 (  0.000000) 
  34   S  608         9.288913    0.000000 (  0.000000) 
  34   S  609         4.921773    0.000000 (  0.000000) 
  34   S  610         2.609713    0.000000 (  0.000000) 
  34   S  611         1.384296    0.000000 (  0.000000) 
  34   S  612         0.734421    0.000000 (  0.000000) 
  34   S  613         0.389669    0.000000 (  0.000000) 
  34   S  614         0.206757    0.000000 (  0.000000) 

  35   S    PARAMETER B =       998.454520
  35   S  615    127789.300000 -105.230592 ( -0.021845) 
  35   S  616     47823.634000   27.306363 (  0.011847) 
  35   S  617     19394.076000  -76.983433 ( -0.065726) 
  35   S  618      8404.207800  -12.165432 ( -0.019447) 
  35   S  619      3841.446100  -55.118999 ( -0.158497) 
  35   S  620      1830.848300  -23.896621 ( -0.119795) 
  35   S  621       900.900610  -26.450857 ( -0.225695) 
  35   S  622       453.960520    3.854442 (  0.054991) 
  35   S  623       232.720710   14.903408 (  0.350953) 
  35   S  624       120.760210   14.623637 (  0.563252) 
  35   S  625        63.186663    2.781942 (  0.174168) 
  35   S  626        33.245073    0.250431 (  0.025379) 
  35   S  627        17.553763   -0.020904 ( -0.003420) 
  35   S  628         9.288913    0.000000 (  0.000000) 
  35   S  629         4.921773    0.000000 (  0.000000) 
  35   S  630         2.609713    0.000000 (  0.000000) 
  35   S  631         1.384296    0.000000 (  0.000000) 
  35   S  632         0.734421    0.000000 (  0.000000) 
  35   S  633         0.389669    0.000000 (  0.000000) 
  35   S  634         0.206757    0.000000 (  0.000000) 

  36   S    PARAMETER B =       238.105160
  36   S  635    127789.300000   51.067061 (  0.010601) 
  36   S  636     47823.634000  -13.144985 ( -0.005703) 
  36   S  637     19394.076000   37.522022 (  0.032035) 
  36   S  638      8404.207800    6.190293 (  0.009895) 
  36   S  639      3841.446100   27.351951 (  0.078652) 
  36   S  640      1830.848300   12.436260 (  0.062343) 
  36   S  641       900.900610   13.782414 (  0.117600) 
  36   S  642       453.960520   -2.821017 ( -0.040247) 
  36   S  643       232.720710  -12.794643 ( -0.301295) 
  36   S  644       120.760210  -15.639374 ( -0.602374) 
  36   S  645        63.186663   -1.118401 ( -0.070019) 
  36   S  646        33.245073    7.787600 (  0.789220) 
  36   S  647        17.553763    3.104715 (  0.507965) 
  36   S  648         9.288913    0.176932 (  0.046658) 
  36   S  649         4.921773    0.010436 (  0.004431) 
  36   S  650         2.609713    0.000000 (  0.000000) 
  36   S  651         1.384296    0.000000 (  0.000000) 
  36   S  652         0.734421    0.000000 (  0.000000) 
  36   S  653         0.389669    0.000000 (  0.000000) 
  36   S  654         0.206757    0.000000 (  0.000000) 

  37   S    PARAMETER B =        53.181706
  37   S  655    127789.300000  -25.397876 ( -0.005272) 
  37   S  656     47823.634000    6.520135 (  0.002829) 
  37   S  657     19394.076000  -18.675650 ( -0.015945) 
  37   S  658      8404.207800   -3.127324 ( -0.004999) 
  37   S  659      3841.446100  -13.665898 ( -0.039297) 
  37   S  660      1830.848300   -6.318819 ( -0.031676) 
  37   S  661       900.900610   -6.953442 ( -0.059331) 
  37   S  662       453.960520    1.505079 (  0.021473) 
  37   S  663       232.720710    7.381579 (  0.173825) 
  37   S  664       120.760210    9.481969 (  0.365212) 
  37   S  665        63.186663    0.666063 (  0.041700) 
  37   S  666        33.245073   -8.522706 ( -0.863718) 
  37   S  667        17.553763   -4.126925 ( -0.675210) 
  37   S  668         9.288913    2.566185 (  0.676712) 
  37   S  669         4.921773    1.873386 (  0.795474) 
  37   S  670         2.609713    0.220415 (  0.150621) 
  37   S  671         1.384296    0.003301 (  0.003629) 
  37   S  672         0.734421    0.000759 (  0.001342) 
  37   S  673         0.389669    0.000000 (  0.000000) 
  37   S  674         0.206757    0.000000 (  0.000000) 

  38   S    PARAMETER B =         8.290547
  38   S  675    127789.300000   10.710403 (  0.002223) 
  38   S  676     47823.634000   -2.745853 ( -0.001191) 
  38   S  677     19394.076000    7.873853 (  0.006722) 
  38   S  678      8404.207800    1.329577 (  0.002125) 
  38   S  679      3841.446100    5.761808 (  0.016568) 
  38   S  680      1830.848300    2.689230 (  0.013481) 
  38   S  681       900.900610    2.929532 (  0.024997) 
  38   S  682       453.960520   -0.629470 ( -0.008981) 
  38   S  683       232.720710   -3.244038 ( -0.076392) 
  38   S  684       120.760210   -4.177195 ( -0.160891) 
  38   S  685        63.186663   -0.328981 ( -0.020596) 
  38   S  686        33.245073    4.406192 (  0.446537) 
  38   S  687        17.553763    2.158764 (  0.353197) 
  38   S  688         9.288913   -1.803328 ( -0.475544) 
  38   S  689         4.921773   -2.066528 ( -0.877486) 
  38   S  690         2.609713   -0.053529 ( -0.036579) 
  38   S  691         1.384296    0.700671 (  0.770340) 
  38   S  692         0.734421    0.299613 (  0.529897) 
  38   S  693         0.389669    0.036599 (  0.104121) 
  38   S  694         0.206757    0.001811 (  0.008289) 

  39   P    PARAMETER B =       870.059420
  39   P  695     47823.634000 1093.434310 (  0.001085) 
  39   P  696     19394.076000  442.036785 (  0.001355) 
  39   P  697      8404.207800  841.236296 (  0.007334) 
  39   P  698      3841.446100  796.328585 (  0.018473) 
  39   P  699      1830.848300  918.544557 (  0.053808) 
  39   P  700       900.900610  888.891500 (  0.126346) 
  39   P  701       453.960520  750.544852 (  0.251283) 
  39   P  702       232.720710  456.651209 (  0.352453) 
  39   P  703       120.760210  160.285182 (  0.280898) 
  39   P  704        63.186663   22.369294 (  0.088091) 
  39   P  705        33.245073    0.796025 (  0.006996) 
  39   P  706        17.553763   -0.012780 ( -0.000250) 
  39   P  707         9.288913    0.000000 (  0.000000) 
  39   P  708         4.921773    0.000000 (  0.000000) 
  39   P  709         2.609713    0.000000 (  0.000000) 
  39   P  710         1.384296    0.000000 (  0.000000) 
  39   P  711         0.734421    0.000000 (  0.000000) 
  39   P  712         0.389669    0.000000 (  0.000000) 

  40   P    PARAMETER B =       199.781810
  40   P  713     47823.634000 -578.164751 ( -0.000574) 
  40   P  714     19394.076000 -234.032318 ( -0.000717) 
  40   P  715      8404.207800 -449.842533 ( -0.003922) 
  40   P  716      3841.446100 -428.027092 ( -0.009929) 
  40   P  717      1830.848300 -504.910347 ( -0.029577) 
  40   P  718       900.900610 -501.544979 ( -0.071289) 
  40   P  719       453.960520 -444.547591 ( -0.148835) 
  40   P  720       232.720710 -278.668840 ( -0.215082) 
  40   P  721       120.760210  -64.027201 ( -0.112207) 
  40   P  722        63.186663   72.131085 (  0.284054) 
  40   P  723        33.245073   63.381526 (  0.557011) 
  40   P  724        17.553763   14.028413 (  0.273909) 
  40   P  725         9.288913    0.792204 (  0.034272) 
  40   P  726         4.921773    0.021268 (  0.002035) 
  40   P  727         2.609713    0.000000 (  0.000000) 
  40   P  728         1.384296    0.000000 (  0.000000) 
  40   P  729         0.734421    0.000000 (  0.000000) 
  40   P  730         0.389669    0.000000 (  0.000000) 

  41   P    PARAMETER B =        40.350738
  41   P  731     47823.634000  286.691420 (  0.000284) 
  41   P  732     19394.076000  115.945722 (  0.000355) 
  41   P  733      8404.207800  223.721734 (  0.001951) 
  41   P  734      3841.446100  212.902338 (  0.004939) 
  41   P  735      1830.848300  252.760605 (  0.014807) 
  41   P  736       900.900610  252.460106 (  0.035884) 
  41   P  737       453.960520  226.776518 (  0.075925) 
  41   P  738       232.720710  143.151896 (  0.110488) 
  41   P  739       120.760210   26.657481 (  0.046717) 
  41   P  740        63.186663  -56.169714 ( -0.221198) 
  41   P  741        33.245073  -52.543062 ( -0.461760) 
  41   P  742        17.553763   -2.782611 ( -0.054331) 
  41   P  743         9.288913   13.015021 (  0.563052) 
  41   P  744         4.921773    5.283769 (  0.505652) 
  41   P  745         2.609713    0.558015 (  0.118022) 
  41   P  746         1.384296    0.017940 (  0.008382) 
  41   P  747         0.734421    0.000185 (  0.000191) 
  41   P  748         0.389669    0.000107 (  0.000243) 

  42   D    PARAMETER B =       156.142920
  42   D  749      8404.207800 1973.635239 (  0.000163) 
  42   D  750      3841.446100 1426.916008 (  0.000463) 
  42   D  751      1830.848300 1937.947505 (  0.002298) 
  42   D  752       900.900610 2175.201659 (  0.008921) 
  42   D  753       453.960520 2280.278216 (  0.031031) 
  42   D  754       232.720710 2114.627884 (  0.092654) 
  42   D  755       120.760210 1556.992178 (  0.215036) 
  42   D  756        63.186663  825.318488 (  0.354093) 
  42   D  757        33.245073  258.586491 (  0.341329) 
  42   D  758        17.553763   36.305271 (  0.146525) 
  42   D  759         9.288913    1.871127 (  0.023001) 
  42   D  760         4.921773    0.036825 (  0.001376) 
  42   D  761         2.609713    0.002321 (  0.000263) 
  42   D  762         1.384296    0.000000 (  0.000000) 
  42   D  763         0.734421    0.000000 (  0.000000) 
  42   D  764         0.389669    0.000000 (  0.000000) 

  43   D    PARAMETER B =        24.039268
  43   D  765      8404.207800 -991.258240 ( -0.000082) 
  43   D  766      3841.446100 -754.365397 ( -0.000245) 
  43   D  767      1830.848300 -980.097599 ( -0.001162) 
  43   D  768       900.900610-1137.296188 ( -0.004664) 
  43   D  769       453.960520-1181.547300 ( -0.016079) 
  43   D  770       232.720710-1125.988673 ( -0.049336) 
  43   D  771       120.760210 -831.818212 ( -0.114882) 
  43   D  772        63.186663 -433.304397 ( -0.185904) 
  43   D  773        33.245073  -92.905747 ( -0.122634) 
  43   D  774        17.553763   44.737758 (  0.180558) 
  43   D  775         9.288913   35.859012 (  0.440809) 
  43   D  776         4.921773   10.164180 (  0.379708) 
  43   D  777         2.609713    1.212034 (  0.137426) 
  43   D  778         1.384296    0.057489 (  0.019771) 
  43   D  779         0.734421    0.001121 (  0.001169) 
  43   D  780         0.389669    0.000066 (  0.000209) 

  44   F    PARAMETER B =         5.847961
  44   F  781       900.900610 1365.381679 (  0.000209) 
  44   F  782       453.960520 1138.830127 (  0.000813) 
  44   F  783       232.720710 1213.790216 (  0.003898) 
  44   F  784       120.760210 1169.421573 (  0.016432) 
  44   F  785        63.186663  858.987677 (  0.051835) 
[...]
    2    0.1164530  14.5117065
    3    0.1164530   0.1164530  14.5117065
    4    0.1164530   0.1164530   0.1164530  14.5117065
    5    0.0898392   0.0233815  -0.0108883   0.0233815   4.9794701
    6    0.0233815   0.0898392   0.0233815  -0.0108883   0.0006238
    7   -0.0108883   0.0233815   0.0898392   0.0233815   0.0000054
    8    0.0233815   0.0233815  -0.0108883   0.0898392  -0.0046537
    9   -0.0108883   0.0898392   0.0233815   0.0233815  -0.0000394
   10    0.0233815   0.0233815   0.0898392  -0.0108883  -0.0000394
   11    0.0898392  -0.0108883   0.0233815   0.0233815  -0.0204510
   12   -0.0108883   0.0233815   0.0233815   0.0898392  -0.0000394
   13    0.0233815  -0.0108883   0.0898392   0.0233815  -0.0000394
   14    0.0898392   0.0233815   0.0233815  -0.0108883  -0.0204510
   15    0.0233815   0.0898392  -0.0108883   0.0233815  -0.0046537
   16    0.0233815  -0.0108883   0.0233815   0.0898392   0.0006238
   17   -0.0062441  -0.0019581   0.0001450  -0.0019581   0.5292289
   18   -0.0019581  -0.0062441  -0.0019581   0.0001450  -0.0000021
   19    0.0001450  -0.0019581  -0.0062441  -0.0019581  -0.0000000
   20   -0.0019581  -0.0019581   0.0001450  -0.0062441  -0.0000091
   21    0.0001450  -0.0062441  -0.0019581  -0.0019581   0.0000000
   22   -0.0019581  -0.0019581  -0.0062441   0.0001450   0.0000003
   23   -0.0062441   0.0001450  -0.0019581  -0.0019581  -0.0003680
   24    0.0001450  -0.0019581  -0.0019581  -0.0062441   0.0000000
   25   -0.0019581   0.0001450  -0.0062441  -0.0019581   0.0000003
   26   -0.0062441  -0.0019581  -0.0019581   0.0001450  -0.0003680
   27   -0.0019581  -0.0062441   0.0001450  -0.0019581  -0.0000091
   28   -0.0019581   0.0001450  -0.0019581  -0.0062441  -0.0000021

             6           7           8           9          10

    6    4.9794701
    7    0.0006238   4.9794701
    8   -0.0000394  -0.0000394   4.9794701
    9   -0.0204510  -0.0046537   0.0006238   4.9794701
   10   -0.0046537  -0.0204510   0.0000054   0.0006238   4.9794701
   11   -0.0000394  -0.0000394   0.0006238   0.0000054   0.0006238
   12   -0.0000394  -0.0046537  -0.0204510  -0.0046537  -0.0000394
   13   -0.0000394  -0.0204510  -0.0000394  -0.0000394  -0.0204510
   14   -0.0046537  -0.0000394  -0.0000394  -0.0000394  -0.0046537
   15   -0.0204510  -0.0000394  -0.0046537  -0.0204510  -0.0000394
   16    0.0000054   0.0006238  -0.0204510  -0.0000394  -0.0000394
   17   -0.0000021  -0.0000000  -0.0000091   0.0000003   0.0000000
   18    0.5292289  -0.0000021   0.0000000  -0.0003680  -0.0000091
   19   -0.0000021   0.5292289   0.0000003  -0.0000091  -0.0003680
   20    0.0000003   0.0000000   0.5292289  -0.0000021  -0.0000000
   21   -0.0003680  -0.0000091  -0.0000021   0.5292289  -0.0000021
   22   -0.0000091  -0.0003680  -0.0000000  -0.0000021   0.5292289
   23    0.0000000   0.0000003  -0.0000021  -0.0000000  -0.0000021
   24    0.0000003  -0.0000091  -0.0003680  -0.0000091   0.0000003
   25    0.0000000  -0.0003680   0.0000003   0.0000000  -0.0003680
   26   -0.0000091   0.0000003   0.0000000   0.0000003  -0.0000091
   27   -0.0003680   0.0000000  -0.0000091  -0.0003680   0.0000000
   28   -0.0000000  -0.0000021  -0.0003680   0.0000000   0.0000003

            11          12          13          14          15

   11    4.9794701
   12   -0.0000394   4.9794701
   13   -0.0046537   0.0006238   4.9794701
   14   -0.0204510   0.0000054   0.0006238   4.9794701
   15   -0.0000394   0.0006238   0.0000054   0.0006238   4.9794701
   16   -0.0046537  -0.0204510  -0.0046537  -0.0000394  -0.0000394
   17   -0.0003680   0.0000003   0.0000000  -0.0003680  -0.0000091
   18    0.0000003   0.0000000   0.0000003  -0.0000091  -0.0003680
   19    0.0000000  -0.0000091  -0.0003680   0.0000000   0.0000003
   20   -0.0000021  -0.0003680   0.0000000   0.0000003  -0.0000091
   21   -0.0000000  -0.0000091   0.0000003   0.0000000  -0.0003680
   22   -0.0000021   0.0000000  -0.0003680  -0.0000091   0.0000003
   23    0.5292289   0.0000003  -0.0000091  -0.0003680   0.0000000
   24    0.0000000   0.5292289  -0.0000021  -0.0000000  -0.0000021
   25   -0.0000091  -0.0000021   0.5292289  -0.0000021  -0.0000000
   26   -0.0003680  -0.0000000  -0.0000021   0.5292289  -0.0000021
   27    0.0000003  -0.0000021  -0.0000000  -0.0000021   0.5292289
   28   -0.0000091  -0.0003680  -0.0000091   0.0000003   0.0000000

            16          17          18          19          20

   16    4.9794701
   17   -0.0000021   7.8277315
   18   -0.0000000   0.0000000   7.8277315
   19   -0.0000021   0.0000000   0.0000000   7.8277315
   20   -0.0003680  -0.0000666  -0.0000000  -0.0000000   7.8277315
   21    0.0000003  -0.0000000   0.0000089  -0.0000666   0.0000000
   22    0.0000000  -0.0000000  -0.0000666   0.0000089   0.0000000
   23   -0.0000091   0.0000089  -0.0000000  -0.0000000   0.0000000
   24   -0.0003680  -0.0000000  -0.0000000  -0.0000666   0.0000089
   25   -0.0000091  -0.0000000  -0.0000000   0.0000089  -0.0000000
   26    0.0000000   0.0000089  -0.0000666  -0.0000000  -0.0000000
   27    0.0000003  -0.0000666   0.0000089  -0.0000000  -0.0000666
   28    0.5292289   0.0000000   0.0000000   0.0000000   0.0000089

            21          22          23          24          25

   21    7.8277315
   22    0.0000000   7.8277315
   23    0.0000000   0.0000000   7.8277315
   24   -0.0000666  -0.0000000  -0.0000000   7.8277315
   25   -0.0000000   0.0000089  -0.0000666   0.0000000   7.8277315
   26   -0.0000000  -0.0000666   0.0000089   0.0000000   0.0000000
   27    0.0000089  -0.0000000  -0.0000000   0.0000000   0.0000000
   28   -0.0000000  -0.0000000  -0.0000666   0.0000089  -0.0000666

            26          27          28

   26    7.8277315
   27    0.0000000   7.8277315
   28   -0.0000000  -0.0000000   7.8277315

          TOTAL MULLIKEN AND LOWDIN ATOMIC POPULATIONS
       ATOM         MULL.POP.    CHARGE          LOW.POP.     CHARGE
    1 IR           15.208161   -0.208161        16.085528   -1.085528
    2 IR           15.208161   -0.208161        16.085528   -1.085528
    3 IR           15.208161   -0.208161        16.085528   -1.085528
    4 IR           15.208161   -0.208161        16.085528   -1.085528
    5 C             5.584541    0.415459         5.591670    0.408330
    6 C             5.584541    0.415459         5.591670    0.408330
    7 C             5.584541    0.415459         5.591670    0.408330
    8 C             5.584541    0.415459         5.591670    0.408330
    9 C             5.584541    0.415459         5.591670    0.408330
   10 C             5.584541    0.415459         5.591670    0.408330
   11 C             5.584541    0.415459         5.591670    0.408330
   12 C             5.584541    0.415459         5.591670    0.408330
   13 C             5.584541    0.415459         5.591670    0.408330
   14 C             5.584541    0.415459         5.591670    0.408330
   15 C             5.584541    0.415459         5.591670    0.408330
   16 C             5.584541    0.415459         5.591670    0.408330
   17 O             8.346072   -0.346072         8.046487   -0.046487
   18 O             8.346072   -0.346072         8.046487   -0.046487
   19 O             8.346072   -0.346072         8.046487   -0.046487
   20 O             8.346072   -0.346072         8.046487   -0.046487
   21 O             8.346072   -0.346072         8.046487   -0.046487
   22 O             8.346072   -0.346072         8.046487   -0.046487
   23 O             8.346072   -0.346072         8.046487   -0.046487
   24 O             8.346072   -0.346072         8.046487   -0.046487
   25 O             8.346072   -0.346072         8.046487   -0.046487
   26 O             8.346072   -0.346072         8.046487   -0.046487
   27 O             8.346072   -0.346072         8.046487   -0.046487
   28 O             8.346072   -0.346072         8.046487   -0.046487

          MULLIKEN SPHERICAL HARMONIC POPULATIONS
       ATOM           S       P       D      F      G      H      I    TOTAL
    1 IR            0.94    6.34    7.92   0.00   0.00   0.00   0.00   15.21
    2 IR            0.94    6.34    7.92   0.00   0.00   0.00   0.00   15.21
    3 IR            0.94    6.34    7.92   0.00   0.00   0.00   0.00   15.21
    4 IR            0.94    6.34    7.92   0.00   0.00   0.00   0.00   15.21
    5 C             3.51    1.98    0.09   0.00   0.00   0.00   0.00    5.58
    6 C             3.51    1.98    0.09   0.00   0.00   0.00   0.00    5.58
    7 C             3.51    1.98    0.09   0.00   0.00   0.00   0.00    5.58
    8 C             3.51    1.98    0.09   0.00   0.00   0.00   0.00    5.58
    9 C             3.51    1.98    0.09   0.00   0.00   0.00   0.00    5.58
   10 C             3.51    1.98    0.09   0.00   0.00   0.00   0.00    5.58
   11 C             3.51    1.98    0.09   0.00   0.00   0.00   0.00    5.58
   12 C             3.51    1.98    0.09   0.00   0.00   0.00   0.00    5.58
   13 C             3.51    1.98    0.09   0.00   0.00   0.00   0.00    5.58
   14 C             3.51    1.98    0.09   0.00   0.00   0.00   0.00    5.58
   15 C             3.51    1.98    0.09   0.00   0.00   0.00   0.00    5.58
   16 C             3.51    1.98    0.09   0.00   0.00   0.00   0.00    5.58
   17 O             3.88    4.43    0.04   0.00   0.00   0.00   0.00    8.35
   18 O             3.88    4.43    0.04   0.00   0.00   0.00   0.00    8.35
   19 O             3.88    4.43    0.04   0.00   0.00   0.00   0.00    8.35
   20 O             3.88    4.43    0.04   0.00   0.00   0.00   0.00    8.35
   21 O             3.88    4.43    0.04   0.00   0.00   0.00   0.00    8.35
   22 O             3.88    4.43    0.04   0.00   0.00   0.00   0.00    8.35
   23 O             3.88    4.43    0.04   0.00   0.00   0.00   0.00    8.35
   24 O             3.88    4.43    0.04   0.00   0.00   0.00   0.00    8.35
   25 O             3.88    4.43    0.04   0.00   0.00   0.00   0.00    8.35
   26 O             3.88    4.43    0.04   0.00   0.00   0.00   0.00    8.35
   27 O             3.88    4.43    0.04   0.00   0.00   0.00   0.00    8.35
   28 O             3.88    4.43    0.04   0.00   0.00   0.00   0.00    8.35

          -------------------------------
          BOND ORDER AND VALENCE ANALYSIS     BOND ORDER THRESHOLD=0.050
          -------------------------------

                   BOND                       BOND                       BOND
  ATOM PAIR DIST  ORDER      ATOM PAIR DIST  ORDER      ATOM PAIR DIST  ORDER
    1   2  2.684  0.546        1   3  2.684  0.546        1   4  2.684  0.546
    1   5  1.985  0.600        1   7  4.551  0.100        1   9  4.551  0.100
    1  11  1.985  0.600        1  12  4.551  0.100        1  14  1.985  0.600
    1  17  3.103  0.106        1  23  3.103  0.106        1  26  3.103  0.106
    2   3  2.684  0.546        2   4  2.684  0.546        2   6  1.985  0.600
    2   9  1.985  0.600        2  11  4.551  0.100        2  13  4.551  0.100
    2  15  1.985  0.600        2  16  4.551  0.100        2  18  3.103  0.106
    2  21  3.103  0.106        2  27  3.103  0.106        3   4  2.684  0.546
    3   5  4.551  0.100        3   7  1.985  0.600        3   8  4.551  0.100
    3  10  1.985  0.600        3  13  1.985  0.600        3  15  4.551  0.100
    3  19  3.103  0.106        3  22  3.103  0.106        3  25  3.103  0.106
    4   6  4.551  0.100        4   8  1.985  0.600        4  10  4.551  0.100
    4  12  1.985  0.600        4  14  4.551  0.100        4  16  1.985  0.600
    4  20  3.103  0.106        4  24  3.103  0.106        4  28  3.103  0.106
    5  17  1.118  2.057        6  18  1.118  2.057        7  19  1.118  2.057
    8  20  1.118  2.057        9  21  1.118  2.057       10  22  1.118  2.057
   11  23  1.118  2.057       12  24  1.118  2.057       13  25  1.118  2.057
   14  26  1.118  2.057       15  27  1.118  2.057       16  28  1.118  2.057

                       TOTAL       BONDED        FREE
      ATOM            VALENCE     VALENCE     VALENCE
    1 IR                4.354       4.354      -0.000
    2 IR                4.354       4.354      -0.000
    3 IR                4.354       4.354      -0.000
    4 IR                4.354       4.354      -0.000
    5 C                 2.924       2.924      -0.000
    6 C                 2.924       2.924      -0.000
    7 C                 2.924       2.924      -0.000
    8 C                 2.924       2.924      -0.000
    9 C                 2.924       2.924      -0.000
   10 C                 2.924       2.924      -0.000
   11 C                 2.924       2.924      -0.000
   12 C                 2.924       2.924      -0.000
   13 C                 2.924       2.924      -0.000
   14 C                 2.924       2.924      -0.000
   15 C                 2.924       2.924      -0.000
   16 C                 2.924       2.924      -0.000
   17 O                 2.190       2.190      -0.000
   18 O                 2.190       2.190      -0.000
   19 O                 2.190       2.190      -0.000
   20 O                 2.190       2.190      -0.000
   21 O                 2.190       2.190      -0.000
   22 O                 2.190       2.190      -0.000
   23 O                 2.190       2.190      -0.000
   24 O                 2.190       2.190      -0.000
   25 O                 2.190       2.190      -0.000
   26 O                 2.190       2.190      -0.000
   27 O                 2.190       2.190      -0.000
   28 O                 2.190       2.190      -0.000

          ---------------------
          ELECTROSTATIC MOMENTS
          ---------------------

 POINT   1           X           Y           Z (BOHR)    CHARGE
                 0.000000   -0.000000    0.000000       -0.00 (A.U.)
         DX          DY          DZ         /D/  (DEBYE)
    -0.000000    0.000000   -0.000000    0.000000
 ...... END OF PROPERTY EVALUATION ......
 STEP CPU TIME =     1.03 TOTAL CPU TIME =       29.6 (    0.5 MIN)
 TOTAL WALL CLOCK TIME=       29.7 SECONDS, CPU UTILIZATION IS  99.60%

 BEGINNING ONE ELECTRON GRADIENT...
 TIME TO DO ORDINARY GRADIENT INTEGRALS=      1.25
 TIME TO DO      MCP GRADIENT INTEGRALS=     11.95
 ..... END OF 1-ELECTRON GRADIENT ......
 STEP CPU TIME =    13.20 TOTAL CPU TIME =       42.8 (    0.7 MIN)
 TOTAL WALL CLOCK TIME=       42.9 SECONDS, CPU UTILIZATION IS  99.63%

          ----------------------
          GRADIENT OF THE ENERGY
          ----------------------

 THE MINIMUM MEMORY REQUIRED FOR THIS RUN IS    1100405 WORDS.
 USING    2075925 WORDS FOR 2E- DERIVATIVE INTEGRAL CONTRIBUTIONS.
 THE COARSE/FINE SCHWARZ SCREENINGS SKIPPED       622869/      154590 BLOCKS.
 THE NUMBER OF GRADIENT INTEGRAL BLOCKS COMPUTED WAS    349284
 ...... END OF 2-ELECTRON GRADIENT ......
 STEP CPU TIME =    13.32 TOTAL CPU TIME =       56.1 (    0.9 MIN)
 TOTAL WALL CLOCK TIME=       56.3 SECONDS, CPU UTILIZATION IS  99.64%

                         ----------------------
                         GRADIENT OF THE ENERGY
                         ----------------------

 UNITS ARE HARTREE/BOHR    E'X               E'Y               E'Z 
    1 IR              -0.000002839       0.000002839       0.000002839
    2 IR               0.000002839      -0.000002839       0.000002839
    3 IR               0.000002839       0.000002839      -0.000002839
    4 IR              -0.000002839      -0.000002839      -0.000002839
    5 C                0.000002028       0.000000044      -0.000002028
    6 C               -0.000002028      -0.000000044      -0.000002028
    7 C               -0.000002028       0.000000044       0.000002028
    8 C                0.000002028       0.000002028      -0.000000044
    9 C               -0.000002028       0.000002028       0.000000044
   10 C               -0.000002028      -0.000002028      -0.000000044
   11 C                0.000002028      -0.000002028       0.000000044
   12 C               -0.000000044       0.000002028       0.000002028
   13 C                0.000000044      -0.000002028       0.000002028
   14 C               -0.000000044      -0.000002028      -0.000002028
   15 C                0.000000044       0.000002028      -0.000002028
   16 C                0.000002028      -0.000000044       0.000002028
   17 O               -0.000001298      -0.000000452       0.000001298
   18 O                0.000001298       0.000000452       0.000001298
   19 O                0.000001298      -0.000000452      -0.000001298
   20 O               -0.000001298      -0.000001298       0.000000452
   21 O                0.000001298      -0.000001298      -0.000000452
   22 O                0.000001298       0.000001298       0.000000452
   23 O               -0.000001298       0.000001298      -0.000000452
   24 O                0.000000452      -0.000001298      -0.000001298
   25 O               -0.000000452       0.000001298      -0.000001298
   26 O                0.000000452       0.000001298       0.000001298
   27 O               -0.000000452      -0.000001298       0.000001298
   28 O               -0.000001298       0.000000452      -0.000001298

                   MAXIMUM GRADIENT =    0.000002839
                       RMS GRADIENT =    0.000001684
  $VIB   
          IVIB=   0 IATOM=   0 ICOORD=   0 E=    -1659.1309107546
 -2.838968549E-06 2.838968548E-06 2.838968548E-06 2.838968549E-06-2.838968548E-06
  2.838968548E-06 2.838968549E-06 2.838968548E-06-2.838968548E-06-2.838968549E-06
 -2.838968548E-06-2.838968548E-06 2.027826574E-06 4.433124623E-08-2.027826574E-06
 -2.027826574E-06-4.433124623E-08-2.027826574E-06-2.027826574E-06 4.433124623E-08
  2.027826574E-06 2.027826574E-06 2.027826574E-06-4.433124623E-08-2.027826574E-06
  2.027826574E-06 4.433124623E-08-2.027826574E-06-2.027826574E-06-4.433124623E-08
  2.027826574E-06-2.027826574E-06 4.433124623E-08-4.433124623E-08 2.027826574E-06
  2.027826574E-06 4.433124623E-08-2.027826574E-06 2.027826574E-06-4.433124623E-08
 -2.027826574E-06-2.027826574E-06 4.433124623E-08 2.027826574E-06-2.027826574E-06
  2.027826574E-06-4.433124623E-08 2.027826574E-06-1.298278335E-06-4.522779059E-07
  1.298278337E-06 1.298278335E-06 4.522779059E-07 1.298278337E-06 1.298278335E-06
 -4.522779059E-07-1.298278337E-06-1.298278337E-06-1.298278335E-06 4.522779059E-07
  1.298278337E-06-1.298278335E-06-4.522779059E-07 1.298278337E-06 1.298278335E-06
  4.522779059E-07-1.298278337E-06 1.298278335E-06-4.522779059E-07 4.522779059E-07
 -1.298278337E-06-1.298278335E-06-4.522779059E-07 1.298278337E-06-1.298278335E-06
  4.522779059E-07 1.298278337E-06 1.298278335E-06-4.522779059E-07-1.298278337E-06
  1.298278335E-06-1.298278335E-06 4.522779059E-07-1.298278337E-06
 -3.973273408E-13 2.424599796E-12-1.336464692E-12

..... END OF SINGLE POINT GRADIENT .....
 STEP CPU TIME =     0.00 TOTAL CPU TIME =       56.1 (    0.9 MIN)
 TOTAL WALL CLOCK TIME=       56.3 SECONDS, CPU UTILIZATION IS  99.64%
              2075925  WORDS OF DYNAMIC MEMORY USED
 EXECUTION OF GAMESS TERMINATED NORMALLY Fri Jun  2 01:36:39 2017
 DDI: 263640 bytes (0.3 MB / 0 MWords) used by master data server.

 ----------------------------------------
 CPU timing information for all processes
 ========================================
 0: 53.62 + 3.23 = 56.86
 ----------------------------------------
 ddikick.x: exited gracefully.
unset echo
----- accounting info -----
Files used on the master node compute-0-8.local were:
-rw-rw-r-- 1 sarom sarom     135491 Jun  2 01:35 /scratch/mcp-ir4co12.F05
-rw-rw-r-- 1 sarom sarom 1391372752 Jun  2 01:35 /scratch/mcp-ir4co12.F08
-rw-rw-r-- 1 sarom sarom   17865120 Jun  2 01:36 /scratch/mcp-ir4co12.F10
rm: cannot remove `/scratch/sarom': Is a directory
rm: cannot remove `/scratch/tmp': Is a directory
ls: No match.
ls: No match.
ls: No match.
Fri Jun  2 01:36:42 CDT 2017
0.251u 0.360s 1:00.00 1.0%	0+0k 272+632io 0pf+0w
Deleting shmid=2785280.
Deleting shmid=2818049.
/opt/gridengine/default/spool/compute-0-8/active_jobs/23609.1/pe_hostfile compute-0-8.local
