-catch_rsh /opt/gridengine/default/spool/compute-0-2/active_jobs/23612.1/pe_hostfile
compute-0-2
The primary node assigned by SGE to this run is compute-0-2
Warning: no access to tty (Bad file descriptor).
Thus no job control in this shell.
Deleting shmid=3964928.
Deleting shmid=3997697.
Deleting shmid=4227074.
source /home/sarom/gamess.github.2017-05-31.14.06/install.info
setenv GMS_PATH /home/sarom/gamess.github.2017-05-31.14.06
setenv GMS_BUILD_DIR /home/sarom/gamess.github.2017-05-31.14.06
setenv GMS_TARGET linux64
setenv GMS_FORTRAN gfortran
setenv GMS_GFORTRAN_VERNO 4.4
setenv GMS_MATHLIB mkl-so
setenv GMS_MATHLIB_PATH /share/apps/intel/compilers_and_libraries_2017.1.132/linux/mkl/lib/intel64
setenv GMS_MKL_VERNO 12
setenv GMS_DDI_COMM sockets
setenv GMS_LIBCCHEM false
setenv GMS_EIGEN_PATH
setenv GMS_PHI false
setenv GMS_SHMTYPE sysv
setenv GMS_OPENMP false
unset echo
mcp-sbh3
tests/mcp
----- GAMESS execution script 'rungms' -----
This job is running on host compute-0-2.local
under operating system Linux at Fri Jun 2 01:36:12 CDT 2017
Available scratch disk space (Kbyte units) at beginning of the job is
Filesystem           1K-blocks      Used Available Use% Mounted on
/dev/sda1             16126920   3867312  11440408  26% /
GAMESS temporary binary files will be written to /scratch
GAMESS supplementary output files will be written to /home/sarom/restart
Copying input file mcp-sbh3.inp to your run's scratch directory...
cp tests/mcp/mcp-sbh3.inp /scratch/mcp-sbh3.F05
unset echo
The generated host list is
compute-0-2.local
/home/sarom/gamess.github.2017-05-31.14.06/ddikick.x /home/sarom/gamess.github.2017-05-31.14.06/gamess.00.x mcp-sbh3 -ddi 1 1 compute-0-2.local -scr /scratch

 Distributed Data Interface kickoff program.
 Initiating 1 compute processes on 1 nodes to run the following command:
 /home/sarom/gamess.github.2017-05-31.14.06/gamess.00.x mcp-sbh3 

          ******************************************************
          *         GAMESS VERSION = 20 APR 2017 (R1)          *
          *             FROM IOWA STATE UNIVERSITY             *
          * M.W.SCHMIDT, K.K.BALDRIDGE, J.A.BOATZ, S.T.ELBERT, *
          *   M.S.GORDON, J.H.JENSEN, S.KOSEKI, N.MATSUNAGA,   *
          *          K.A.NGUYEN, S.J.SU, T.L.WINDUS,           *
          *       TOGETHER WITH M.DUPUIS, J.A.MONTGOMERY       *
          *         J.COMPUT.CHEM.  14, 1347-1363(1993)        *
          **************** 64 BIT LINUX VERSION ****************

  SINCE 1993, STUDENTS AND POSTDOCS WORKING AT IOWA STATE UNIVERSITY
  AND ALSO IN THEIR VARIOUS JOBS AFTER LEAVING ISU HAVE MADE IMPORTANT
  CONTRIBUTIONS TO THE CODE:
     IVANA ADAMOVIC, CHRISTINE AIKENS, YURI ALEXEEV, POOJA ARORA,
     ANDREY ASADCHEV, ROB BELL, PRADIPTA BANDYOPADHYAY, JONATHAN BENTZ,
     BRETT BODE, KURT BRORSEN, CALEB CARLIN, GALINA CHABAN, WEI CHEN,
     CHEOL HO CHOI, PAUL DAY, ALBERT DEFUSCO, NUWAN DESILVA, TIM DUDLEY,
     DMITRI FEDOROV, GRAHAM FLETCHER, MARK FREITAG, KURT GLAESEMANN,
     DAN KEMP, GRANT MERRILL, NORIYUKI MINEZAWA, JONATHAN MULLIN,
     TAKESHI NAGATA, SEAN NEDD, HEATHER NETZLOFF, BOSILJKA NJEGIC, RYAN OLSON,
     MIKE PAK, SPENCER PRUITT, LUKE ROSKOP, JIM SHOEMAKER, LYUDMILA SLIPCHENKO,
     TONY SMITH, SAROM SOK LEANG, JIE SONG, TETSUYA TAKETSUGU, SIMON WEBB,
     PENG XU, SOOHAENG YOO, FEDERICO ZAHARIEV

  ADDITIONAL CODE HAS BEEN PROVIDED BY COLLABORATORS IN OTHER GROUPS:
     IOWA STATE UNIVERSITY:
          JOE IVANIC, AARON WEST, LAIMUTIS BYTAUTAS, KLAUS RUEDENBERG
     UNIVERSITY OF TOKYO: KIMIHIKO HIRAO, TAKAHITO NAKAJIMA,
          TAKAO TSUNEDA, MUNEAKI KAMIYA, SUSUMU YANAGISAWA,
          KIYOSHI YAGI, MAHITO CHIBA, SEIKEN TOKURA, NAOAKI KAWAKAMI
     UNIVERSITY OF AARHUS: FRANK JENSEN
     UNIVERSITY OF IOWA: VISVALDAS KAIRYS, HUI LI
     NATIONAL INST. OF STANDARDS AND TECHNOLOGY: WALT STEVENS, DAVID GARMER
     UNIVERSITY OF PISA: BENEDETTA MENNUCCI, JACOPO TOMASI
     UNIVERSITY OF MEMPHIS: HENRY KURTZ, PRAKASHAN KORAMBATH
     UNIVERSITY OF ALBERTA: TOBY ZENG, MARIUSZ KLOBUKOWSKI
     UNIVERSITY OF NEW ENGLAND: MARK SPACKMAN
     MIE UNIVERSITY: HIROAKI UMEDA
     NAT. INST. OF ADVANCED INDUSTRIAL SCIENCE AND TECHNOLOGY: KAZUO KITAURA
     MICHIGAN STATE UNIVERSITY:
          KAROL KOWALSKI, MARTA WLOCH, JEFFREY GOUR, JESSE LUTZ,
          WEI LI, PIOTR PIECUCH
     UNIVERSITY OF SILESIA: MONIKA MUSIAL, STANISLAW KUCHARSKI
     FACULTES UNIVERSITAIRES NOTRE-DAME DE LA PAIX:
          OLIVIER QUINET, BENOIT CHAMPAGNE
     UNIVERSITY OF CALIFORNIA - SANTA BARBARA: BERNARD KIRTMAN
     INSTITUTE FOR MOLECULAR SCIENCE:
          KAZUYA ISHIMURA, MICHIO KATOUDA, AND SHIGERU NAGASE
     UNIVERSITY OF NOTRE DAME: ANNA POMOGAEVA, DAN CHIPMAN
     KYUSHU UNIVERSITY:
          HARUYUKI NAKANO,
          FENG LONG GU, JACEK KORCHOWIEC, MARCIN MAKOWSKI, AND YURIKO AOKI,
          HIROTOSHI MORI AND EISAKU MIYOSHI
     PENNSYLVANIA STATE UNIVERSITY:
          TZVETELIN IORDANOV, CHET SWALINA, JONATHAN SKONE,
          SHARON HAMMES-SCHIFFER
     WASEDA UNIVERSITY:
          MASATO KOBAYASHI, TOMOKO AKAMA, TSUGUKI TOUMA,
          TAKESHI YOSHIKAWA, YASUHIRO IKABATA, JUNJI SEINO,
          YUYA NAKAJIMA, HIROMI NAKAI
     NANJING UNIVERSITY: SHUHUA LI
     UNIVERSITY OF NEBRASKA:
          PEIFENG SU, DEJUN SI, NANDUN THELLAMUREGE, YALI WANG, HUI LI
     UNIVERSITY OF ZURICH: ROBERTO PEVERATI, KIM BALDRIDGE
     N. COPERNICUS UNIVERSITY AND JACKSON STATE UNIVERSITY:
          MARIA BARYSZ
     UNIVERSITY OF COPENHAGEN: Jimmy Kromann, CASPER STEINMANN
     TOKYO INSTITUTE OF TECHNOLOGY: HIROYA NAKATA
     NAGOYA UNIVERSITY: YOSHIO NISHIMOTO, STEPHAN IRLE
     MOSCOW STATE UNIVERSITY: VLADIMIR MIRONOV

 EXECUTION OF GAMESS BEGUN Fri Jun  2 01:36:12 2017

            ECHO OF THE FIRST FEW INPUT CARDS -
 INPUT CARD>!   SbH3...MCP geometry optimization with analytical gradients                  
 INPUT CARD>!                                                                               
 INPUT CARD>!   NSERCH:   0  E=      -83.5923797348, 10 iters, R.M.S.=  0.0172012           
 INPUT CARD>!   NSERCH:   1  E=      -83.6054675937,  8 iters, R.M.S.=  0.0138116           
 INPUT CARD>!   NSERCH:   2  E=      -83.6161873875,  8 iters, R.M.S.=  0.0086362           
 INPUT CARD>!   NSERCH:   3  E=      -83.6190429435,  8 iters, R.M.S.=  0.0029859           
 INPUT CARD>!   NSERCH:   4  E=      -83.6192168919,  8 iters, R.M.S.=  0.0002443           
 INPUT CARD>!   NSERCH:   5  E=      -83.6192180675,  6 iters, R.M.S.=  0.0000028           
 INPUT CARD>!                                                                               
 INPUT CARD>!   This run takes 2 seconds on 2.66 GHz Cloverton (13 May 2013)                
 INPUT CARD>!       no significant change in results since 2008.                            
 INPUT CARD>!                                                                               
 INPUT CARD> $contrl scftyp=rhf runtyp=optimize units=bohr pp=mcp $end                      
 INPUT CARD> $system mwords=5 $end                                                          
 INPUT CARD> $basis  gbasis=mcp-dzp $end                                                    
 INPUT CARD> $statpt opttol=1.0d-5 $end                                                     
 INPUT CARD> $data                                                                          
 INPUT CARD>SbH3                                                                            
 INPUT CARD>Cnv 3                                                                           
 INPUT CARD>                                                                                
 INPUT CARD>Sb  51.0      .0000000000         .0000000000         .0000000000               
 INPUT CARD>H    1.0     3.1613280069         .0000000000        1.2554893838               
 INPUT CARD> $end                                                                           
    5000000 WORDS OF MEMORY AVAILABLE

 MODERN BASIS SET FAMILIES SUCH AS
      CC, PCSEG, SPK, KTZ, MCP, IMCP, ZFK
 ARE INTENDED FOR USE ONLY AS SPHERICAL HARMONIC BASIS SETS.

 PLEASE SET ISPHER=1 IN THE $CONTRL GROUP,
 IN ORDER TO USE GBASIS=MCP-DZP 

 EXECUTION OF GAMESS TERMINATED -ABNORMALLY- AT Fri Jun  2 01:36:12 2017
                    0  WORDS OF DYNAMIC MEMORY USED
 STEP CPU TIME =     0.00 TOTAL CPU TIME =        0.0 (    0.0 MIN)
 TOTAL WALL CLOCK TIME=        0.0 SECONDS, CPU UTILIZATION IS 100.00%
 DDI Process 0: error code 911
 ddikick.x: application process 0 quit unexpectedly.
 ddikick.x: Fatal error detected.
 The error is most likely to be in the application, so check for
 input errors, disk space, memory needs, application bugs, etc.
 ddikick.x will now clean up all processes, and exit...
 ddikick.x: Sending kill signal to DDI processes.
 ddikick.x: Execution terminated due to error(s).
unset echo
----- accounting info -----
Files used on the master node compute-0-2.local were:
-rw-rw-r-- 1 sarom sarom   903 Jun  2 01:36 /scratch/mcp-sbh3.F05
-rw-rw-r-- 1 sarom sarom 32720 Jun  2 01:36 /scratch/mcp-sbh3.F10
rm: cannot remove `/scratch/sarom': Is a directory
rm: cannot remove `/scratch/tmp': Is a directory
ls: No match.
ls: No match.
ls: No match.
Fri Jun  2 01:36:14 CDT 2017
0.148u 0.060s 0:02.29 8.7%	0+0k 8+376io 0pf+0w
Deleting shmid=3964928.
Deleting shmid=3997697.
Deleting shmid=4227074.
/opt/gridengine/default/spool/compute-0-2/active_jobs/23612.1/pe_hostfile compute-0-2.local
