-catch_rsh /opt/gridengine/default/spool/compute-0-1/active_jobs/23606.1/pe_hostfile
compute-0-1
The primary node assigned by SGE to this run is compute-0-1
Warning: no access to tty (Bad file descriptor).
Thus no job control in this shell.
source /home/sarom/gamess.github.2017-05-31.14.06/install.info
setenv GMS_PATH /home/sarom/gamess.github.2017-05-31.14.06
setenv GMS_BUILD_DIR /home/sarom/gamess.github.2017-05-31.14.06
setenv GMS_TARGET linux64
setenv GMS_FORTRAN gfortran
setenv GMS_GFORTRAN_VERNO 4.4
setenv GMS_MATHLIB mkl-so
setenv GMS_MATHLIB_PATH /share/apps/intel/compilers_and_libraries_2017.1.132/linux/mkl/lib/intel64
setenv GMS_MKL_VERNO 12
setenv GMS_DDI_COMM sockets
setenv GMS_LIBCCHEM false
setenv GMS_EIGEN_PATH
setenv GMS_PHI false
setenv GMS_SHMTYPE sysv
setenv GMS_OPENMP false
unset echo
mcp-bisn-grad
tests/mcp
----- GAMESS execution script 'rungms' -----
This job is running on host compute-0-1.local
under operating system Linux at Fri Jun 2 01:34:12 CDT 2017
Available scratch disk space (Kbyte units) at beginning of the job is
Filesystem           1K-blocks      Used Available Use% Mounted on
/dev/sda1             16126920   3867344  11440376  26% /
GAMESS temporary binary files will be written to /scratch
GAMESS supplementary output files will be written to /home/sarom/restart
Copying input file mcp-bisn-grad.inp to your run's scratch directory...
cp tests/mcp/mcp-bisn-grad.inp /scratch/mcp-bisn-grad.F05
unset echo
The generated host list is
compute-0-1.local
/home/sarom/gamess.github.2017-05-31.14.06/ddikick.x /home/sarom/gamess.github.2017-05-31.14.06/gamess.00.x mcp-bisn-grad -ddi 1 1 compute-0-1.local -scr /scratch

 Distributed Data Interface kickoff program.
 Initiating 1 compute processes on 1 nodes to run the following command:
 /home/sarom/gamess.github.2017-05-31.14.06/gamess.00.x mcp-bisn-grad 

          ******************************************************
          *         GAMESS VERSION = 20 APR 2017 (R1)          *
          *             FROM IOWA STATE UNIVERSITY             *
          * M.W.SCHMIDT, K.K.BALDRIDGE, J.A.BOATZ, S.T.ELBERT, *
          *   M.S.GORDON, J.H.JENSEN, S.KOSEKI, N.MATSUNAGA,   *
          *          K.A.NGUYEN, S.J.SU, T.L.WINDUS,           *
          *       TOGETHER WITH M.DUPUIS, J.A.MONTGOMERY       *
          *         J.COMPUT.CHEM.  14, 1347-1363(1993)        *
          **************** 64 BIT LINUX VERSION ****************

  SINCE 1993, STUDENTS AND POSTDOCS WORKING AT IOWA STATE UNIVERSITY
  AND ALSO IN THEIR VARIOUS JOBS AFTER LEAVING ISU HAVE MADE IMPORTANT
  CONTRIBUTIONS TO THE CODE:
     IVANA ADAMOVIC, CHRISTINE AIKENS, YURI ALEXEEV, POOJA ARORA,
     ANDREY ASADCHEV, ROB BELL, PRADIPTA BANDYOPADHYAY, JONATHAN BENTZ,
     BRETT BODE, KURT BRORSEN, CALEB CARLIN, GALINA CHABAN, WEI CHEN,
     CHEOL HO CHOI, PAUL DAY, ALBERT DEFUSCO, NUWAN DESILVA, TIM DUDLEY,
     DMITRI FEDOROV, GRAHAM FLETCHER, MARK FREITAG, KURT GLAESEMANN,
     DAN KEMP, GRANT MERRILL, NORIYUKI MINEZAWA, JONATHAN MULLIN,
     TAKESHI NAGATA, SEAN NEDD, HEATHER NETZLOFF, BOSILJKA NJEGIC, RYAN OLSON,
     MIKE PAK, SPENCER PRUITT, LUKE ROSKOP, JIM SHOEMAKER, LYUDMILA SLIPCHENKO,
     TONY SMITH, SAROM SOK LEANG, JIE SONG, TETSUYA TAKETSUGU, SIMON WEBB,
     PENG XU, SOOHAENG YOO, FEDERICO ZAHARIEV

  ADDITIONAL CODE HAS BEEN PROVIDED BY COLLABORATORS IN OTHER GROUPS:
     IOWA STATE UNIVERSITY:
          JOE IVANIC, AARON WEST, LAIMUTIS BYTAUTAS, KLAUS RUEDENBERG
     UNIVERSITY OF TOKYO: KIMIHIKO HIRAO, TAKAHITO NAKAJIMA,
          TAKAO TSUNEDA, MUNEAKI KAMIYA, SUSUMU YANAGISAWA,
          KIYOSHI YAGI, MAHITO CHIBA, SEIKEN TOKURA, NAOAKI KAWAKAMI
     UNIVERSITY OF AARHUS: FRANK JENSEN
     UNIVERSITY OF IOWA: VISVALDAS KAIRYS, HUI LI
     NATIONAL INST. OF STANDARDS AND TECHNOLOGY: WALT STEVENS, DAVID GARMER
     UNIVERSITY OF PISA: BENEDETTA MENNUCCI, JACOPO TOMASI
     UNIVERSITY OF MEMPHIS: HENRY KURTZ, PRAKASHAN KORAMBATH
     UNIVERSITY OF ALBERTA: TOBY ZENG, MARIUSZ KLOBUKOWSKI
     UNIVERSITY OF NEW ENGLAND: MARK SPACKMAN
     MIE UNIVERSITY: HIROAKI UMEDA
     NAT. INST. OF ADVANCED INDUSTRIAL SCIENCE AND TECHNOLOGY: KAZUO KITAURA
     MICHIGAN STATE UNIVERSITY:
          KAROL KOWALSKI, MARTA WLOCH, JEFFREY GOUR, JESSE LUTZ,
          WEI LI, PIOTR PIECUCH
     UNIVERSITY OF SILESIA: MONIKA MUSIAL, STANISLAW KUCHARSKI
     FACULTES UNIVERSITAIRES NOTRE-DAME DE LA PAIX:
          OLIVIER QUINET, BENOIT CHAMPAGNE
     UNIVERSITY OF CALIFORNIA - SANTA BARBARA: BERNARD KIRTMAN
     INSTITUTE FOR MOLECULAR SCIENCE:
          KAZUYA ISHIMURA, MICHIO KATOUDA, AND SHIGERU NAGASE
     UNIVERSITY OF NOTRE DAME: ANNA POMOGAEVA, DAN CHIPMAN
     KYUSHU UNIVERSITY:
          HARUYUKI NAKANO,
          FENG LONG GU, JACEK KORCHOWIEC, MARCIN MAKOWSKI, AND YURIKO AOKI,
          HIROTOSHI MORI AND EISAKU MIYOSHI
     PENNSYLVANIA STATE UNIVERSITY:
          TZVETELIN IORDANOV, CHET SWALINA, JONATHAN SKONE,
          SHARON HAMMES-SCHIFFER
     WASEDA UNIVERSITY:
          MASATO KOBAYASHI, TOMOKO AKAMA, TSUGUKI TOUMA,
          TAKESHI YOSHIKAWA, YASUHIRO IKABATA, JUNJI SEINO,
          YUYA NAKAJIMA, HIROMI NAKAI
     NANJING UNIVERSITY: SHUHUA LI
     UNIVERSITY OF NEBRASKA:
          PEIFENG SU, DEJUN SI, NANDUN THELLAMUREGE, YALI WANG, HUI LI
     UNIVERSITY OF ZURICH: ROBERTO PEVERATI, KIM BALDRIDGE
     N. COPERNICUS UNIVERSITY AND JACKSON STATE UNIVERSITY:
          MARIA BARYSZ
     UNIVERSITY OF COPENHAGEN: Jimmy Kromann, CASPER STEINMANN
     TOKYO INSTITUTE OF TECHNOLOGY: HIROYA NAKATA
     NAGOYA UNIVERSITY: YOSHIO NISHIMOTO, STEPHAN IRLE
     MOSCOW STATE UNIVERSITY: VLADIMIR MIRONOV

 EXECUTION OF GAMESS BEGUN Fri Jun  2 01:34:12 2017

            ECHO OF THE FIRST FEW INPUT CARDS -
 INPUT CARD>!    My arbitrary molecule S=Bi(SnH3)(SeH)At, meant to have lots                
 INPUT CARD>!    of core electrons to be removed by the potential, with lots of             
 INPUT CARD>!    polarization functions used to stress the PP integral package.             
 INPUT CARD>!    Basis on Bi,Sn,Se,At,S goes up to G functions, and H up to F.              
 INPUT CARD>!    Some of the f and g functions are contracted!                              
 INPUT CARD>!    499 AOs, 401 MOs using spherical harmonics, 36 occupied MOs                
 INPUT CARD>!                                                                               
 INPUT CARD>!    FINAL E= -381.4584404509, 17 iters, RMS grad= 0.005922055                  
 INPUT CARD>!                                                                               
 INPUT CARD>!    This run takes 2920 seconds on 2.66 GHz Cloverton ( 7 Apr 2015)            
 INPUT CARD>!    The AOINTS disk file takes 66 GBytes of storage.                           
 INPUT CARD>!    this has been a stable run since 2005                                      
 INPUT CARD>!                                                                               
 INPUT CARD>!    ------------------------------------------------------------------         
 INPUT CARD>!    a geometry optimization (direct SCF, 64 cores) went pretty well:           
 INPUT CARD>!        NSERCH:   0  E=     -381.4584404452  R.M.S.=  0.0059223                
 INPUT CARD>!        NSERCH:   1  E=     -381.4594319850  R.M.S.=  0.0040299                
 INPUT CARD>!        NSERCH:   2  E=     -381.4600494966  R.M.S.=  0.0020918                
 INPUT CARD>!        NSERCH:   3  E=     -381.4602551656  R.M.S.=  0.0005324                
 INPUT CARD>!        NSERCH:   4  E=     -381.4602663211  R.M.S.=  0.0002624                
 INPUT CARD>!        NSERCH:   5  E=     -381.4602751790  R.M.S.=  0.0002095                
 INPUT CARD>!        NSERCH:   6  E=     -381.4602798724  R.M.S.=  0.0002519                
 INPUT CARD>!           ...snipped...                                                       
 INPUT CARD>!        NSERCH:  18  E=     -381.4604003832  R.M.S.=  0.0000218                
 INPUT CARD>!        NSERCH:  19  E=     -381.4604003903  R.M.S.=  0.0000182                
 INPUT CARD>!        NSERCH:  20  E=     -381.4604004183  R.M.S.=  0.0000155                
 INPUT CARD>!        NSERCH:  21  E=     -381.4604004751  R.M.S.=  0.0000132                
 INPUT CARD>!           ...snipped...                                                       
 INPUT CARD>!        NSERCH:  28  E=     -381.4604016696  R.M.S.=  0.0000218                
 INPUT CARD>!        NSERCH:  29  E=     -381.4604016851  R.M.S.=  0.0000122                
 INPUT CARD>!        NSERCH:  30  E=     -381.4604016859  R.M.S.=  0.0000077    <---        
 INPUT CARD>!        NSERCH:  31  E=     -381.4604016822  R.M.S.=  0.0000046                
 INPUT CARD>!        NSERCH:  32  E=     -381.4604016817  R.M.S.=  0.0000025                
 INPUT CARD>!    although lowest E occurs at the antepenultimate geometry.                  
 INPUT CARD>!                                                                               
 INPUT CARD> $contrl scftyp=rhf runtyp=gradient pp=mcp nzvar=21 ispher=1 $end               
 INPUT CARD> $system mwords=5 $end                                                          
 INPUT CARD> $basis  gbasis=mcp-qzp $end                                                    
 INPUT CARD> $guess  guess=huckel $end                                                      
 INPUT CARD> $scf    dirscf=.false. $end                                                    
 INPUT CARD> $data                                                                          
 INPUT CARD>test on artificial molecule...Bi(SnH3)(SeH)At=S                                 
 INPUT CARD>C1                                                                              
 INPUT CARD>BI         83.0    .4070872775    .7782398266   -.3936725280                    
 INPUT CARD>SN         50.0   1.1414728458   1.1356145862   2.3848588864                    
 INPUT CARD>H           1.0   1.2527257999   -.4214651586   3.0224606970                    
 INPUT CARD>H           1.0   2.6177043590   1.9484947995   2.3495726821                    
 INPUT CARD>H           1.0   -.1127047214   2.0405969627   3.0535321693                    
 INPUT CARD>SE         34.0   2.0684890776  -1.1125182760  -1.2134154093                    
 INPUT CARD>H           1.0   2.1422107340   -.5803659875  -2.5852472725                    
    5000000 WORDS OF MEMORY AVAILABLE

     $BASIS REQUESTS READING THE "MCP-QZP " BASIS SET FROM AN EXTERNAL FILE


     RUN TITLE
     ---------
 test on artificial molecule...Bi(SnH3)(SeH)At=S                                 

 THE POINT GROUP OF THE MOLECULE IS C1      
 THE ORDER OF THE PRINCIPAL AXIS IS     0

 THE EXTERNAL BASIS SET FILE BEING READ IS
     "/home/sarom/gamess.github.2017-05-31.14.06/auxdata/MCP/MCP-QZP"
 *** WARNING! ATOM   1 SHELL    1 TYPE S HAS NORMALIZATION   1.31210905
 *** WARNING! ATOM   1 SHELL    5 TYPE P HAS NORMALIZATION   2.92283493
 *** WARNING! ATOM   2 SHELL   16 TYPE S HAS NORMALIZATION   1.69846519
 *** WARNING! ATOM   2 SHELL   20 TYPE P HAS NORMALIZATION   3.45769333
 *** WARNING! ATOM   3 SHELL   30 TYPE S HAS NORMALIZATION  11.44105573
 *** WARNING! ATOM   4 SHELL   40 TYPE S HAS NORMALIZATION  11.44105573
 *** WARNING! ATOM   5 SHELL   50 TYPE S HAS NORMALIZATION  11.44105573
 *** WARNING! ATOM   6 SHELL   60 TYPE S HAS NORMALIZATION   1.79995399
 *** WARNING! ATOM   6 SHELL   64 TYPE P HAS NORMALIZATION   3.27370486
 *** WARNING! ATOM   7 SHELL   75 TYPE S HAS NORMALIZATION  11.44105573
 *** WARNING! ATOM   8 SHELL   85 TYPE S HAS NORMALIZATION   1.22961300
 *** WARNING! ATOM   8 SHELL   89 TYPE P HAS NORMALIZATION   2.42458698
 *** WARNING! ATOM   9 SHELL  100 TYPE S HAS NORMALIZATION   2.17693465
 *** WARNING! ATOM   9 SHELL  103 TYPE P HAS NORMALIZATION   4.63134705

 ATOM      ATOMIC                      COORDINATES (BOHR)
           CHARGE         X                   Y                   Z
 BI         83.0     0.7692834076        1.4706600250       -0.7439332068
 SN         50.0     2.1570709010        2.1460003956        4.5067298147
 H           1.0     2.3673084996       -0.7964536631        5.7116225260
 H           1.0     4.9467439554        3.6821212596        4.4400485574
 H           1.0    -0.2129810410        3.8561691109        5.7703390947
 SE         34.0     3.9088775653       -2.1023546980       -2.2930226329
 H           1.0     4.0481912952       -1.0967326890       -4.8854089555
 AT         85.0    -4.0255543954       -1.1661790371       -0.4050083616
 S          16.0     0.7095575430        4.9736456198       -3.5687959502

          INTERNUCLEAR DISTANCES (ANGS.)
          ------------------------------

                1 BI         2 SN         3 H          4 H          5 H     

   1 BI      0.0000000    2.8960794 *  3.7181128    3.7123738    3.7076879  
   2 SN      2.8960794 *  0.0000000    1.6862416 *  1.6856093 *  1.6849565 *
   3 H       3.7181128    1.6862416 *  0.0000000    2.8164969 *  2.8155134 *
   4 H       3.7123738    1.6856093 *  2.8164969 *  0.0000000    2.8212011 *
   5 H       3.7076879    1.6849565 *  2.8155134 *  2.8212011 *  0.0000000  
   6 SE      2.6471117 *  4.3429297    4.3687150    4.7293047    5.7364260  
   7 H       3.1079677    5.3523846    5.6800371    5.5654002    6.6143725  
   8 AT      2.9012362 *  4.5312086    4.6860899    5.9748477    4.6704086  
   9 S       2.3815519 *  4.5921180    5.8489852    4.8431536    5.0011947  

                6 SE         7 H          8 AT         9 S     

   1 BI      2.6471117 *  3.1079677    2.9012362 *  2.3815519 *
   2 SN      4.3429297    5.3523846    4.5312086    4.5921180  
   3 H       4.3687150    5.6800371    4.6860899    5.8489852  
   4 H       4.7293047    5.5654002    5.9748477    4.8431536  
   5 H       5.7364260    6.6143725    4.6704086    5.0011947  
   6 SE      0.0000000    1.4732765 *  4.3442917    4.1644947  
   7 H       1.4732765 *  0.0000000    4.8863490    3.7317105  
   8 AT      4.3442917    4.8863490    0.0000000    4.4314696  
   9 S       4.1644947    3.7317105    4.4314696    0.0000000  

  * ... LESS THAN  3.000


     ATOMIC BASIS SET
     ----------------
 THE CONTRACTED PRIMITIVE FUNCTIONS HAVE BEEN UNNORMALIZED
 THE CONTRACTED BASIS FUNCTIONS ARE NOW NORMALIZED TO UNITY

  SHELL TYPE  PRIMITIVE        EXPONENT          CONTRACTION COEFFICIENT(S)

 BI        

      1   S       1          5462.3556000   -0.028611062662
      1   S       2           165.4015000    0.124131158125
      1   S       3            36.9771060   -0.326602311878
      1   S       4             7.1892336    0.695514236102
      1   S       5             1.9032417   -0.659353560393
      1   S       6             1.0203835   -0.661598578976

      2   S       7             0.3175052    1.000000000000

      3   S       8             0.1541883    1.000000000000

      4   S       9             0.0688121    1.000000000000

      5   P      10           601.0997700    0.047779290259
      5   P      11            45.1958310   -0.196664701726
      5   P      12             9.7074724    0.503958413134
      5   P      13             1.9440737   -0.649678394376
      5   P      14             1.1873132   -0.482102038122

      6   P      15             0.2425512    1.000000000000

      7   P      16             0.1034533    1.000000000000

      8   P      17             0.0441151    1.000000000000

      9   D      18           334.8962900    0.028088501239
      9   D      19            89.7887650    0.128944005689
      9   D      20            14.9632700   -0.149485406595
      9   D      21             9.4008471   -0.215855409523
      9   D      22             1.9070705    0.513147622638
      9   D      23             0.7894530    0.485225821407
      9   D      24             0.2980434    0.147342006500

     10   D      25             1.7217060   -0.140094975891
     10   D      26             0.3370590    1.040186820997

     11   D      27             0.6199550    1.000000000000

     12   D      28             0.1339640    1.000000000000

     13   F      29            22.5617700   -0.068585982389
     13   F      30             0.4413090    0.997848743783

     14   F      31             0.1647210    1.000000000000

     15   G      32             0.4877150    0.698648066590
     15   G      33             0.2096140    0.402861038398

 SN        

     16   S      34          1196.7726000    0.036408469664
     16   S      35            46.8928770   -0.205549616092
     16   S      36             8.6279989    0.579729819975
     16   S      37             1.9137679   -0.423502104389
     16   S      38             1.1266783   -0.808726917865

     17   S      39             0.2060910    1.000000000000

     18   S      40             0.1133978    1.000000000000

     19   S      41             0.0576388    1.000000000000

     20   P      42           172.0238200   -0.114289557941
     20   P      43            11.3749600    0.436851544621
     20   P      44             2.7356925   -0.479119079396
     20   P      45             1.2849986   -0.663610184967

     21   P      46             0.2353806    1.000000000000

     22   P      47             0.0975497    1.000000000000

     23   P      48             0.0398140    1.000000000000

     24   D      49           184.5279100   -0.019395201537
     24   D      50            50.3784200   -0.106143608409
     24   D      51            17.3677280   -0.200232215864
     24   D      52             2.6845857    0.448521735534
     24   D      53             1.0391519    0.524274741536
     24   D      54             0.3698411    0.180365714290

     25   D      55             0.2798700    1.000000000000

     26   D      56             0.1115050    1.000000000000

     27   F      57             0.4395140    1.000000000000

     28   F      58             0.1666170    1.000000000000

     29   G      59             0.4164700    0.667777957238
     29   G      60             0.1818290    0.433728972226

 H         

     30   S      61            82.6400000    0.022950757793
     30   S      62            12.4100000    0.175540118054
     30   S      63             2.8240000    0.864703550962

     31   S      64             0.7977000    1.000000000000

     32   S      65             0.2581000    1.000000000000

     33   S      66             0.0898900    1.000000000000

     34   P      67             2.2920000    1.000000000000

     35   P      68             0.8380000    1.000000000000

     36   P      69             0.2920000    1.000000000000

     37   D      70             2.0620000    1.000000000000

     38   D      71             0.6620000    1.000000000000

     39   F      72             1.3970000    1.000000000000

 H         

     40   S      73            82.6400000    0.022950757793
     40   S      74            12.4100000    0.175540118054
     40   S      75             2.8240000    0.864703550962

     41   S      76             0.7977000    1.000000000000

     42   S      77             0.2581000    1.000000000000

     43   S      78             0.0898900    1.000000000000

     44   P      79             2.2920000    1.000000000000

     45   P      80             0.8380000    1.000000000000

     46   P      81             0.2920000    1.000000000000

     47   D      82             2.0620000    1.000000000000

     48   D      83             0.6620000    1.000000000000

     49   F      84             1.3970000    1.000000000000

 H         

     50   S      85            82.6400000    0.022950757793
     50   S      86            12.4100000    0.175540118054
     50   S      87             2.8240000    0.864703550962

     51   S      88             0.7977000    1.000000000000

     52   S      89             0.2581000    1.000000000000

     53   S      90             0.0898900    1.000000000000

     54   P      91             2.2920000    1.000000000000

     55   P      92             0.8380000    1.000000000000

     56   P      93             0.2920000    1.000000000000

     57   D      94             2.0620000    1.000000000000

     58   D      95             0.6620000    1.000000000000

     59   F      96             1.3970000    1.000000000000

 SE        

     60   S      97           488.6004500   -0.070786610599
     60   S      98            16.9312510    0.532699803476
     60   S      99             8.8161702   -0.253426142087
     60   S     100             2.2760907   -1.046428091889

     61   S     101             0.3725495    1.000000000000

     62   S     102             0.2199739    1.000000000000

     63   S     103             0.1019273    1.000000000000

     64   P     104            68.5326200    0.276626751475
     64   P     105             3.9047922   -0.797183144990
     64   P     106             1.0943846   -0.278141494715

     65   P     107             0.5267629    1.000000000000

     66   P     108             0.1957811    1.000000000000

     67   P     109             0.0736157    1.000000000000

     68   D     110            81.0646250    0.034808300834
     68   D     111            21.9441940    0.161605603870
     68   D     112             7.4760873    0.416490209974
     68   D     113             2.6450001    0.488085811688
     68   D     114             0.8893511    0.189391904535

     69   D     115             0.6627100    1.000000000000

     70   D     116             0.3657540    1.000000000000

     71   D     117             0.1697690    1.000000000000

     72   F     118             0.6916970    1.000000000000

     73   F     119             0.2661280    1.000000000000

     74   G     120             0.7063880    0.611322704612
     74   G     121             0.3006430    0.500398758210

 H         

     75   S     122            82.6400000    0.022950757793
     75   S     123            12.4100000    0.175540118054
     75   S     124             2.8240000    0.864703550962

     76   S     125             0.7977000    1.000000000000

     77   S     126             0.2581000    1.000000000000

     78   S     127             0.0898900    1.000000000000

     79   P     128             2.2920000    1.000000000000

     80   P     129             0.8380000    1.000000000000

     81   P     130             0.2920000    1.000000000000

     82   D     131             2.0620000    1.000000000000

     83   D     132             0.6620000    1.000000000000

     84   F     133             1.3970000    1.000000000000

 AT        

     85   S     134          5990.1747000   -0.034341000835
     85   S     135           176.7916200    0.140506648255
     85   S     136            39.6433580   -0.363457249872
     85   S     137             7.7565428    0.763937409500
     85   S     138             2.2377038   -0.622639259356
     85   S     139             1.2712095   -0.737335101061

     86   S     140             0.3647787    1.000000000000

     87   S     141             0.1798432    1.000000000000

     88   S     142             0.0823155    1.000000000000

     89   P     143           641.2381500    0.053055297109
     89   P     144            47.8958420   -0.212025524266
     89   P     145            10.5803620    0.513752765477
     89   P     146             1.9389755   -0.958835651267
     89   P     147             0.9027980   -0.180717075114

     90   P     148             0.3405316    1.000000000000

     91   P     149             0.1429783    1.000000000000

     92   P     150             0.0587129    1.000000000000

     93   D     151           357.2767300    0.032265000714
     93   D     152            95.8567370    0.160615403552
     93   D     153            15.6308810   -0.236935105240
     93   D     154             9.9328167   -0.169901703758
     93   D     155             2.1543050    0.527867711674
     93   D     156             0.9242044    0.469406510381
     93   D     157             0.3598706    0.126804702804

     94   D     158             1.9070590   -0.174303966503
     94   D     159             0.4167980    1.056078797049

     95   D     160             0.7604280    1.000000000000

     96   D     161             0.1736020    1.000000000000

     97   F     162            25.5226370   -0.071338999544
     97   F     163             0.5048120    0.997668993617

     98   F     164             0.1775250    1.000000000000

     99   G     165             0.5153300    0.679557193407
     99   G     166             0.2271720    0.418494119107

 S         

    100   S     167            92.6936890    0.056600300917
    100   S     168             2.9953266   -1.010097677901

    101   S     169             0.3539724    1.000000000000

    102   S     170             0.1296217    1.000000000000

    103   P     171            31.7773090   -0.259355434744
    103   P     172             6.1605477   -0.852167857016

    104   P     173             0.4546203    1.000000000000

    105   P     174             0.1302469    1.000000000000

    106   D     175            16.3140290    0.009577997537
    106   D     176             3.6104810    0.062389983958
    106   D     177             0.3807370    0.987976745973

    107   D     178             0.9151520    1.000000000000

    108   D     179             0.1482330    1.000000000000

    109   F     180             0.8398700    1.000000000000

    110   F     181             0.3181540    1.000000000000

    111   G     182             0.8764110    0.589095925473
    111   G     183             0.3676200    0.526946933336

 TOTAL NUMBER OF BASIS SET SHELLS             =  111
 NUMBER OF CARTESIAN GAUSSIAN BASIS FUNCTIONS =  499
 NOTE: THIS RUN WILL RESTRICT THE MO VARIATION SPACE TO SPHERICAL HARMONICS.
 THE NUMBER OF ORBITALS KEPT IN THE VARIATIONAL SPACE WILL BE PRINTED LATER.
 NUMBER OF ELECTRONS                          =  272
 CHARGE OF MOLECULE                           =    0
 SPIN MULTIPLICITY                            =    1
 NUMBER OF OCCUPIED ORBITALS (ALPHA)          =  136
 NUMBER OF OCCUPIED ORBITALS (BETA )          =  136
 TOTAL NUMBER OF ATOMS                        =    9
 THE NUCLEAR REPULSION ENERGY IS     4452.4313034875
 NOTE THIS RUN IS USING CORE POTENTIALS, AND THE NUMBER OF ELECTRONS,
 OCCUPIED ORBITALS, AND NUCLEAR REPULSION ENERGY WILL BE ADJUSTED BELOW
 AFTER REMOVAL OF THE CORE CHARGES.

     $CONTRL OPTIONS
     ---------------
 SCFTYP=RHF          RUNTYP=GRADIENT     EXETYP=RUN     
 MPLEVL=       0     CITYP =NONE         CCTYP =NONE         VBTYP =NONE    
 DFTTYP=NONE         TDDFT =NONE    
 MULT  =       1     ICHARG=       0     NZVAR =      21     COORD =UNIQUE  
 PP    =MCP          RELWFN=NONE         LOCAL =NONE         NUMGRD=       F
 ISPHER=       1     NOSYM =       0     MAXIT =      30     UNITS =ANGS    
 PLTORB=       F     MOLPLT=       F     AIMPAC=       F     FRIEND=        
 NPRINT=       7     IREST =       0     GEOM  =INPUT   
 NORMF =       0     NORMP =       0     ITOL  =      20     ICUT  =       9
 INTTYP=BEST         GRDTYP=BEST         QMTTOL= 1.0E-06

     $SYSTEM OPTIONS
     ---------------
  REPLICATED MEMORY=     5000000 WORDS (ON EVERY NODE).
 DISTRIBUTED MEMDDI=           0 MILLION WORDS IN AGGREGATE,
 MEMDDI DISTRIBUTED OVER   1 PROCESSORS IS           0 WORDS/PROCESSOR.
 TOTAL MEMORY REQUESTED ON EACH PROCESSOR=     5000000 WORDS.
 TIMLIM=      525600.00 MINUTES, OR     365.0 DAYS.
 PARALL= F  BALTYP=  DLB     KDIAG=    0  COREFL= F
 MXSEQ2=     300 MXSEQ3=     150  mem10=         0

          ----------------
          MODEL-POTENTIALS
          ----------------
 BI      MCP-QZP 
 *******************************************************************************
 * Element : Bi
 * Basis : MCP segmented  (6111/5111/7211/21/2)
 * Effective Charge : 15.0
 * Term : 4S   Valence configuration : 1s(2)2p(3)
 * SCF energy : -71.76784071 a.u.
 * Valence Correlation energy : -0.06347373 a.u.
 * References
 * Authors : E. Miyoshi, Y. Sakai, K. Tanaka, M. Masamura,   [inner and valence s
 * Journal : J. Mol. Struct. (THEOCHEM), 451, 73-79 (1998)
 * Authors : T. Noro, M. Sekiya, Y. Osanai, E. Miyoshi, T. Koga,   [valence corre
 * Journal : J. Chem. Phys. 119, 5142 (2003)
 *******************************************************************************
 *** WARNING! THE MODEL-POTENTIAL ATOM Z=  83
    CORE-SHELL   12 TYPE F HAS NORMALIZATION   0.99983717 ***
 SN      MCP-QZP 
 *******************************************************************************
 * Element : Sn
 * Basis : MCP segmented  (5111/4111/611/11/2)
 * Effective Charge : 14.0
 * Term : 3P   Valence configuration : 1s(2)2p(2)
 * SCF energy : -69.02747616 a.u.
 * Valence Correlation energy : -0.05941278 a.u.
 * References
 * Authors : E. Miyoshi, Y. Sakai, K. Tanaka, M. Masamura,   [inner and valence s
 * Journal : J. Mol. Struct. (THEOCHEM), 451, 73-79 (1998)
 * Authors : M. Sekiya, T. Noro, Y. Osanai, T. Koga,   [valence correlated set]
 * Journal : Theor. Chem. Acc. 106, 297 (2001)
 *******************************************************************************
 SE      MCP-QZP 
 *******************************************************************************
 * Element : Se
 * Basis : MCP segmented  (4111/3111/5111/11/2)
 * Effective Charge : 16.0
 * Term : 3P   Valence configuration : 1s(2)2p(4)
 * SCF energy : -131.11830265 a.u.
 * Valence Correlation energy : -0.12806594 a.u.
 * References
 * Authors : E. Miyoshi, Y. Sakai, K. Tanaka, M. Masamura,   [inner and valence s
 * Journal : J. Mol. Struct. (THEOCHEM), 451, 73-79 (1998)
 * Authors : M. Sekiya, T. Noro, Y. Osanai, T. Koga,   [valence correlated set]
 * Journal : Theor. Chem. Acc. 106, 297 (2001)
 *******************************************************************************
 AT      MCP-QZP 
 *******************************************************************************
 * Element : At
 * Basis : MCP segmented  (6111/5111/7211/21/2)
 * Effective Charge : 17.0
 * Term : 2P   Valence configuration : 1s(2)2p(5)
 * SCF energy : -97.1888219 a.u.
 * Valence Correlation energy : -0.12767321 a.u.
 * References
 * Authors : E. Miyoshi, Y. Sakai, K. Tanaka, M. Masamura,   [inner and valence s
 * Journal : J. Mol. Struct. (THEOCHEM), 451, 73-79 (1998)
 * Authors : T. Noro, M. Sekiya, Y. Osanai, E. Miyoshi, T. Koga,   [valence corre
 * Journal : J. Chem. Phys. 119, 5142 (2003)
 *******************************************************************************
 *** WARNING! THE MODEL-POTENTIAL ATOM Z=  85
    CORE-SHELL   12 TYPE F HAS NORMALIZATION   0.99964402 ***
 S       MCP-QZP 
 *******************************************************************************
 * Element : S
 * Basis : MCP segmented  (211/211/311/11/2)
 * Effective Charge : 6.0
 * Term : 3P   Valence configuration : 1s(2)2p(4)
 * SCF energy : -9.94719373 a.u.
 * Valence Correlation energy : -0.14927269 a.u.
 * References
 * Authors : Y. Sakai, E. Miyoshi, M. Klobukowski, S. Huzinaga,   [inner and vale
 * Journal : J. Chem. Phys. 106, 8084-8092 (1997)
 * Authors : M. Sekiya, T. Noro, T. Koga, H. Matsuyama,   [valence correlated set
 * Journal : J. Mol. Struct. (Theochem) 451, 51 (1998)
 *******************************************************************************
 THE MCP PLACED ON ATOM    1 REMOVES ZCORE= 68
 THE MCP PLACED ON ATOM    2 REMOVES ZCORE= 36
 THE MCP PLACED ON ATOM    6 REMOVES ZCORE= 18
 THE MCP PLACED ON ATOM    8 REMOVES ZCORE= 68
 THE MCP PLACED ON ATOM    9 REMOVES ZCORE= 10

 THE MCP RUN REMOVES  200 CORE ELECTRONS, AND THE SAME NUMBER OF PROTONS.
 NUMBER OF ELECTRONS KEPT IN THE CALCULATION IS =   72
 NUMBER OF OCCUPIED ORBITALS (ALPHA) KEPT IS    =   36
 NUMBER OF OCCUPIED ORBITALS (BETA ) KEPT IS    =   36
 THE ADJUSTED NUCLEAR REPULSION ENERGY=      320.3352839871

     MODEL-POTENTIAL PARAMETERS
     --------------------------

  NO.    N                        ALPHA           A

 BI        
   1     0                      353.252270    2.058224
   2     0                        8.788539    1.241911
   3     0                        3.130933    0.501328
   1     1                     4770.344500  474.021260
   2     1                       60.029685   14.923593
   3     1                        1.156867    0.160388

 SN        
   1     0                      239.937970    2.090615
   2     0                        6.880170    0.642062
   3     0                        1.333055    0.178401
   1     1                     3158.649100    6.333627
   2     1                       42.061446    6.483051
   3     1                        1.235161    0.089852

 SE        
   1     0                      151.151540    0.651238
   2     0                       12.360410    0.242965
   3     0                        3.657611    0.069333
   1     1                      645.487390   13.368202
   2     1                       74.427466    4.997064
   3     1                        2.997280    0.355369

 AT        
   1     0                      392.612210    1.805883
   2     0                       11.252260    1.091354
   3     0                        3.700868    0.475328
   1     1                     4701.505600  442.091070
   2     1                       45.298433   12.293017
   3     1                        1.324535    0.129911

 S         
   1     0                      115.591650    0.603369
   2     0                        5.971141    0.956218
   3     0                        2.859090   -0.078412
   1     1                     2062.680100    6.293471
   2     1                      148.713810    5.719911
   3     1                        1.644010    0.038139

     CORE-SHELL BASIS SET FOR MODEL-POTENTIAL ATOMS
     ----------------------------------------------

 SHELL TYPE PRIM    EXPONENT          CONTRACTION COEFFICIENTS

 BI        

   1   S    PARAMETER B =      6719.609000
   1   S    1    566402.900000  293.115763 (  0.019920) 
   1   S    2     42728.246000  229.734812 (  0.108463) 
   1   S    3      6427.628100  203.039920 (  0.396856) 
   1   S    4      1384.301900   98.014910 (  0.605981) 
   1   S    5      2774.629200   -1.293510 ( -0.004747) 
   1   S    6       278.765410    1.874527 (  0.038553) 
   1   S    7       119.619990    1.296754 (  0.050303) 
   1   S    8       208.948390    0.396411 (  0.010121) 
   1   S    9        34.714071   -0.366329 ( -0.035940) 
   1   S   10        14.224318   -0.047538 ( -0.009107) 
   1   S   11         8.497441    0.000000 (  0.000000) 
   1   S   12         3.694375    0.000000 (  0.000000) 
   1   S   13         1.670083    0.000000 (  0.000000) 
   1   S   14         0.690577    0.000000 (  0.000000) 

   2   S    PARAMETER B =      1219.525600
   2   S   15    566402.900000  121.697228 (  0.008270) 
   2   S   16     42728.246000   95.382259 (  0.045032) 
   2   S   17      6427.628100   84.298877 (  0.164768) 
   2   S   18      1384.301900   40.694192 (  0.251593) 
   2   S   19      2774.629200   16.116309 (  0.059150) 
   2   S   20       278.765410  -23.355412 ( -0.480339) 
   2   S   21       119.619990  -16.156746 ( -0.626745) 
   2   S   22       208.948390    0.440421 (  0.011244) 
   2   S   23        34.714071   -0.406999 ( -0.039930) 
   2   S   24        14.224318   -0.052816 ( -0.010118) 
   2   S   25         8.497441    0.038108 (  0.010743) 
   2   S   26         3.694375    0.004894 (  0.002577) 
   2   S   27         1.670083    0.000000 (  0.000000) 
   2   S   28         0.690577    0.000000 (  0.000000) 

   3   S    PARAMETER B =       299.650820
   3   S   29    566402.900000   58.925397 (  0.004005) 
   3   S   30     42728.246000   46.183683 (  0.021804) 
   3   S   31      6427.628100   40.817105 (  0.079780) 
   3   S   32      1384.301900   19.703948 (  0.121820) 
   3   S   33      2774.629200    9.317797 (  0.034198) 
   3   S   34       278.765410  -13.503148 ( -0.277713) 
   3   S   35       119.619990   -9.341175 ( -0.362359) 
   3   S   36       208.948390  -11.643165 ( -0.297257) 
   3   S   37        34.714071   10.759632 (  1.055621) 
   3   S   38        14.224318    1.396272 (  0.267477) 
   3   S   39         8.497441   -0.069239 ( -0.019520) 
   3   S   40         3.694375   -0.008892 ( -0.004682) 
   3   S   41         1.670083    0.003475 (  0.003319) 
   3   S   42         0.690577    0.000399 (  0.000739) 

   4   S    PARAMETER B =        71.673200
   4   S   43    566402.900000   31.604436 (  0.002148) 
   4   S   44     42728.246000   24.770541 (  0.011695) 
   4   S   45      6427.628100   21.892304 (  0.042790) 
   4   S   46      1384.301900   10.568217 (  0.065338) 
   4   S   47      2774.629200    2.842784 (  0.010434) 
   4   S   48       278.765410   -4.119701 ( -0.084728) 
   4   S   49       119.619990   -2.849917 ( -0.110553) 
   4   S   50       208.948390  -12.925599 ( -0.329998) 
   4   S   51        34.714071   11.944751 (  1.171893) 
   4   S   52        14.224318    1.550065 (  0.296938) 
   4   S   53         8.497441   -4.625289 ( -1.303955) 
   4   S   54         3.694375   -0.593970 ( -0.312751) 
   4   S   55         1.670083    0.002466 (  0.002355) 
   4   S   56         0.690577    0.000283 (  0.000525) 

   5   S    PARAMETER B =        13.385447
   5   S   57    566402.900000   14.775125 (  0.001004) 
   5   S   58     42728.246000   11.579862 (  0.005467) 
   5   S   59      6427.628100   10.234308 (  0.020004) 
   5   S   60      1384.301900    4.940479 (  0.030545) 
   5   S   61      2774.629200    0.836882 (  0.003072) 
   5   S   62       278.765410   -1.212787 ( -0.024943) 
   5   S   63       119.619990   -0.838979 ( -0.032545) 
   5   S   64       208.948390   -7.268484 ( -0.185569) 
   5   S   65        34.714071    6.716922 (  0.658993) 
   5   S   66        14.224318    0.871652 (  0.166978) 
   5   S   67         8.497441   -4.431076 ( -1.249203) 
   5   S   68         3.694375   -0.569030 ( -0.299619) 
   5   S   69         1.670083    1.283078 (  1.225433) 
   5   S   70         0.690577    0.147388 (  0.272987) 

   6   P    PARAMETER B =      1047.837000
   6   P   71      8323.226600 2562.471534 (  0.022613) 
   6   P   72      1612.742700 2236.337422 (  0.153511) 
   6   P   73       466.391210 1455.296134 (  0.471057) 
   6   P   74       159.700050  391.082597 (  0.483278) 
   6   P   75        73.164884    9.685445 (  0.031754) 
   6   P   76        29.143820    3.882453 (  0.040224) 
   6   P   77        13.142588   -0.361309 ( -0.010129) 
   6   P   78         5.534688   -0.109308 ( -0.009033) 
   6   P   79         2.199622    0.000000 (  0.000000) 
   6   P   80         0.836347    0.000000 (  0.000000) 

   7   P    PARAMETER B =       249.676100
   7   P   81      8323.226600 1448.121520 (  0.012779) 
   7   P   82      1612.742700 1263.817757 (  0.086754) 
   7   P   83       466.391210  822.429752 (  0.266208) 
   7   P   84       159.700050  221.011996 (  0.273114) 
   7   P   85        73.164884 -155.832368 ( -0.510904) 
   7   P   86        29.143820  -62.466118 ( -0.647174) 
   7   P   87        13.142588   -1.214662 ( -0.034054) 
   7   P   88         5.534688   -0.367476 ( -0.030368) 
   7   P   89         2.199622    0.034109 (  0.008933) 
   7   P   90         0.836347    0.006532 (  0.005730) 

   8   P    PARAMETER B =        54.966000
   8   P   91      8323.226600  745.211856 (  0.006576) 
   8   P   92      1612.742700  650.361294 (  0.044644) 
   8   P   93       466.391210  423.222868 (  0.136991) 
   8   P   94       159.700050  113.732921 (  0.140545) 
   8   P   95        73.164884 -122.521647 ( -0.401693) 
   8   P   96        29.143820  -49.113371 ( -0.508834) 
   8   P   97        13.142588   24.421089 (  0.684658) 
   8   P   98         5.534688    7.388200 (  0.610565) 
   8   P   99         2.199622    0.058487 (  0.015317) 
   8   P  100         0.836347    0.011201 (  0.009825) 

   9   P    PARAMETER B =         8.493385
   9   P  101      8323.226600  319.436399 (  0.002819) 
   9   P  102      1612.742700  278.782660 (  0.019137) 
   9   P  103       466.391210  181.417680 (  0.058722) 
   9   P  104       159.700050   48.752482 (  0.060246) 
   9   P  105        73.164884  -57.730708 ( -0.189273) 
   9   P  106        29.143820  -23.141620 ( -0.239757) 
   9   P  107        13.142588   16.813211 (  0.471367) 
   9   P  108         5.534688    5.086561 (  0.420357) 
   9   P  109         2.199622   -2.989714 ( -0.782987) 
   9   P  110         0.836347   -0.572564 ( -0.502228) 

  10   D    PARAMETER B =       197.172680
  10   D  111       801.683790 7009.464907 (  0.035259) 
  10   D  112       219.910230 4578.740329 (  0.221517) 
  10   D  113        78.284208 1792.131025 (  0.528482) 
  10   D  114        30.390396  249.687832 (  0.385655) 
  10   D  115        27.155124    5.303718 (  0.009975) 
  10   D  116        11.305291    2.890253 (  0.025193) 
  10   D  117         4.636159    0.364725 (  0.015128) 
  10   D  118         2.938973   -0.033982 ( -0.003130) 
  10   D  119         1.117393   -0.010525 ( -0.005266) 
  10   D  120         0.392060   -0.000728 ( -0.002278) 

  11   D    PARAMETER B =        35.053900
  11   D  121       801.683790 3807.106655 (  0.019151) 
  11   D  122       219.910230 2486.892286 (  0.120315) 
  11   D  123        78.284208  973.376360 (  0.287039) 
  11   D  124        30.390396  135.615258 (  0.209464) 
  11   D  125        27.155124 -133.157176 ( -0.250446) 
  11   D  126        11.305291  -72.563926 ( -0.632511) 
  11   D  127         4.636159   -9.156937 ( -0.379808) 
  11   D  128         2.938973   -0.068874 ( -0.006343) 
  11   D  129         1.117393   -0.021332 ( -0.010672) 
  11   D  130         0.392060   -0.001476 ( -0.004616) 

  12   F    PARAMETER B =        13.188045
  12   F  131       136.445280 3984.526021 (  0.042544) 
  12   F  132        43.287788 1541.476056 (  0.217887) 
  12   F  133        16.562581  368.628578 (  0.452551) 
  12   F  134         6.542936   44.528037 (  0.441836) 
  12   F  135         2.418853    1.719836 (  0.160133) 

 SN        

  13   S    PARAMETER B =      2160.671600
  13   S  136     72666.147000   55.956814 (  0.017740) 
  13   S  137      7458.577000   69.070814 (  0.120751) 
  13   S  138      1448.048000   72.695821 (  0.434522) 
  13   S  139       373.134160   33.402245 (  0.552035) 
  13   S  140       620.620660   -0.422866 ( -0.004772) 
  13   S  141        67.452495    0.541499 (  0.032280) 
  13   S  142        28.889022    0.208650 (  0.023494) 
  13   S  143        53.962347    0.104602 (  0.007372) 
  13   S  144         9.164452   -0.091794 ( -0.024453) 
  13   S  145         4.048987   -0.015253 ( -0.007498) 
  13   S  146         8.116065    0.000000 (  0.000000) 
  13   S  147         1.777042    0.000000 (  0.000000) 
  13   S  148         0.765739    0.000000 (  0.000000) 

  14   S    PARAMETER B =       333.028150
  14   S  149     72666.147000   20.853062 (  0.006611) 
  14   S  150      7458.577000   25.740190 (  0.045000) 
  14   S  151      1448.048000   27.091128 (  0.161931) 
  14   S  152       373.134160   12.447818 (  0.205724) 
  14   S  153       620.620660    8.460115 (  0.095465) 
  14   S  154        67.452495  -10.833546 ( -0.645821) 
  14   S  155        28.889022   -4.174384 ( -0.470038) 
  14   S  156        53.962347    0.071636 (  0.005048) 
  14   S  157         9.164452   -0.062865 ( -0.016746) 
  14   S  158         4.048987   -0.010446 ( -0.005135) 
  14   S  159         8.116065   -0.004654 ( -0.001358) 
  14   S  160         1.777042    0.003818 (  0.003481) 
  14   S  161         0.765739    0.000815 (  0.001398) 

  15   S    PARAMETER B =        67.175532
  15   S  162     72666.147000    9.316673 (  0.002954) 
  15   S  163      7458.577000   11.500048 (  0.020105) 
  15   S  164      1448.048000   12.103591 (  0.072346) 
  15   S  165       373.134160    5.561355 (  0.091912) 
  15   S  166       620.620660    4.453507 (  0.050254) 
  15   S  167        67.452495   -5.702913 ( -0.339968) 
  15   S  168        28.889022   -2.197448 ( -0.247434) 
  15   S  169        53.962347   -4.200042 ( -0.295989) 
  15   S  170         9.164452    3.685792 (  0.981840) 
  15   S  171         4.048987    0.612457 (  0.301062) 
  15   S  172         8.116065   -0.003502 ( -0.001022) 
  15   S  173         1.777042    0.002874 (  0.002620) 
  15   S  174         0.765739    0.000614 (  0.001052) 

  16   S    PARAMETER B =        11.771644
  16   S  175     72666.147000    4.060588 (  0.001287) 
  16   S  176      7458.577000    5.012105 (  0.008762) 
  16   S  177      1448.048000    5.275136 (  0.031531) 
  16   S  178       373.134160    2.423820 (  0.040058) 
  16   S  179       620.620660    2.010531 (  0.022687) 
  16   S  180        67.452495   -2.574577 ( -0.153478) 
  16   S  181        28.889022   -0.992037 ( -0.111704) 
  16   S  182        53.962347   -2.450415 ( -0.172688) 
  16   S  183         9.164452    2.150388 (  0.572832) 
  16   S  184         4.048987    0.357324 (  0.175648) 
  16   S  185         8.116065    1.326483 (  0.387064) 
  16   S  186         1.777042   -1.088276 ( -0.992100) 
  16   S  187         0.765739   -0.232421 ( -0.398386) 

  17   P    PARAMETER B =       298.721820
  17   P  188      2041.791900  495.395884 (  0.025322) 
  17   P  189       430.727470  484.667839 (  0.173281) 
  17   P  190       130.443560  310.200570 (  0.493656) 
  17   P  191        45.581174   75.474539 (  0.447073) 
  17   P  192        20.630081    1.415129 (  0.022580) 
  17   P  193         8.539518    0.663607 (  0.031892) 
  17   P  194         3.661291    0.046593 (  0.006454) 
  17   P  195         2.865541   -0.055179 ( -0.010383) 
  17   P  196         1.251380   -0.021063 ( -0.011165) 
  17   P  197         0.517357   -0.001457 ( -0.002329) 

  18   P    PARAMETER B =        55.641553
  18   P  198      2041.791900  252.031346 (  0.012882) 
  18   P  199       430.727470  246.573070 (  0.088156) 
  18   P  200       130.443560  157.813423 (  0.251146) 
  18   P  201        45.581174   38.397396 (  0.227447) 
  18   P  202        20.630081  -27.691971 ( -0.441863) 
  18   P  203         8.539518  -12.985807 ( -0.624076) 
  18   P  204         3.661291   -0.911746 ( -0.126296) 
  18   P  205         2.865541   -0.005675 ( -0.001068) 
  18   P  206         1.251380   -0.002166 ( -0.001148) 
  18   P  207         0.517357   -0.000150 ( -0.000239) 

  19   P    PARAMETER B =         8.104162
  19   P  208      2041.791900  107.274487 (  0.005483) 
  19   P  209       430.727470  104.952314 (  0.037523) 
  19   P  210       130.443560   67.172267 (  0.106898) 
  19   P  211        45.581174   16.343611 (  0.096811) 
  19   P  212        20.630081  -16.776856 ( -0.267697) 
  19   P  213         8.539518   -7.867298 ( -0.378089) 
  19   P  214         3.661291   -0.552371 ( -0.076515) 
  19   P  215         2.865541    2.924180 (  0.550244) 
  19   P  216         1.251380    1.116232 (  0.591667) 
  19   P  217         0.517357    0.077198 (  0.123432) 

  20   D    PARAMETER B =        37.846092
  20   D  218       193.001030  789.029303 (  0.047968) 
  20   D  219        52.606049  450.248874 (  0.266214) 
  20   D  220        18.044522  141.965890 (  0.545972) 
  20   D  221         6.570293   15.665590 (  0.352991) 
  20   D  222         4.538816    0.156636 (  0.006743) 
  20   D  223         1.550296    0.047956 (  0.013527) 
  20   D  224         0.500239    0.003563 (  0.007274) 

 SE        

  21   S    PARAMETER B =       937.095020
  21   S  225     22445.644000  112.309015 (  0.085932) 
  21   S  226      2676.845000   34.247919 (  0.129124) 
  21   S  227       566.681790   36.638879 (  0.442617) 
  21   S  228       153.989870   15.869256 (  0.509363) 
  21   S  229       250.858270    0.182451 (  0.004061) 
  21   S  230        27.363200    0.221511 (  0.025978) 
  21   S  231        11.308765    0.075505 (  0.017179) 
  21   S  232        21.153987    0.038379 (  0.005459) 
  21   S  233         3.393299   -0.031398 ( -0.017621) 
  21   S  234         1.424691   -0.007920 ( -0.008521) 
  21   S  235         0.291691    0.000000 (  0.000000) 
  21   S  236         0.099188    0.000000 (  0.000000) 

  22   S    PARAMETER B =       124.787390
  22   S  237     22445.644000    8.624829 (  0.006599) 
  22   S  238      2676.845000   12.310286 (  0.046413) 
  22   S  239       566.681790   13.169696 (  0.159097) 
  22   S  240       153.989870    5.704142 (  0.183088) 
  22   S  241       250.858270    4.725297 (  0.105183) 
  22   S  242        27.363200   -5.736885 ( -0.672808) 
  22   S  243        11.308765   -1.955483 ( -0.444921) 
  22   S  244        21.153987    0.024307 (  0.003458) 
  22   S  245         3.393299   -0.019885 ( -0.011160) 
  22   S  246         1.424691   -0.005016 ( -0.005397) 
  22   S  247         0.291691    0.000620 (  0.002191) 
  22   S  248         0.099188    0.000080 (  0.000637) 

  23   S    PARAMETER B =        18.436860
  23   S  249     22445.644000    3.442116 (  0.002634) 
  23   S  250      2676.845000    4.912910 (  0.018523) 
  23   S  251       566.681790    5.255902 (  0.063494) 
  23   S  252       153.989870    2.276469 (  0.073069) 
  23   S  253       250.858270    2.197432 (  0.048914) 
  23   S  254        27.363200   -2.667858 ( -0.312880) 
  23   S  255        11.308765   -0.909370 ( -0.206904) 
  23   S  256        21.153987   -1.820664 ( -0.258985) 
  23   S  257         3.393299    1.489489 (  0.835912) 
  23   S  258         1.424691    0.375697 (  0.404238) 
  23   S  259         0.291691    0.001029 (  0.003639) 
  23   S  260         0.099188    0.000133 (  0.001058) 

  24   P    PARAMETER B =       109.444000
  24   P  261       744.870590  168.297145 (  0.030341) 
  24   P  262       160.604070  162.813903 (  0.199782) 
  24   P  263        48.734444   95.721226 (  0.521523) 
  24   P  264        16.754894   19.801518 (  0.409809) 
  24   P  265         7.738321    0.202335 (  0.010998) 
  24   P  266         3.006211    0.093921 (  0.016646) 
  24   P  267         1.222484    0.010188 (  0.005560) 
  24   P  268         0.435006   -0.002053 ( -0.004077) 
  24   P  269         0.123462   -0.000427 ( -0.004097) 

  25   P    PARAMETER B =        13.454666
  25   P  270       744.870590   73.519268 (  0.013254) 
  25   P  271       160.604070   71.123753 (  0.087273) 
  25   P  272        48.734444   41.814943 (  0.227822) 
  25   P  273        16.754894    8.650110 (  0.179021) 
  25   P  274         7.738321   -7.273839 ( -0.395380) 
  25   P  275         3.006211   -3.376391 ( -0.598395) 
  25   P  276         1.222484   -0.366237 ( -0.199879) 
  25   P  277         0.435006   -0.001071 ( -0.002126) 
  25   P  278         0.123462   -0.000223 ( -0.002137) 

 AT        

  26   S    PARAMETER B =      7107.847600
  26   S  279    636662.710000  326.013464 (  0.020295) 
  26   S  280     47355.860000  247.879889 (  0.108343) 
  26   S  281      6998.003800  215.184809 (  0.394612) 
  26   S  282      1485.869400  103.811895 (  0.608627) 
  26   S  283      3037.214600   -1.368938 ( -0.004695) 
  26   S  284       304.243120    1.991906 (  0.038366) 
  26   S  285       129.495970    1.456956 (  0.053253) 
  26   S  286       224.646390    0.421153 (  0.010184) 
  26   S  287        37.111202   -0.390957 ( -0.036483) 
  26   S  288        15.244625   -0.051199 ( -0.009311) 
  26   S  289         9.167218    0.000000 (  0.000000) 
  26   S  290         3.993346    0.000000 (  0.000000) 
  26   S  291         1.864578    0.000000 (  0.000000) 
  26   S  292         0.785091    0.000000 (  0.000000) 

  27   S    PARAMETER B =      1301.157100
  27   S  293    636662.710000  136.239978 (  0.008481) 
  27   S  294     47355.860000  103.588214 (  0.045276) 
  27   S  295      6998.003800   89.924976 (  0.164907) 
  27   S  296      1485.869400   43.382628 (  0.254343) 
  27   S  297      3037.214600   16.531702 (  0.056696) 
  27   S  298       304.243120  -24.055054 ( -0.463320) 
  27   S  299       129.495970  -17.594757 ( -0.643104) 
  27   S  300       224.646390    0.484812 (  0.011723) 
  27   S  301        37.111202   -0.450049 ( -0.041997) 
  27   S  302        15.244625   -0.058937 ( -0.010719) 
  27   S  303         9.167218    0.042886 (  0.011422) 
  27   S  304         3.993346    0.005450 (  0.002707) 
  27   S  305         1.864578    0.000000 (  0.000000) 
  27   S  306         0.785091    0.000000 (  0.000000) 

  28   S    PARAMETER B =       322.932120
  28   S  307    636662.710000   66.098389 (  0.004115) 
  28   S  308     47355.860000   50.256627 (  0.021966) 
  28   S  309      6998.003800   43.627905 (  0.080006) 
  28   S  310      1485.869400   21.047466 (  0.123397) 
  28   S  311      3037.214600    9.605689 (  0.032943) 
  28   S  312       304.243120  -13.977098 ( -0.269210) 
  28   S  313       129.495970  -10.223368 ( -0.373673) 
  28   S  314       224.646390  -12.161736 ( -0.294077) 
  28   S  315        37.111202   11.289710 (  1.053523) 
  28   S  316        15.244625    1.478469 (  0.268884) 
  28   S  317         9.167218   -0.074770 ( -0.019913) 
  28   S  318         3.993346   -0.009502 ( -0.004719) 
  28   S  319         1.864578    0.003732 (  0.003282) 
  28   S  320         0.785091    0.000403 (  0.000678) 

  29   S    PARAMETER B =        79.072780
  29   S  321    636662.710000   35.556721 (  0.002214) 
  29   S  322     47355.860000   27.034952 (  0.011816) 
  29   S  323      6998.003800   23.469123 (  0.043038) 
  29   S  324      1485.869400   11.322236 (  0.066380) 
  29   S  325      3037.214600    2.962514 (  0.010160) 
  29   S  326       304.243120   -4.310719 ( -0.083028) 
  29   S  327       129.495970   -3.153020 ( -0.115246) 
  29   S  328       224.646390  -13.631810 ( -0.329624) 
  29   S  329        37.111202   12.654379 (  1.180870) 
  29   S  330        15.244625    1.657182 (  0.301386) 
  29   S  331         9.167218   -4.938947 ( -1.315365) 
  29   S  332         3.993346   -0.627642 ( -0.311745) 
  29   S  333         1.864578    0.003454 (  0.003037) 
  29   S  334         0.785091    0.000373 (  0.000627) 

  30   S    PARAMETER B =        15.685012
  30   S  335    636662.710000   16.992047 (  0.001058) 
  30   S  336     47355.860000   12.919413 (  0.005647) 
  30   S  337      6998.003800   11.215320 (  0.020567) 
  30   S  338      1485.869400    5.410631 (  0.031721) 
  30   S  339      3037.214600    0.887675 (  0.003044) 
  30   S  340       304.243120   -1.291665 ( -0.024879) 
  30   S  341       129.495970   -0.944771 ( -0.034532) 
  30   S  342       224.646390   -7.875556 ( -0.190435) 
  30   S  343        37.111202    7.310862 (  0.682228) 
  30   S  344        15.244625    0.957410 (  0.174121) 
  30   S  345         9.167218   -4.893555 ( -1.303276) 
  30   S  346         3.993346   -0.621874 ( -0.308880) 
  30   S  347         1.864578    1.440049 (  1.266285) 
  30   S  348         0.785091    0.155375 (  0.261386) 

  31   P    PARAMETER B =      1111.988400
  31   P  349      8953.690500 2801.009147 (  0.022562) 
  31   P  350      1723.750900 2418.323859 (  0.152750) 
  31   P  351       496.479870 1570.250654 (  0.470058) 
  31   P  352       169.591960  423.034363 (  0.484930) 
  31   P  353        78.040481   10.580932 (  0.032003) 
  31   P  354        31.084569    4.271185 (  0.040825) 
  31   P  355        14.106232   -0.393495 ( -0.010098) 
  31   P  356         5.989433   -0.120315 ( -0.009008) 
  31   P  357         2.449806    0.000000 (  0.000000) 
  31   P  358         0.961967    0.000000 (  0.000000) 

  32   P    PARAMETER B =       268.295840
  32   P  359      8953.690500 1587.863856 (  0.012790) 
  32   P  360      1723.750900 1370.922897 (  0.086592) 
  32   P  361       496.479870  890.159062 (  0.266471) 
  32   P  362       169.591960  239.813860 (  0.274902) 
  32   P  363        78.040481 -168.275132 ( -0.508956) 
  32   P  364        31.084569  -67.927367 ( -0.649267) 
  32   P  365        14.106232   -1.345217 ( -0.034521) 
  32   P  366         5.989433   -0.411314 ( -0.030797) 
  32   P  367         2.449806    0.038494 (  0.008811) 
  32   P  368         0.961967    0.007395 (  0.005446) 

  33   P    PARAMETER B =        60.822760
  33   P  369      8953.690500  823.392423 (  0.006632) 
  33   P  370      1723.750900  710.896967 (  0.044903) 
  33   P  371       496.479870  461.594663 (  0.138180) 
  33   P  372       169.591960  124.356233 (  0.142551) 
  33   P  373        78.040481 -133.682314 ( -0.404328) 
  33   P  374        31.084569  -53.963337 ( -0.515796) 
  33   P  375        14.106232   26.732680 (  0.686023) 
  33   P  376         5.989433    8.173801 (  0.612001) 
  33   P  377         2.449806    0.069375 (  0.015880) 
  33   P  378         0.961967    0.013328 (  0.009815) 

  34   P    PARAMETER B =        10.213783
  34   P  379      8953.690500  364.513430 (  0.002936) 
  34   P  380      1723.750900  314.712977 (  0.019878) 
  34   P  381       496.479870  204.346733 (  0.061172) 
  34   P  382       169.591960   55.052227 (  0.063107) 
  34   P  383        78.040481  -65.253494 ( -0.197362) 
  34   P  384        31.084569  -26.340777 ( -0.251772) 
  34   P  385        14.106232   19.244696 (  0.493864) 
  34   P  386         5.989433    5.884271 (  0.440576) 
  34   P  387         2.449806   -3.508104 ( -0.803004) 
  34   P  388         0.961967   -0.673955 ( -0.496296) 

  35   D    PARAMETER B =       212.475170
  35   D  389       856.190180 7760.894145 (  0.034794) 
  35   D  390       234.648860 5081.797100 (  0.219470) 
  35   D  391        83.571311 2003.980038 (  0.527089) 
  35   D  392        32.497767  282.345140 (  0.387817) 
  35   D  393        29.447802    6.091583 (  0.009942) 
  35   D  394        12.376532    3.469505 (  0.025811) 
  35   D  395         5.126437    0.457011 (  0.015898) 
  35   D  396         3.346024   -0.042173 ( -0.003095) 
  35   D  397         1.324721   -0.014004 ( -0.005202) 
  35   D  398         0.485319   -0.000967 ( -0.002082) 

  36   D    PARAMETER B =        39.576586
  36   D  399       856.190180 4271.614441 (  0.019151) 
  36   D  400       234.648860 2797.028065 (  0.120797) 
  36   D  401        83.571311 1102.993347 (  0.290110) 
  36   D  402        32.497767  155.403168 (  0.213455) 
  36   D  403        29.447802 -148.781091 ( -0.242826) 
  36   D  404        12.376532  -84.739411 ( -0.630417) 
  36   D  405         5.126437  -11.162058 ( -0.388291) 
  36   D  406         3.346024   -0.093504 ( -0.006863) 
  36   D  407         1.324721   -0.031050 ( -0.011533) 
  36   D  408         0.485319   -0.002144 ( -0.004616) 

  37   F    PARAMETER B =        16.446274
  37   F  409       144.491960 4664.256105 (  0.043786) 
  37   F  410        46.195455 1812.787652 (  0.221411) 
  37   F  411        17.872652  438.879309 (  0.454067) 
  37   F  412         7.186670   54.212602 (  0.435625) 
  37   F  413         2.729331    2.140196 (  0.151889) 

 S         

  38   S    PARAMETER B =        96.604672
  38   S  414      3158.032900    6.862259 (  0.022856) 
  38   S  415       434.227270   10.770557 (  0.158869) 
  38   S  416        98.759464   10.997325 (  0.492542) 
  38   S  417        27.795217    3.980993 (  0.461428) 
  38   S  418        47.548414   -0.024686 ( -0.001913) 
  38   S  419         4.703444    0.028430 (  0.012490) 
  38   S  420         1.720138    0.009073 (  0.008476) 

  39   S    PARAMETER B =         9.454505
  39   S  421      3158.032900    2.070895 (  0.006897) 
  39   S  422       434.227270    3.250331 (  0.047944) 
  39   S  423        98.759464    3.318766 (  0.148639) 
  39   S  424        27.795217    1.201382 (  0.139249) 
  39   S  425        47.548414    1.315851 (  0.101963) 
  39   S  426         4.703444   -1.515386 ( -0.665735) 
  39   S  427         1.720138   -0.483633 ( -0.451786) 

  40   P    PARAMETER B =         7.016635
  40   P  428       193.103090   16.577583 (  0.016156) 
  40   P  429        42.295572   17.196176 (  0.111847) 
  40   P  430        12.926176   12.199578 (  0.349194) 
  40   P  431         4.446308    4.688288 (  0.509418) 
  40   P  432         1.575364    0.561494 (  0.223192) 

          ----------------
          PROPERTIES INPUT
          ----------------

     MOMENTS            FIELD           POTENTIAL          DENSITY
 IEMOM =       1   IEFLD =       0   IEPOT =       0   IEDEN =       0
 WHERE =COMASS     WHERE =NUCLEI     WHERE =NUCLEI     WHERE =NUCLEI  
 OUTPUT=BOTH       OUTPUT=BOTH       OUTPUT=BOTH       OUTPUT=BOTH    
 IEMINT=       0   IEFINT=       0                     IEDINT=       0
                                                       MORB  =       0
          EXTRAPOLATION IN EFFECT
          SOSCF IN EFFECT
 ORBITAL PRINTING OPTION: NPREO=     1   499     2     1

     -------------------------------
     INTEGRAL TRANSFORMATION OPTIONS
     -------------------------------
     NWORD  =            0
     CUTOFF = 1.0E-09     MPTRAN =       0
     DIRTRF =       F     AOINTS =DUP     

          ----------------------
          INTEGRAL INPUT OPTIONS
          ----------------------
 NOPK  =       1 NORDER=       0 SCHWRZ=       T

   --- ENCODED Z MATRIX ---
 COORD  TYPE   I   J   K   L   M   N
    1      1    1   2
    2      1    2   3
    3      1    2   4
    4      1    2   5
    5      1    1   6
    6      1    6   7
    7      1    1   8
    8      1    1   9
    9      2    2   1   6
   10      2    8   1   6
   11      2    9   1   6
   12      3    2   1   6   7
   13      3    8   1   6   7
   14      3    9   1   6   7
   15      2    3   2   1
   16      2    4   2   1
   17      2    5   2   1
   18      2    7   6   1
   19      3    3   2   1   6
   20      3    4   2   1   6
   21      3    5   2   1   6

 THE DETERMINANT OF THE G MATRIX IS 10**(   -30)

 THE DETERMINANT OF THE G MATRIX IS 10**(   -30)
 * * * WARNING * * *
 YOUR B MATRIX HAS A SMALL DETERMINANT.
 THIS SUGGESTS YOU MAY HAVE BADLY CHOSEN COORDINATES.


                     --------------------
                     INTERNAL COORDINATES
                     --------------------

                 - - ATOMS - -         COORDINATE      COORDINATE
 NO.   TYPE    I  J  K  L  M  N        (BOHR,RAD)       (ANG,DEG)
 ----------------------------------------------------------------
   1 STRETCH   1  2                     5.4727964       2.8960794
   2 STRETCH   2  3                     3.1865345       1.6862416
   3 STRETCH   2  4                     3.1853398       1.6856093
   4 STRETCH   2  5                     3.1841061       1.6849565
   5 STRETCH   1  6                     5.0023158       2.6471117
   6 STRETCH   6  7                     2.7840889       1.4732765
   7 STRETCH   1  8                     5.4825414       2.9012362
   8 STRETCH   1  9                     4.5004805       2.3815519
   9 BEND      2  1  6                  1.7988608     103.0671326
  10 BEND      8  1  6                  1.7972413     102.9743395
  11 BEND      9  1  6                  1.9497109     111.7102039
  12 TORSION   2  1  6  7              -2.5784720    -147.7355623
  13 TORSION   8  1  6  7               1.8426685     105.5771289
  14 TORSION   9  1  6  7              -0.2929473     -16.7846440
  15 BEND      3  2  1                  1.8395766     105.3999725
  16 BEND      4  2  1                  1.8353783     105.1594318
  17 BEND      5  2  1                  1.8320274     104.9674354
  18 BEND      7  6  1                  1.6325956      93.5408396
  19 TORSION   3  2  1  6              -0.8152994     -46.7132161
  20 TORSION   4  2  1  6               1.2786156      73.2592770
  21 TORSION   5  2  1  6              -2.9070925    -166.5641315

     ------------------------------------------
     THE POINT GROUP IS C1 , NAXIS= 0, ORDER= 1
     ------------------------------------------

 -- VARIATIONAL SPACE WILL BE RESTRICTED TO PURE SPHERICAL HARMONICS ONLY --
 AFTER EXCLUDING CONTAMINANT COMBINATIONS FROM THE CARTESIAN GAUSSIAN BASIS
 SET, THE NUMBER OF SPHERICAL HARMONICS KEPT IN THE VARIATION SPACE IS  401

     DIMENSIONS OF THE SYMMETRY SUBSPACES ARE
 A   =  401

 ..... DONE SETTING UP THE RUN .....
 STEP CPU TIME =     0.31 TOTAL CPU TIME =        0.3 (    0.0 MIN)
 TOTAL WALL CLOCK TIME=        0.3 SECONDS, CPU UTILIZATION IS  96.88%

                    --------------------------------
                    SINGLE POINT ENERGY AND GRADIENT
                    --------------------------------

          ********************
          1 ELECTRON INTEGRALS
          ********************
 TIME TO DO ORDINARY INTEGRALS=      0.06
 TIME TO DO      MCP INTEGRALS=      0.21
 ...... END OF ONE-ELECTRON INTEGRALS ......
 STEP CPU TIME =     0.27 TOTAL CPU TIME =        0.6 (    0.0 MIN)
 TOTAL WALL CLOCK TIME=        0.6 SECONDS, CPU UTILIZATION IS  96.67%

          -------------
          GUESS OPTIONS
          -------------
          GUESS =HUCKEL            NORB  =       0          NORDER=       0
          MIX   =       F          PRTMO =       F          PUNMO =       F
          TOLZ  = 1.0E-08          TOLE  = 1.0E-05
          SYMDEN=       F          PURIFY=       F

 INITIAL GUESS ORBITALS GENERATED BY HUCKEL   ROUTINE.
 HUCKEL GUESS REQUIRES   1905532 WORDS.

 STATISTICS FOR GENERATION OF SYMMETRY ORBITAL -Q- MATRIX
 NUMBER OF CARTESIAN ATOMIC ORBITALS=        499
 NUMBER OF SPHERICAL CONTAMINANTS DROPPED=    98
 NUMBER OF LINEARLY DEPENDENT MOS DROPPED=     0
 TOTAL NUMBER OF MOS IN VARIATION SPACE=     401

 SYMMETRIES FOR INITIAL GUESS ORBITALS FOLLOW.   BOTH SET(S).
    36 ORBITALS ARE OCCUPIED (   20 CORE ORBITALS).
    21=A       22=A       23=A       24=A       25=A       26=A       27=A   
    28=A       29=A       30=A       31=A       32=A       33=A       34=A   
    35=A       36=A       37=A       38=A       39=A       40=A       41=A   
    42=A       43=A       44=A       45=A       46=A   
 ...... END OF INITIAL ORBITAL SELECTION ......
 STEP CPU TIME =     0.86 TOTAL CPU TIME =        1.4 (    0.0 MIN)
 TOTAL WALL CLOCK TIME=        1.5 SECONDS, CPU UTILIZATION IS  99.31%

                    ----------------------
                    AO INTEGRAL TECHNOLOGY
                    ----------------------
     S,P,L SHELL ROTATED AXIS INTEGRALS, REPROGRAMMED BY
        KAZUYA ISHIMURA (IMS) AND JOSE SIERRA (SYNSTAR).
     S,P,D,L SHELL ROTATED AXIS INTEGRALS PROGRAMMED BY
        KAZUYA ISHIMURA (INSTITUTE FOR MOLECULAR SCIENCE).
     S,P,D,F,G SHELL TO TOTAL QUARTET ANGULAR MOMENTUM SUM 5,
        ERIC PROGRAM BY GRAHAM FLETCHER (ELORET AND NASA ADVANCED
        SUPERCOMPUTING DIVISION, AMES RESEARCH CENTER).
     S,P,D,F,G,L SHELL GENERAL RYS QUADRATURE PROGRAMMED BY
        MICHEL DUPUIS (PACIFIC NORTHWEST NATIONAL LABORATORY).

          --------------------
          2 ELECTRON INTEGRALS
          --------------------

 THE -PK- OPTION IS OFF, THE INTEGRALS ARE NOT IN SUPERMATRIX FORM.
 STORING   15000 INTEGRALS/RECORD ON DISK, USING 16 BYTES/INTEGRAL.
 TWO ELECTRON INTEGRAL EVALUATION REQUIRES  145941 WORDS OF MEMORY.
 SCHWARZ INEQUALITY OVERHEAD:    116973 INTEGRALS, T=        0.34
 II,JST,KST,LST =  1  1  1  1 NREC =         1 INTLOC =    1
 II,JST,KST,LST =  2  1  1  1 NREC =         1 INTLOC =    2
 II,JST,KST,LST =  3  1  1  1 NREC =         1 INTLOC =    7
 II,JST,KST,LST =  4  1  1  1 NREC =         1 INTLOC =   22
 II,JST,KST,LST =  5  1  1  1 NREC =         1 INTLOC =   56
 II,JST,KST,LST =  6  1  1  1 NREC =         1 INTLOC =  125
 II,JST,KST,LST =  7  1  1  1 NREC =         1 INTLOC =  329
 II,JST,KST,LST =  8  1  1  1 NREC =         1 INTLOC =  776
 II,JST,KST,LST =  9  1  1  1 NREC =         1 INTLOC = 1637
 II,JST,KST,LST = 10  1  1  1 NREC =         1 INTLOC = 4868
 II,JST,KST,LST = 11  1  1  1 NREC =         1 INTLOC =12014
 II,JST,KST,LST = 12  1  1  1 NREC =         2 INTLOC =10415
 II,JST,KST,LST = 13  1  1  1 NREC =         4 INTLOC = 3419
 II,JST,KST,LST = 14  1  1  1 NREC =         8 INTLOC = 4259
 II,JST,KST,LST = 15  1  1  1 NREC =        15 INTLOC =10502
 II,JST,KST,LST = 16  1  1  1 NREC =        36 INTLOC = 2504
 II,JST,KST,LST = 17  1  1  1 NREC =        50 INTLOC = 3411
 II,JST,KST,LST = 18  1  1  1 NREC =        65 INTLOC = 6500
 II,JST,KST,LST = 19  1  1  1 NREC =        81 INTLOC = 3629
 II,JST,KST,LST = 20  1  1  1 NREC =        97 INTLOC =10020
 II,JST,KST,LST = 21  1  1  1 NREC =       148 INTLOC = 2591
 II,JST,KST,LST = 22  1  1  1 NREC =       207 INTLOC = 2495
 II,JST,KST,LST = 23  1  1  1 NREC =       272 INTLOC =10256
 II,JST,KST,LST = 24  1  1  1 NREC =       345 INTLOC = 1434
 II,JST,KST,LST = 25  1  1  1 NREC =       511 INTLOC =11255
 II,JST,KST,LST = 26  1  1  1 NREC =       711 INTLOC = 6644
 II,JST,KST,LST = 27  1  1  1 NREC =       947 INTLOC = 3890
 II,JST,KST,LST = 28  1  1  1 NREC =      1428 INTLOC =13193
 II,JST,KST,LST = 29  1  1  1 NREC =      2036 INTLOC = 7160
 II,JST,KST,LST = 30  1  1  1 NREC =      3218 INTLOC = 8429
 II,JST,KST,LST = 31  1  1  1 NREC =      3304 INTLOC = 8826
 II,JST,KST,LST = 32  1  1  1 NREC =      3402 INTLOC = 7279
 II,JST,KST,LST = 33  1  1  1 NREC =      3507 INTLOC =12529
 II,JST,KST,LST = 34  1  1  1 NREC =      3615 INTLOC = 8172
 II,JST,KST,LST = 35  1  1  1 NREC =      3904 INTLOC =12410
 II,JST,KST,LST = 36  1  1  1 NREC =      4239 INTLOC =13477
 II,JST,KST,LST = 37  1  1  1 NREC =      4614 INTLOC = 6100
 II,JST,KST,LST = 38  1  1  1 NREC =      5333 INTLOC = 3060
 II,JST,KST,LST = 39  1  1  1 NREC =      6204 INTLOC =14724
 II,JST,KST,LST = 40  1  1  1 NREC =      7792 INTLOC = 6060
 II,JST,KST,LST = 41  1  1  1 NREC =      7932 INTLOC =10734
 II,JST,KST,LST = 42  1  1  1 NREC =      8107 INTLOC = 9073
 II,JST,KST,LST = 43  1  1  1 NREC =      8302 INTLOC = 3936
 II,JST,KST,LST = 44  1  1  1 NREC =      8502 INTLOC =  371
 II,JST,KST,LST = 45  1  1  1 NREC =      8974 INTLOC =11516
 II,JST,KST,LST = 46  1  1  1 NREC =      9563 INTLOC = 7221
 II,JST,KST,LST = 47  1  1  1 NREC =     10233 INTLOC =  988
 II,JST,KST,LST = 48  1  1  1 NREC =     11383 INTLOC = 8282
 II,JST,KST,LST = 49  1  1  1 NREC =     12878 INTLOC =11109
 II,JST,KST,LST = 50  1  1  1 NREC =     15411 INTLOC = 6586
 II,JST,KST,LST = 51  1  1  1 NREC =     15607 INTLOC = 3617
 II,JST,KST,LST = 52  1  1  1 NREC =     15870 INTLOC = 3524
 II,JST,KST,LST = 53  1  1  1 NREC =     16189 INTLOC = 2102
 II,JST,KST,LST = 54  1  1  1 NREC =     16518 INTLOC = 8772
 II,JST,KST,LST = 55  1  1  1 NREC =     17168 INTLOC =10744
 II,JST,KST,LST = 56  1  1  1 NREC =     18036 INTLOC =10966
 II,JST,KST,LST = 57  1  1  1 NREC =     19104 INTLOC =  231
 II,JST,KST,LST = 58  1  1  1 NREC =     20666 INTLOC = 3202
 II,JST,KST,LST = 59  1  1  1 NREC =     22891 INTLOC = 4485
 II,JST,KST,LST = 60  1  1  1 NREC =     26313 INTLOC =13722
 II,JST,KST,LST = 61  1  1  1 NREC =     26525 INTLOC =11372
 II,JST,KST,LST = 62  1  1  1 NREC =     26811 INTLOC =11720
 II,JST,KST,LST = 63  1  1  1 NREC =     27181 INTLOC =  798
 II,JST,KST,LST = 64  1  1  1 NREC =     27651 INTLOC =12730
 II,JST,KST,LST = 65  1  1  1 NREC =     28353 INTLOC =  373
 II,JST,KST,LST = 66  1  1  1 NREC =     29231 INTLOC = 9893
 II,JST,KST,LST = 67  1  1  1 NREC =     30548 INTLOC = 1324
 II,JST,KST,LST = 68  1  1  1 NREC =     32174 INTLOC = 7526
 II,JST,KST,LST = 69  1  1  1 NREC =     33926 INTLOC =11818
 II,JST,KST,LST = 70  1  1  1 NREC =     36033 INTLOC =  204
 II,JST,KST,LST = 71  1  1  1 NREC =     38560 INTLOC =13796
 II,JST,KST,LST = 72  1  1  1 NREC =     42216 INTLOC = 3750
 II,JST,KST,LST = 73  1  1  1 NREC =     46659 INTLOC =10192
 PWRT: NODE   0 ENCOUNTERED I/O ERROR WRITING UNIT   8
 EXECUTION OF GAMESS TERMINATED -ABNORMALLY- AT Fri Jun  2 01:36:00 2017
              1906735  WORDS OF DYNAMIC MEMORY USED
 STEP CPU TIME =    44.77 TOTAL CPU TIME =       46.2 (    0.8 MIN)
 TOTAL WALL CLOCK TIME=      108.2 SECONDS, CPU UTILIZATION IS  42.70%
 DDI Process 0: error code 911
 ddikick.x: application process 0 quit unexpectedly.
 ddikick.x: Fatal error detected.
 The error is most likely to be in the application, so check for
 input errors, disk space, memory needs, application bugs, etc.
 ddikick.x will now clean up all processes, and exit...
 ddikick.x: Sending kill signal to DDI processes.
 ddikick.x: Execution terminated due to error(s).
unset echo
----- accounting info -----
Files used on the master node compute-0-1.local were:
-rw-rw-r-- 1 sarom sarom        3533 Jun  2 01:34 /scratch/mcp-bisn-grad.F05
-rw-rw-r-- 1 sarom sarom 11697430528 Jun  2 01:36 /scratch/mcp-bisn-grad.F08
-rw-rw-r-- 1 sarom sarom    15345680 Jun  2 01:36 /scratch/mcp-bisn-grad.F10
rm: cannot remove `/scratch/sarom': Is a directory
rm: cannot remove `/scratch/tmp': Is a directory
ls: No match.
ls: No match.
ls: No match.
Fri Jun  2 01:36:04 CDT 2017
0.258u 1.395s 1:51.99 1.4%	0+0k 8+352io 0pf+0w
/opt/gridengine/default/spool/compute-0-1/active_jobs/23606.1/pe_hostfile compute-0-1.local
