----- GAMESS execution script 'rungms' -----
This job is running on host compute-3-0
under operating system Linux at Mon Nov 28 20:22:19 CST 2016
Available scratch disk space (Kbyte units) at beginning of the job is
Filesystem            1K-blocks       Used  Available Use% Mounted on
bolt.local:/export/home/sarom
                     9590469632 1552944128 7550357504  18% /home/sarom
Copying input file mcp-f2.inp to your run's scratch directory...
cp mcp-f2.inp .//mcp-f2.F05
unset echo
/home/sarom/gamessGH/ddikick.x /home/sarom/gamessGH/gamess.00.x mcp-f2 -ddi 1 1 localhost -scr ./

 Distributed Data Interface kickoff program.
 Initiating 1 compute processes on 1 nodes to run the following command:
 /home/sarom/gamessGH/gamess.00.x mcp-f2 

          ******************************************************
          *         GAMESS VERSION = 18 AUG 2016 (R1)          *
          *             FROM IOWA STATE UNIVERSITY             *
          * M.W.SCHMIDT, K.K.BALDRIDGE, J.A.BOATZ, S.T.ELBERT, *
          *   M.S.GORDON, J.H.JENSEN, S.KOSEKI, N.MATSUNAGA,   *
          *          K.A.NGUYEN, S.J.SU, T.L.WINDUS,           *
          *       TOGETHER WITH M.DUPUIS, J.A.MONTGOMERY       *
          *         J.COMPUT.CHEM.  14, 1347-1363(1993)        *
          **************** 64 BIT LINUX VERSION ****************

  SINCE 1993, STUDENTS AND POSTDOCS WORKING AT IOWA STATE UNIVERSITY
  AND ALSO IN THEIR VARIOUS JOBS AFTER LEAVING ISU HAVE MADE IMPORTANT
  CONTRIBUTIONS TO THE CODE:
     IVANA ADAMOVIC, CHRISTINE AIKENS, YURI ALEXEEV, POOJA ARORA,
     ANDREY ASADCHEV, ROB BELL, PRADIPTA BANDYOPADHYAY, JONATHAN BENTZ,
     BRETT BODE, KURT BRORSEN, CALEB CARLIN, GALINA CHABAN, WEI CHEN,
     CHEOL HO CHOI, PAUL DAY, ALBERT DEFUSCO, NUWAN DESILVA, TIM DUDLEY,
     DMITRI FEDOROV, GRAHAM FLETCHER, MARK FREITAG, KURT GLAESEMANN,
     DAN KEMP, GRANT MERRILL, NORIYUKI MINEZAWA, JONATHAN MULLIN,
     TAKESHI NAGATA, SEAN NEDD, HEATHER NETZLOFF, BOSILJKA NJEGIC, RYAN OLSON,
     MIKE PAK, SPENCER PRUITT, LUKE ROSKOP, JIM SHOEMAKER, LYUDMILA SLIPCHENKO,
     TONY SMITH, SAROM SOK LEANG, JIE SONG, TETSUYA TAKETSUGU, SIMON WEBB,
     PENG XU, SOOHAENG YOO, FEDERICO ZAHARIEV

  ADDITIONAL CODE HAS BEEN PROVIDED BY COLLABORATORS IN OTHER GROUPS:
     IOWA STATE UNIVERSITY:
          JOE IVANIC, AARON WEST, LAIMUTIS BYTAUTAS, KLAUS RUEDENBERG
     UNIVERSITY OF TOKYO: KIMIHIKO HIRAO, TAKAHITO NAKAJIMA,
          TAKAO TSUNEDA, MUNEAKI KAMIYA, SUSUMU YANAGISAWA,
          KIYOSHI YAGI, MAHITO CHIBA, SEIKEN TOKURA, NAOAKI KAWAKAMI
     UNIVERSITY OF AARHUS: FRANK JENSEN
     UNIVERSITY OF IOWA: VISVALDAS KAIRYS, HUI LI
     NATIONAL INST. OF STANDARDS AND TECHNOLOGY: WALT STEVENS, DAVID GARMER
     UNIVERSITY OF PISA: BENEDETTA MENNUCCI, JACOPO TOMASI
     UNIVERSITY OF MEMPHIS: HENRY KURTZ, PRAKASHAN KORAMBATH
     UNIVERSITY OF ALBERTA: TOBY ZENG, MARIUSZ KLOBUKOWSKI
     UNIVERSITY OF NEW ENGLAND: MARK SPACKMAN
     MIE UNIVERSITY: HIROAKI UMEDA
     NAT. INST. OF ADVANCED INDUSTRIAL SCIENCE AND TECHNOLOGY: KAZUO KITAURA
     MICHIGAN STATE UNIVERSITY:
          KAROL KOWALSKI, MARTA WLOCH, JEFFREY GOUR, JESSE LUTZ,
          WEI LI, PIOTR PIECUCH
     UNIVERSITY OF SILESIA: MONIKA MUSIAL, STANISLAW KUCHARSKI
     FACULTES UNIVERSITAIRES NOTRE-DAME DE LA PAIX:
          OLIVIER QUINET, BENOIT CHAMPAGNE
     UNIVERSITY OF CALIFORNIA - SANTA BARBARA: BERNARD KIRTMAN
     INSTITUTE FOR MOLECULAR SCIENCE:
          KAZUYA ISHIMURA, MICHIO KATOUDA, AND SHIGERU NAGASE
     UNIVERSITY OF NOTRE DAME: ANNA POMOGAEVA, DAN CHIPMAN
     KYUSHU UNIVERSITY:
          HARUYUKI NAKANO,
          FENG LONG GU, JACEK KORCHOWIEC, MARCIN MAKOWSKI, AND YURIKO AOKI,
          HIROTOSHI MORI AND EISAKU MIYOSHI
     PENNSYLVANIA STATE UNIVERSITY:
          TZVETELIN IORDANOV, CHET SWALINA, JONATHAN SKONE,
          SHARON HAMMES-SCHIFFER
     WASEDA UNIVERSITY:
          MASATO KOBAYASHI, TOMOKO AKAMA, TSUGUKI TOUMA,
          TAKESHI YOSHIKAWA, YASUHIRO IKABATA, JUNJI SEINO,
          YUYA NAKAJIMA, HIROMI NAKAI
     NANJING UNIVERSITY: SHUHUA LI
     UNIVERSITY OF NEBRASKA:
          PEIFENG SU, DEJUN SI, NANDUN THELLAMUREGE, YALI WANG, HUI LI
     UNIVERSITY OF ZURICH: ROBERTO PEVERATI, KIM BALDRIDGE
     N. COPERNICUS UNIVERSITY AND JACKSON STATE UNIVERSITY:
          MARIA BARYSZ
     UNIVERSITY OF COPENHAGEN: Jimmy Kromann, CASPER STEINMANN
     TOKYO INSTITUTE OF TECHNOLOGY: HIROYA NAKATA
     NAGOYA UNIVERSITY: YOSHIO NISHIMOTO, STEPHAN IRLE
     MOSCOW STATE UNIVERSITY: VLADIMIR MIRONOV

 EXECUTION OF GAMESS BEGUN Mon Nov 28 20:22:19 2016

            ECHO OF THE FIRST FEW INPUT CARDS -
 INPUT CARD>!   Analytic RHF geom. opt. of F2 using the MCP basis set ZFK3-DK3              
 INPUT CARD>!           There are 132 AOs and 114 MOs in this run.                          
 INPUT CARD>!                                                                               
 INPUT CARD>!   FINAL RHF E=   -47.8527439621, 9 iters, RMS GRADIENT = 0.0411279            
 INPUT CARD>!   FINAL RHF E=   -47.8496313439, 7 iters, RMS GRADIENT = 0.0713208            
 INPUT CARD>!   FINAL RHF E=   -47.8588975077, 6 iters, RMS GRADIENT = 0.0008557            
 INPUT CARD>!   FINAL RHF E=   -47.8588992952, 5 iters, RMS GRADIENT = 0.0001990            
 INPUT CARD>!   FINAL RHF E=   -47.8588993979, 4 iters, RMS GRADIENT = 0.0000005            
 INPUT CARD>!           The optimized bondlength is 1.3278399 Angs                          
 INPUT CARD>!                                                                               
 INPUT CARD>!   This run takes 65 seconds on 2.66 GHz Cloverton ( 7 Apr 2015)               
 INPUT CARD>!   results unchanged since 2010                                                
 INPUT CARD>!                                                                               
 INPUT CARD> $contrl scftyp=rhf runtyp=optimize pp=mcp ispher=1 $end                        
 INPUT CARD> $system mwords=3 $end                                                          
 INPUT CARD> $basis  gbasis=zfk3-dk3 $end                                                   
 INPUT CARD> $statpt opttol=1.0d-5 $end                                                     
 INPUT CARD> $scf    dirscf=.true. $end                                                     
 INPUT CARD>                                                                                
 INPUT CARD> $data                                                                          
 INPUT CARD>F2...rhf/zfk3-dk3                                                               
 INPUT CARD>Dnh  2                                                                          
 INPUT CARD>                                                                                
 INPUT CARD>F  9.0  0.0 0.0 1.4119/2                                                        
 INPUT CARD> $end                                                                           
    3000000 WORDS OF MEMORY AVAILABLE

     $BASIS REQUESTS READING THE "ZFK3-DK3" BASIS SET FROM AN EXTERNAL FILE


     RUN TITLE
     ---------
 F2...rhf/zfk3-dk3                                                               

 THE POINT GROUP OF THE MOLECULE IS DNH     
 THE ORDER OF THE PRINCIPAL AXIS IS     2

 WHEN ZFK MCP BASIS SET IS USED,ONE-ELECTRON SPIN-ORBIT COUPLING
 WILL BE TREATED AT THE LEVEL OF DOUGLAS-KROLL


 THE EXTERNAL BASIS SET FILE BEING READ IS
     "/home/sarom/gamessGH/auxdata/MCP/ZFK3-DK3"
 *** WARNING! ATOM   1 SHELL    1 TYPE S HAS NORMALIZATION   2.83748152
 *** WARNING! ATOM   1 SHELL    7 TYPE P HAS NORMALIZATION   4.17050552

 ATOM      ATOMIC                      COORDINATES (BOHR)
           CHARGE         X                   Y                   Z
 F           9.0     0.0000000000        0.0000000000       -1.3340520610
 F           9.0     0.0000000000        0.0000000000        1.3340520610

          INTERNUCLEAR DISTANCES (ANGS.)
          ------------------------------

                1 F          2 F     

   1 F       0.0000000    1.4119000 *
   2 F       1.4119000 *  0.0000000  

  * ... LESS THAN  3.000


     ATOMIC BASIS SET
     ----------------
 THE CONTRACTED PRIMITIVE FUNCTIONS HAVE BEEN UNNORMALIZED
 THE CONTRACTED BASIS FUNCTIONS ARE NOW NORMALIZED TO UNITY

  SHELL TYPE  PRIMITIVE        EXPONENT          CONTRACTION COEFFICIENT(S)

 F         

     20   S       1       6059261.1000000   -0.000001453672
     20   S       2       1228911.8000000   -0.000009560936
     20   S       3        286871.9700000   -0.000057536935
     20   S       4         76276.7390000   -0.000141859742
     20   S       5         22815.9150000   -0.000407774155
     20   S       6          7570.7705000   -0.001335840192
     20   S       7          2745.2997000   -0.003259085707
     20   S       8          1071.4758000   -0.005591715310
     20   S       9           443.5640000   -0.016080389855
     20   S      10           192.1714000   -0.030758455482
     20   S      11            86.1207250   -0.087330517191
     20   S      12            39.5368790   -0.179945788670
     20   S      13            18.4518010   -0.324066489031
     20   S      14             8.7036210   -0.399975765141
     20   S      15             4.1321847   -0.083439782673

     21   S      16             1.9690336    1.000000000000

     22   S      17             0.9400349    1.000000000000

     23   S      18             0.4491606    1.000000000000

     24   S      19             0.2146814    1.000000000000

     25   S      20             0.1026179    1.000000000000

     26   P      21          1071.4758000    0.000159350222
     26   P      22           443.5640000    0.001031575020
     26   P      23           192.1714000    0.001108427215
     26   P      24            86.1207250    0.012156021923
     26   P      25            39.5368790    0.044385860333
     26   P      26            18.4518010    0.095485194847
     26   P      27             8.7036210    0.304608898001
     26   P      28             4.1321847    0.641022863503

     27   P      29             1.9690336    1.000000000000

     28   P      30             0.9400349    1.000000000000

     29   P      31             0.4491606    1.000000000000

     30   P      32             0.2146814    1.000000000000

     31   P      33             0.1026179    1.000000000000

     32   S      34             0.0915800    1.000000000000

     33   P      35             0.0736100    1.000000000000

     34   D      36             3.1070000    1.000000000000

     35   D      37             0.8550000    1.000000000000

     36   D      38             0.2920000    1.000000000000

     37   F      39             1.9170000    1.000000000000

     38   F      40             0.7240000    1.000000000000

 TOTAL NUMBER OF BASIS SET SHELLS             =   38
 NUMBER OF CARTESIAN GAUSSIAN BASIS FUNCTIONS =  132
 NOTE: THIS RUN WILL RESTRICT THE MO VARIATION SPACE TO SPHERICAL HARMONICS.
 THE NUMBER OF ORBITALS KEPT IN THE VARIATIONAL SPACE WILL BE PRINTED LATER.
 NUMBER OF ELECTRONS                          =   18
 CHARGE OF MOLECULE                           =    0
 SPIN MULTIPLICITY                            =    1
 NUMBER OF OCCUPIED ORBITALS (ALPHA)          =    9
 NUMBER OF OCCUPIED ORBITALS (BETA )          =    9
 TOTAL NUMBER OF ATOMS                        =    2
 THE NUCLEAR REPULSION ENERGY IS       30.3586353059
 NOTE THIS RUN IS USING CORE POTENTIALS, AND THE NUMBER OF ELECTRONS,
 OCCUPIED ORBITALS, AND NUCLEAR REPULSION ENERGY WILL BE ADJUSTED BELOW
 AFTER REMOVAL OF THE CORE CHARGES.

 THIS MOLECULE IS RECOGNIZED AS BEING LINEAR,
 ORBITAL LZ DEGENERACY TOLERANCE ETOLLZ= 1.00E-06

     $CONTRL OPTIONS
     ---------------
 SCFTYP=RHF          RUNTYP=OPTIMIZE     EXETYP=RUN     
 MPLEVL=       0     CITYP =NONE         CCTYP =NONE         VBTYP =NONE    
 DFTTYP=NONE         TDDFT =NONE    
 MULT  =       1     ICHARG=       0     NZVAR =       0     COORD =UNIQUE  
 PP    =MCP          RELWFN=NONE         LOCAL =NONE         NUMGRD=       F
 ISPHER=       1     NOSYM =       0     MAXIT =      30     UNITS =ANGS    
 PLTORB=       F     MOLPLT=       F     AIMPAC=       F     FRIEND=        
 NPRINT=       7     IREST =       0     GEOM  =INPUT   
 NORMF =       0     NORMP =       0     ITOL  =      20     ICUT  =       9
 INTTYP=BEST         GRDTYP=BEST         QMTTOL= 1.0E-06

     $SYSTEM OPTIONS
     ---------------
  REPLICATED MEMORY=     3000000 WORDS (ON EVERY NODE).
 DISTRIBUTED MEMDDI=           0 MILLION WORDS IN AGGREGATE,
 MEMDDI DISTRIBUTED OVER   1 PROCESSORS IS           0 WORDS/PROCESSOR.
 TOTAL MEMORY REQUESTED ON EACH PROCESSOR=     3000000 WORDS.
 TIMLIM=      525600.00 MINUTES, OR     365.0 DAYS.
 PARALL= F  BALTYP=  DLB     KDIAG=    0  COREFL= F
 MXSEQ2=     300 MXSEQ3=     150  mem10=         0

          ----------------
          MODEL-POTENTIALS
          ----------------
 F       ZFK3-DK3
 F       ZFK3-DK3
 THE MCP PLACED ON ATOM    1 REMOVES ZCORE=  2
 THE MCP PLACED ON ATOM    2 REMOVES ZCORE=  2

 THE MCP RUN REMOVES    4 CORE ELECTRONS, AND THE SAME NUMBER OF PROTONS.
 NUMBER OF ELECTRONS KEPT IN THE CALCULATION IS =   14
 NUMBER OF OCCUPIED ORBITALS (ALPHA) KEPT IS    =    7
 NUMBER OF OCCUPIED ORBITALS (BETA ) KEPT IS    =    7
 THE ADJUSTED NUCLEAR REPULSION ENERGY=       18.3651003703

     MODEL-POTENTIAL PARAMETERS
     --------------------------

  NO.    N                        ALPHA           A

 F         
   1     0                   417549.203900    4.730128
   2     0       161009940700000000.000000    1.273495
   3     0                      109.869141   -2.325747
   4     0                     6400.355308    1.007695
   5     0                      205.758305    1.662402
   6     0                        5.872942    0.389300
   7     0                        5.455593   -0.320018
   8     0                       51.001543    0.800441
   1     1                   194527.507000  -86.462430
   2     1                      845.070744   -8.397176
   3     1                   191328.252100  413.487350
   4     1                       77.617532    8.648991
   5     1                       38.333366   -3.553323
   6     1                    22044.584060   39.231345

 F         
   1     0                   417549.203900    4.730128
   2     0       161009940700000000.000000    1.273495
   3     0                      109.869141   -2.325747
   4     0                     6400.355308    1.007695
   5     0                      205.758305    1.662402
   6     0                        5.872942    0.389300
   7     0                        5.455593   -0.320018
   8     0                       51.001543    0.800441
   1     1                   194527.507000  -86.462430
   2     1                      845.070744   -8.397176
   3     1                   191328.252100  413.487350
   4     1                       77.617532    8.648991
   5     1                       38.333366   -3.553323
   6     1                    22044.584060   39.231345

     CORE-SHELL BASIS SET FOR MODEL-POTENTIAL ATOMS
     ----------------------------------------------

 SHELL TYPE PRIM    EXPONENT          CONTRACTION COEFFICIENTS

 F         

   1   S    PARAMETER B =        52.815396
   1   S    1   6059261.100000    0.525731 (  0.000006) 
   1   S    2   1228911.800000    0.356316 (  0.000014) 
   1   S    3    286871.970000    0.380490 (  0.000043) 
   1   S    4     76276.739000    0.389865 (  0.000119) 
   1   S    5     22815.915000    0.445376 (  0.000337) 
   1   S    6      7570.770500    0.555598 (  0.000960) 
   1   S    7      2745.299700    0.751793 (  0.002781) 
   1   S    8      1071.475800    1.051748 (  0.007880) 
   1   S    9       443.564000    1.465710 (  0.021278) 
   1   S   10       192.171400    1.965744 (  0.053438) 
   1   S   11        86.120725    2.445662 (  0.121382) 
   1   S   12        39.536879    2.625006 (  0.233598) 
   1   S   13        18.451801    2.157461 (  0.340020) 
   1   S   14         8.703621    1.021271 (  0.282785) 
   1   S   15         4.132185    0.174464 (  0.084462) 
   1   S   16         1.969034    0.006049 (  0.005106) 
   1   S   17         0.940035    0.000918 (  0.001349) 
   1   S   18         0.449161    0.000078 (  0.000200) 
   1   S   19         0.214681    0.000028 (  0.000126) 
   1   S   20         0.102618   -0.000001 ( -0.000007) 

 F         

   2   S    PARAMETER B =        52.815396
   2   S   21   6059261.100000    0.525731 (  0.000006) 
   2   S   22   1228911.800000    0.356316 (  0.000014) 
   2   S   23    286871.970000    0.380490 (  0.000043) 
   2   S   24     76276.739000    0.389865 (  0.000119) 
   2   S   25     22815.915000    0.445376 (  0.000337) 
   2   S   26      7570.770500    0.555598 (  0.000960) 
   2   S   27      2745.299700    0.751793 (  0.002781) 
   2   S   28      1071.475800    1.051748 (  0.007880) 
   2   S   29       443.564000    1.465710 (  0.021278) 
   2   S   30       192.171400    1.965744 (  0.053438) 
   2   S   31        86.120725    2.445662 (  0.121382) 
   2   S   32        39.536879    2.625006 (  0.233598) 
   2   S   33        18.451801    2.157461 (  0.340020) 
   2   S   34         8.703621    1.021271 (  0.282785) 
   2   S   35         4.132185    0.174464 (  0.084462) 
   2   S   36         1.969034    0.006049 (  0.005106) 
   2   S   37         0.940035    0.000918 (  0.001349) 
   2   S   38         0.449161    0.000078 (  0.000200) 
   2   S   39         0.214681    0.000028 (  0.000126) 
   2   S   40         0.102618   -0.000001 ( -0.000007) 

          ----------------
          PROPERTIES INPUT
          ----------------

     MOMENTS            FIELD           POTENTIAL          DENSITY
 IEMOM =       1   IEFLD =       0   IEPOT =       0   IEDEN =       0
 WHERE =COMASS     WHERE =NUCLEI     WHERE =NUCLEI     WHERE =NUCLEI  
 OUTPUT=BOTH       OUTPUT=BOTH       OUTPUT=BOTH       OUTPUT=BOTH    
 IEMINT=       0   IEFINT=       0                     IEDINT=       0
                                                       MORB  =       0
          EXTRAPOLATION IN EFFECT
          SOSCF IN EFFECT
 ORBITAL PRINTING OPTION: NPREO=     1   132     2     1

     -------------------------------
     INTEGRAL TRANSFORMATION OPTIONS
     -------------------------------
     NWORD  =            0
     CUTOFF = 1.0E-09     MPTRAN =       0
     DIRTRF =       T     AOINTS =DUP     

          ----------------------
          INTEGRAL INPUT OPTIONS
          ----------------------
 NOPK  =       1 NORDER=       0 SCHWRZ=       T

     ------------------------------------------
     THE POINT GROUP IS DNH, NAXIS= 2, ORDER= 8
     ------------------------------------------

 -- VARIATIONAL SPACE WILL BE RESTRICTED TO PURE SPHERICAL HARMONICS ONLY --
 AFTER EXCLUDING CONTAMINANT COMBINATIONS FROM THE CARTESIAN GAUSSIAN BASIS
 SET, THE NUMBER OF SPHERICAL HARMONICS KEPT IN THE VARIATION SPACE IS  114

     DIMENSIONS OF THE SYMMETRY SUBSPACES ARE
 AG  =   24     AU  =    5     B3U =   14     B3G =   14     B1G =    5
 B1U =   24     B2U =   14     B2G =   14

 ..... DONE SETTING UP THE RUN .....
 STEP CPU TIME =     0.05 TOTAL CPU TIME =        0.0 (    0.0 MIN)
 TOTAL WALL CLOCK TIME=        0.1 SECONDS, CPU UTILIZATION IS  38.46%


          -----------------------------
          STATIONARY POINT LOCATION RUN
          -----------------------------

 OBTAINING INITIAL HESSIAN, HESS=GUESS   
 CARTESIAN COORDINATE OPTIMIZATION USING BADGER'S RULE FORCE CONSTANT GUESS

          PARAMETERS CONTROLLING GEOMETRY SEARCH ARE
          METHOD =QA                  UPHESS =BFGS    
          NNEG   =         0          NFRZ   =         0
          NSTEP  =        50          IFOLOW =         1
          HESS   =GUESS               RESTAR =         F
          IHREP  =         0          HSSEND =         F
          NPRT   =         0          NPUN   =         0
          OPTTOL = 1.000E-05          RMIN   = 1.500E-03
          RMAX   = 1.000E-01          RLIM   = 7.000E-02
          DXMAX  = 3.000E-01          PURIFY =         F
          MOVIE  =         F          TRUPD  =         T
          TRMAX  = 5.000E-01          TRMIN  = 5.000E-02
          ITBMAT =         5          STPT   =         F
          STSTEP = 1.000E-02          PROJCT=          T

 BEGINNING GEOMETRY SEARCH POINT NSERCH=   0 ...

 COORDINATES OF SYMMETRY UNIQUE ATOMS (ANGS)
   ATOM   CHARGE       X              Y              Z
 ------------------------------------------------------------
 F           9.0   0.0000000000   0.0000000000   0.7059500000
 COORDINATES OF ALL ATOMS ARE (ANGS)
   ATOM   CHARGE       X              Y              Z
 ------------------------------------------------------------
 F           9.0   0.0000000000   0.0000000000  -0.7059500000
 F           9.0   0.0000000000   0.0000000000   0.7059500000

          ********************
          1 ELECTRON INTEGRALS
          ********************
 TIME TO DO ORDINARY INTEGRALS=      0.00
 TIME TO DO      MCP INTEGRALS=      0.02
 ...... END OF ONE-ELECTRON INTEGRALS ......
 STEP CPU TIME =     0.02 TOTAL CPU TIME =        0.1 (    0.0 MIN)
 TOTAL WALL CLOCK TIME=        0.2 SECONDS, CPU UTILIZATION IS  46.67%

          -------------
          GUESS OPTIONS
          -------------
          GUESS =HUCKEL            NORB  =       0          NORDER=       0
          MIX   =       F          PRTMO =       F          PUNMO =       F
          TOLZ  = 1.0E-08          TOLE  = 1.0E-05
          SYMDEN=       F          PURIFY=       F

 INITIAL GUESS ORBITALS GENERATED BY HUCKEL   ROUTINE.
 HUCKEL GUESS REQUIRES    126822 WORDS.

 STATISTICS FOR GENERATION OF SYMMETRY ORBITAL -Q- MATRIX
 NUMBER OF CARTESIAN ATOMIC ORBITALS=        132
 NUMBER OF SPHERICAL CONTAMINANTS DROPPED=    18
 NUMBER OF LINEARLY DEPENDENT MOS DROPPED=     0
 TOTAL NUMBER OF MOS IN VARIATION SPACE=     114

 SYMMETRIES FOR INITIAL GUESS ORBITALS FOLLOW.   BOTH SET(S).
     7 ORBITALS ARE OCCUPIED (    0 CORE ORBITALS).
     1=AG       2=B1U      3=AG       4=B2U      5=B3U      6=B2G      7=B3G 
     8=B1U      9=AG      10=AG      11=AG      12=AG      13=AG      14=AG  
    15=AG      16=AG      17=AG  
 ...... END OF INITIAL ORBITAL SELECTION ......
 STEP CPU TIME =     0.02 TOTAL CPU TIME =        0.1 (    0.0 MIN)
 TOTAL WALL CLOCK TIME=        0.2 SECONDS, CPU UTILIZATION IS  52.94%

                    ----------------------
                    AO INTEGRAL TECHNOLOGY
                    ----------------------
     S,P,L SHELL ROTATED AXIS INTEGRALS, REPROGRAMMED BY
        KAZUYA ISHIMURA (IMS) AND JOSE SIERRA (SYNSTAR).
     S,P,D,L SHELL ROTATED AXIS INTEGRALS PROGRAMMED BY
        KAZUYA ISHIMURA (INSTITUTE FOR MOLECULAR SCIENCE).
     S,P,D,F,G SHELL TO TOTAL QUARTET ANGULAR MOMENTUM SUM 5,
        ERIC PROGRAM BY GRAHAM FLETCHER (ELORET AND NASA ADVANCED
        SUPERCOMPUTING DIVISION, AMES RESEARCH CENTER).
     S,P,D,F,G,L SHELL GENERAL RYS QUADRATURE PROGRAMMED BY
        MICHEL DUPUIS (PACIFIC NORTHWEST NATIONAL LABORATORY).

          --------------------
          2 ELECTRON INTEGRALS
          --------------------

 DIRECT SCF METHOD SKIPS INTEGRAL STORAGE ON DISK.
 DIRECT TRANSFORMATION SKIPS AO INTEGRAL STORAGE ON DISK.
  ...... END OF TWO-ELECTRON INTEGRALS .....
 STEP CPU TIME =     0.01 TOTAL CPU TIME =        0.1 (    0.0 MIN)
 TOTAL WALL CLOCK TIME=        0.2 SECONDS, CPU UTILIZATION IS  43.48%

          --------------------------
                 RHF SCF CALCULATION
          --------------------------

     NUCLEAR ENERGY =        18.3651003703
     MAXIT =   30     NPUNCH=    2
     EXTRAP=T  DAMP=F  SHIFT=F  RSTRCT=F  DIIS=F  DEM=F  SOSCF=T
     DENSITY MATRIX CONV=  2.00E-05
     SOSCF WILL OPTIMIZE     749 ORBITAL ROTATIONS, SOGTOL=   0.250
     MEMORY REQUIRED FOR RHF ITERS=    182394 WORDS.

 DIRECT SCF CALCULATION, SCHWRZ=T   FDIFF=T,  DIRTHR=  0.00E+00 NITDIR=10
 SCHWARZ INEQUALITY OVERHEAD:      8778 INTEGRALS, T=        0.02

                                                                                   NONZERO     BLOCKS
 ITER EX DEM     TOTAL ENERGY        E CHANGE  DENSITY CHANGE     ORB. GRAD      INTEGRALS    SKIPPED
   1  0  0      -41.8609870089   -41.8609870089   2.126193082   0.000000000        4716035        198
          ---------------START SECOND ORDER SCF---------------
   2  1  0      -47.8301314040    -5.9691443950   0.097019574   0.224012644        4716986         89
   3  2  0      -47.8515039279    -0.0213725240   0.014974482   0.020085360        4716006        297
   4  3  0      -47.8527120360    -0.0012081080   0.003046998   0.010305414        4715303        444
   5  4  0      -47.8527428737    -0.0000308377   0.000606213   0.000728003        4709916        926
   6  5  0      -47.8527438871    -0.0000010134   0.000086385   0.000184843        4702146       1368
   7  6  0      -47.8527439591    -0.0000000719   0.000017142   0.000056426        4692440       1841
   8  7  0      -47.8527439621    -0.0000000030   0.000005229   0.000002507        4676542       2815

          -----------------
          DENSITY CONVERGED
          -----------------
     TIME TO FORM FOCK OPERATORS=       6.5 SECONDS (       0.8 SEC/ITER)
     FOCK TIME ON FIRST ITERATION=       0.9, LAST ITERATION=       0.8
     TIME TO SOLVE SCF EQUATIONS=       0.0 SECONDS (       0.0 SEC/ITER)

 FINAL RHF ENERGY IS      -47.8527439621 AFTER   8 ITERATIONS

 LZ VALUE ANALYSIS FOR THE MOS
 ----------------------------------------
 MO     1 (    1) HAS LZ(WEIGHT)= 0.00(100.0%) 
 MO     2 (    2) HAS LZ(WEIGHT)= 0.00(100.0%) 
 MO     3 (    3) HAS LZ(WEIGHT)=-1.00( 50.0%)  1.00( 50.0%) 
 MO     4 (    3) HAS LZ(WEIGHT)=-1.00( 50.0%)  1.00( 50.0%) 
 MO     5 (    4) HAS LZ(WEIGHT)= 0.00(100.0%) 
 MO     6 (    5) HAS LZ(WEIGHT)=-1.00( 50.0%)  1.00( 50.0%) 
 MO     7 (    5) HAS LZ(WEIGHT)=-1.00( 50.0%)  1.00( 50.0%) 
 MO     8 (    6) HAS LZ(WEIGHT)= 0.00(100.0%) 
 MO     9 (    7) HAS LZ(WEIGHT)= 0.00(100.0%) 
 MO    10 (    8) HAS LZ(WEIGHT)=-1.00( 50.0%)  1.00( 50.0%) 
 MO    11 (    8) HAS LZ(WEIGHT)=-1.00( 50.0%)  1.00( 50.0%) 
 MO    12 (    9) HAS LZ(WEIGHT)= 0.00(100.0%) 
 MO    13 (   10) HAS LZ(WEIGHT)=-1.00( 50.0%)  1.00( 50.0%) 
 MO    14 (   10) HAS LZ(WEIGHT)=-1.00( 50.0%)  1.00( 50.0%) 
 MO    15 (   11) HAS LZ(WEIGHT)= 0.00(100.0%) 
 MO    16 (   12) HAS LZ(WEIGHT)= 0.00(100.0%) 
 MO    17 (   13) HAS LZ(WEIGHT)= 0.00(100.0%) 
 MO    18 (   14) HAS LZ(WEIGHT)= 0.00(100.0%) 
 MO    19 (   15) HAS LZ(WEIGHT)=-1.00( 50.0%)  1.00( 50.0%) 
 MO    20 (   15) HAS LZ(WEIGHT)=-1.00( 50.0%)  1.00( 50.0%) 
 MO    21 (   16) HAS LZ(WEIGHT)=-1.00( 50.0%)  1.00( 50.0%) 
 MO    22 (   16) HAS LZ(WEIGHT)=-1.00( 50.0%)  1.00( 50.0%) 
 MO    23 (   17) HAS LZ(WEIGHT)= 0.00(100.0%) 
 MO    24 (   18) HAS LZ(WEIGHT)= 0.00(100.0%) 
 MO    25 (   19) HAS LZ(WEIGHT)=-2.00( 50.0%)  2.00( 50.0%) 
 MO    26 (   19) HAS LZ(WEIGHT)=-2.00( 50.0%)  2.00( 50.0%) 
 MO    27 (   20) HAS LZ(WEIGHT)=-1.00( 50.0%)  1.00( 50.0%) 
 MO    28 (   20) HAS LZ(WEIGHT)=-1.00( 50.0%)  1.00( 50.0%) 
 MO    29 (   21) HAS LZ(WEIGHT)=-2.00( 50.0%)  2.00( 50.0%) 
 MO    30 (   21) HAS LZ(WEIGHT)=-2.00( 50.0%)  2.00( 50.0%) 
 MO    31 (   22) HAS LZ(WEIGHT)=-1.00( 50.0%)  1.00( 50.0%) 
 MO    32 (   22) HAS LZ(WEIGHT)=-1.00( 50.0%)  1.00( 50.0%) 
 MO    33 (   23) HAS LZ(WEIGHT)= 0.00(100.0%) 
 MO    34 (   24) HAS LZ(WEIGHT)= 0.00(100.0%) 
 MO    35 (   25) HAS LZ(WEIGHT)=-1.00( 50.0%)  1.00( 50.0%) 
 MO    36 (   25) HAS LZ(WEIGHT)=-1.00( 50.0%)  1.00( 50.0%) 
 MO    37 (   26) HAS LZ(WEIGHT)= 0.00(100.0%) 
 MO    38 (   27) HAS LZ(WEIGHT)=-1.00( 50.0%)  1.00( 50.0%) 
 MO    39 (   27) HAS LZ(WEIGHT)=-1.00( 50.0%)  1.00( 50.0%) 
 MO    40 (   28) HAS LZ(WEIGHT)= 0.00(100.0%) 
 MO    41 (   29) HAS LZ(WEIGHT)= 0.00(100.0%) 
 MO    42 (   30) HAS LZ(WEIGHT)= 0.00(100.0%) 
 MO    43 (   31) HAS LZ(WEIGHT)=-1.00( 50.0%)  1.00( 50.0%) 
 MO    44 (   31) HAS LZ(WEIGHT)=-1.00( 50.0%)  1.00( 50.0%) 
 MO    45 (   32) HAS LZ(WEIGHT)= 0.00(100.0%) 
 MO    46 (   33) HAS LZ(WEIGHT)=-2.00( 50.0%)  2.00( 50.0%) 
 MO    47 (   33) HAS LZ(WEIGHT)=-2.00( 50.0%)  2.00( 50.0%) 
 MO    48 (   34) HAS LZ(WEIGHT)= 0.00(100.0%) 
 MO    49 (   35) HAS LZ(WEIGHT)=-1.00( 50.0%)  1.00( 50.0%) 
 MO    50 (   35) HAS LZ(WEIGHT)=-1.00( 50.0%)  1.00( 50.0%) 
 MO    51 (   36) HAS LZ(WEIGHT)=-1.00( 50.0%)  1.00( 50.0%) 
 MO    52 (   36) HAS LZ(WEIGHT)=-1.00( 50.0%)  1.00( 50.0%) 
 MO    53 (   37) HAS LZ(WEIGHT)= 0.00(100.0%) 
 MO    54 (   38) HAS LZ(WEIGHT)=-3.00( 50.0%)  3.00( 50.0%) 
 MO    55 (   38) HAS LZ(WEIGHT)=-3.00( 50.0%)  3.00( 50.0%) 
 MO    56 (   39) HAS LZ(WEIGHT)=-2.00( 50.0%)  2.00( 50.0%) 
 MO    57 (   39) HAS LZ(WEIGHT)=-2.00( 50.0%)  2.00( 50.0%) 
 MO    58 (   40) HAS LZ(WEIGHT)=-2.00( 50.0%)  2.00( 50.0%) 
 MO    59 (   40) HAS LZ(WEIGHT)=-2.00( 50.0%)  2.00( 50.0%) 
 MO    60 (   41) HAS LZ(WEIGHT)=-3.00( 50.0%)  3.00( 50.0%) 
 MO    61 (   41) HAS LZ(WEIGHT)=-3.00( 50.0%)  3.00( 50.0%) 
 MO    62 (   42) HAS LZ(WEIGHT)= 0.00(100.0%) 
 MO    63 (   43) HAS LZ(WEIGHT)=-1.00( 50.0%)  1.00( 50.0%) 
 MO    64 (   43) HAS LZ(WEIGHT)=-1.00( 50.0%)  1.00( 50.0%) 
 MO    65 (   44) HAS LZ(WEIGHT)= 0.00(100.0%) 
 MO    66 (   45) HAS LZ(WEIGHT)=-1.00( 50.0%)  1.00( 50.0%) 
 MO    67 (   45) HAS LZ(WEIGHT)=-1.00( 50.0%)  1.00( 50.0%) 
 MO    68 (   46) HAS LZ(WEIGHT)=-2.00( 50.0%)  2.00( 50.0%) 
 MO    69 (   46) HAS LZ(WEIGHT)=-2.00( 50.0%)  2.00( 50.0%) 
 MO    70 (   47) HAS LZ(WEIGHT)= 0.00(100.0%) 
 MO    71 (   48) HAS LZ(WEIGHT)= 0.00(100.0%) 
 MO    72 (   49) HAS LZ(WEIGHT)=-1.00( 50.0%)  1.00( 50.0%) 
 MO    73 (   49) HAS LZ(WEIGHT)=-1.00( 50.0%)  1.00( 50.0%) 
 MO    74 (   50) HAS LZ(WEIGHT)= 0.00(100.0%) 
 MO    75 (   51) HAS LZ(WEIGHT)= 0.00(100.0%) 
 MO    76 (   52) HAS LZ(WEIGHT)=-1.00( 50.0%)  1.00( 50.0%) 
 MO    77 (   52) HAS LZ(WEIGHT)=-1.00( 50.0%)  1.00( 50.0%) 
 MO    78 (   53) HAS LZ(WEIGHT)=-1.00( 50.0%)  1.00( 50.0%) 
 MO    79 (   53) HAS LZ(WEIGHT)=-1.00( 50.0%)  1.00( 50.0%) 
 MO    80 (   54) HAS LZ(WEIGHT)= 0.00(100.0%) 
 MO    81 (   55) HAS LZ(WEIGHT)= 0.00(100.0%) 
 MO    82 (   56) HAS LZ(WEIGHT)= 0.00(100.0%) 
 MO    83 (   57) HAS LZ(WEIGHT)=-3.00( 50.0%)  3.00( 50.0%) 
 MO    84 (   57) HAS LZ(WEIGHT)=-3.00( 50.0%)  3.00( 50.0%) 
 MO    85 (   58) HAS LZ(WEIGHT)=-2.00( 50.0%)  2.00( 50.0%) 
 MO    86 (   58) HAS LZ(WEIGHT)=-2.00( 50.0%)  2.00( 50.0%) 
 MO    87 (   59) HAS LZ(WEIGHT)=-3.00( 50.0%)  3.00( 50.0%) 
 MO    88 (   59) HAS LZ(WEIGHT)=-3.00( 50.0%)  3.00( 50.0%) 
 MO    89 (   60) HAS LZ(WEIGHT)= 0.00(100.0%) 
 MO    90 (   61) HAS LZ(WEIGHT)=-2.00( 50.0%)  2.00( 50.0%) 
 MO    91 (   61) HAS LZ(WEIGHT)=-2.00( 50.0%)  2.00( 50.0%) 
 MO    92 (   62) HAS LZ(WEIGHT)=-1.00( 50.0%)  1.00( 50.0%) 
 MO    93 (   62) HAS LZ(WEIGHT)=-1.00( 50.0%)  1.00( 50.0%) 
 MO    94 (   63) HAS LZ(WEIGHT)=-1.00( 50.0%)  1.00( 50.0%) 
 MO    95 (   63) HAS LZ(WEIGHT)=-1.00( 50.0%)  1.00( 50.0%) 
 MO    96 (   64) HAS LZ(WEIGHT)=-2.00( 50.0%)  2.00( 50.0%) 
 MO    97 (   64) HAS LZ(WEIGHT)=-2.00( 50.0%)  2.00( 50.0%) 
 MO    98 (   65) HAS LZ(WEIGHT)=-1.00( 50.0%)  1.00( 50.0%) 
 MO    99 (   65) HAS LZ(WEIGHT)=-1.00( 50.0%)  1.00( 50.0%) 
 MO   100 (   66) HAS LZ(WEIGHT)=-2.00( 50.0%)  2.00( 50.0%) 
 MO   101 (   66) HAS LZ(WEIGHT)=-2.00( 50.0%)  2.00( 50.0%) 
 MO   102 (   67) HAS LZ(WEIGHT)= 0.00(100.0%) 
 MO   103 (   68) HAS LZ(WEIGHT)=-1.00( 50.0%)  1.00( 50.0%) 
 MO   104 (   68) HAS LZ(WEIGHT)=-1.00( 50.0%)  1.00( 50.0%) 
 MO   105 (   69) HAS LZ(WEIGHT)= 0.00(100.0%) 
 MO   106 (   70) HAS LZ(WEIGHT)= 0.00(100.0%) 
 MO   107 (   71) HAS LZ(WEIGHT)=-1.00( 50.0%)  1.00( 50.0%) 
 MO   108 (   71) HAS LZ(WEIGHT)=-1.00( 50.0%)  1.00( 50.0%) 
 MO   109 (   72) HAS LZ(WEIGHT)= 0.00(100.0%) 
 MO   110 (   73) HAS LZ(WEIGHT)=-1.00( 50.0%)  1.00( 50.0%) 
 MO   111 (   73) HAS LZ(WEIGHT)=-1.00( 50.0%)  1.00( 50.0%) 
 MO   112 (   74) HAS LZ(WEIGHT)= 0.00(100.0%) 
 MO   113 (   75) HAS LZ(WEIGHT)= 0.00(100.0%) 
 MO   114 (   76) HAS LZ(WEIGHT)= 0.00(100.0%) 

          ------------
          EIGENVECTORS
          ------------

                      1          2          3          4          5
                   -1.7671    -1.5011    -0.8107    -0.8107    -0.7508
                     AG         B1U        B3U        B2U        AG  
    1  F  1  S    0.236120   0.255168   0.000000   0.000000  -0.055507
    2  F  1  S    0.144424   0.161312   0.000000   0.000000  -0.040459
    3  F  1  S    0.281646   0.310814   0.000000   0.000000  -0.074371
    4  F  1  S    0.249631   0.277898   0.000000   0.000000  -0.060518
    5  F  1  S    0.061586   0.101039   0.000000   0.000000  -0.063291
    6  F  1  S    0.008182  -0.015366   0.000000   0.000000   0.014252
    7  F  1  X   -0.000000  -0.000000   0.163998   0.000000  -0.000000
    8  F  1  Y   -0.000000  -0.000000   0.000000   0.163998  -0.000000
    9  F  1  Z    0.020707  -0.022524   0.000000   0.000000   0.151809
   10  F  1  X   -0.000000  -0.000000   0.171577   0.000000  -0.000000
   11  F  1  Y   -0.000000  -0.000000   0.000000   0.171577  -0.000000
   12  F  1  Z    0.019980  -0.021986   0.000000   0.000000   0.155959
   13  F  1  X   -0.000000  -0.000000   0.206493   0.000000  -0.000000
   14  F  1  Y   -0.000000  -0.000000   0.000000   0.206493  -0.000000
   15  F  1  Z    0.036489  -0.027609   0.000000   0.000000   0.205902
   16  F  1  X   -0.000000  -0.000000   0.181852   0.000000  -0.000000
   17  F  1  Y   -0.000000  -0.000000   0.000000   0.181852  -0.000000
   18  F  1  Z    0.020700  -0.018257   0.000000   0.000000   0.175525
   19  F  1  X   -0.000000  -0.000000   0.089684   0.000000  -0.000000
   20  F  1  Y   -0.000000  -0.000000   0.000000   0.089684  -0.000000
   21  F  1  Z    0.003583  -0.007556   0.000000   0.000000   0.091029
   22  F  1  X   -0.000000  -0.000000   0.016753   0.000000  -0.000000
   23  F  1  Y   -0.000000  -0.000000   0.000000   0.016753  -0.000000
   24  F  1  Z   -0.002152   0.000249   0.000000   0.000000   0.013360
   25  F  1  S   -0.004801   0.022000   0.000000   0.000000  -0.027052
   26  F  1  X   -0.000000  -0.000000   0.000132   0.000000  -0.000000
   27  F  1  Y   -0.000000  -0.000000   0.000000   0.000132  -0.000000
   28  F  1  Z    0.001354   0.000933   0.000000   0.000000   0.001730
   29  F  1 XX   -0.001029   0.001127   0.000000   0.000000  -0.002993
   30  F  1 YY   -0.001029   0.001127   0.000000   0.000000  -0.002993
   31  F  1 ZZ    0.002057  -0.002254   0.000000   0.000000   0.005986
   32  F  1 XY   -0.000000  -0.000000   0.000000   0.000000  -0.000000
   33  F  1 XZ   -0.000000  -0.000000   0.002966   0.000000  -0.000000
   34  F  1 YZ   -0.000000  -0.000000   0.000000   0.002966  -0.000000
   35  F  1 XX   -0.005644   0.002381   0.000000   0.000000  -0.011684
   36  F  1 YY   -0.005644   0.002381   0.000000   0.000000  -0.011684
   37  F  1 ZZ    0.011288  -0.004763   0.000000   0.000000   0.023367
   38  F  1 XY   -0.000000  -0.000000   0.000000   0.000000  -0.000000
   39  F  1 XZ   -0.000000  -0.000000   0.011638   0.000000  -0.000000
   40  F  1 YZ   -0.000000  -0.000000   0.000000   0.011638  -0.000000
   41  F  1 XX    0.000381   0.001326   0.000000   0.000000  -0.003983
   42  F  1 YY    0.000381   0.001326   0.000000   0.000000  -0.003983
   43  F  1 ZZ   -0.000763  -0.002652   0.000000   0.000000   0.007967
   44  F  1 XY   -0.000000  -0.000000   0.000000   0.000000  -0.000000
   45  F  1 XZ   -0.000000  -0.000000   0.002965   0.000000  -0.000000
   46  F  1 YZ   -0.000000  -0.000000   0.000000   0.002965  -0.000000
   47  F  1 XXX  -0.000000  -0.000000  -0.001741   0.000000  -0.000000
   48  F  1 YYY  -0.000000  -0.000000   0.000000  -0.001741  -0.000000
   49  F  1 ZZZ   0.001996  -0.000822   0.000000   0.000000   0.004316
   50  F  1 XXY  -0.000000  -0.000000   0.000000  -0.000779  -0.000000
   51  F  1 XXZ  -0.001339   0.000551   0.000000   0.000000  -0.002895
   52  F  1 YYX  -0.000000  -0.000000  -0.000779   0.000000  -0.000000
   53  F  1 YYZ  -0.001339   0.000551   0.000000   0.000000  -0.002895
   54  F  1 ZZX  -0.000000  -0.000000   0.003114   0.000000  -0.000000
   55  F  1 ZZY  -0.000000  -0.000000   0.000000   0.003114  -0.000000
   56  F  1 XYZ  -0.000000  -0.000000   0.000000   0.000000  -0.000000
   57  F  1 XXX  -0.000000  -0.000000  -0.002571   0.000000  -0.000000
   58  F  1 YYY  -0.000000  -0.000000   0.000000  -0.002571  -0.000000
   59  F  1 ZZZ   0.002730  -0.000315   0.000000   0.000000   0.004604
   60  F  1 XXY  -0.000000  -0.000000   0.000000  -0.001150  -0.000000
   61  F  1 XXZ  -0.001831   0.000211   0.000000   0.000000  -0.003089
   62  F  1 YYX  -0.000000  -0.000000  -0.001150   0.000000  -0.000000
   63  F  1 YYZ  -0.001831   0.000211   0.000000   0.000000  -0.003089
   64  F  1 ZZX  -0.000000  -0.000000   0.004599   0.000000  -0.000000
   65  F  1 ZZY  -0.000000  -0.000000   0.000000   0.004599  -0.000000
   66  F  1 XYZ  -0.000000  -0.000000   0.000000   0.000000  -0.000000
   67  F  2  S    0.236120  -0.255168   0.000000   0.000000  -0.055507
   68  F  2  S    0.144424  -0.161312   0.000000   0.000000  -0.040459
   69  F  2  S    0.281646  -0.310814   0.000000   0.000000  -0.074371
   70  F  2  S    0.249631  -0.277898   0.000000   0.000000  -0.060518
   71  F  2  S    0.061586  -0.101039   0.000000   0.000000  -0.063291
   72  F  2  S    0.008182   0.015366   0.000000   0.000000   0.014252
   73  F  2  X   -0.000000  -0.000000   0.163998   0.000000  -0.000000
   74  F  2  Y   -0.000000  -0.000000   0.000000   0.163998  -0.000000
   75  F  2  Z   -0.020707  -0.022524   0.000000   0.000000  -0.151809
   76  F  2  X   -0.000000  -0.000000   0.171577   0.000000  -0.000000
   77  F  2  Y   -0.000000  -0.000000   0.000000   0.171577  -0.000000
   78  F  2  Z   -0.019980  -0.021986   0.000000   0.000000  -0.155959
   79  F  2  X   -0.000000  -0.000000   0.206493   0.000000  -0.000000
   80  F  2  Y   -0.000000  -0.000000   0.000000   0.206493  -0.000000
   81  F  2  Z   -0.036489  -0.027609   0.000000   0.000000  -0.205902
   82  F  2  X   -0.000000  -0.000000   0.181852   0.000000  -0.000000
   83  F  2  Y   -0.000000  -0.000000   0.000000   0.181852  -0.000000
   84  F  2  Z   -0.020700  -0.018257   0.000000   0.000000  -0.175525
   85  F  2  X   -0.000000  -0.000000   0.089684   0.000000  -0.000000
   86  F  2  Y   -0.000000  -0.000000   0.000000   0.089684  -0.000000
   87  F  2  Z   -0.003583  -0.007556   0.000000   0.000000  -0.091029
   88  F  2  X   -0.000000  -0.000000   0.016753   0.000000  -0.000000
   89  F  2  Y   -0.000000  -0.000000   0.000000   0.016753  -0.000000
   90  F  2  Z    0.002152   0.000249   0.000000   0.000000  -0.013360
   91  F  2  S   -0.004801  -0.022000   0.000000   0.000000  -0.027052
   92  F  2  X   -0.000000  -0.000000   0.000132   0.000000  -0.000000
   93  F  2  Y   -0.000000  -0.000000   0.000000   0.000132  -0.000000
   94  F  2  Z   -0.001354   0.000933   0.000000   0.000000  -0.001730
   95  F  2 XX   -0.001029  -0.001127   0.000000   0.000000  -0.002993
   96  F  2 YY   -0.001029  -0.001127   0.000000   0.000000  -0.002993
   97  F  2 ZZ    0.002057   0.002254   0.000000   0.000000   0.005986
   98  F  2 XY   -0.000000  -0.000000   0.000000   0.000000  -0.000000
   99  F  2 XZ   -0.000000  -0.000000  -0.002966   0.000000  -0.000000
  100  F  2 YZ   -0.000000  -0.000000   0.000000  -0.002966  -0.000000
  101  F  2 XX   -0.005644  -0.002381   0.000000   0.000000  -0.011684
  102  F  2 YY   -0.005644  -0.002381   0.000000   0.000000  -0.011684
  103  F  2 ZZ    0.011288   0.004763   0.000000   0.000000   0.023367
  104  F  2 XY   -0.000000  -0.000000   0.000000   0.000000  -0.000000
  105  F  2 XZ   -0.000000  -0.000000  -0.011638   0.000000  -0.000000
  106  F  2 YZ   -0.000000  -0.000000   0.000000  -0.011638  -0.000000
  107  F  2 XX    0.000381  -0.001326   0.000000   0.000000  -0.003983
  108  F  2 YY    0.000381  -0.001326   0.000000   0.000000  -0.003983
  109  F  2 ZZ   -0.000763   0.002652   0.000000   0.000000   0.007967
  110  F  2 XY   -0.000000  -0.000000   0.000000   0.000000  -0.000000
  111  F  2 XZ   -0.000000  -0.000000  -0.002965   0.000000  -0.000000
  112  F  2 YZ   -0.000000  -0.000000   0.000000  -0.002965  -0.000000
  113  F  2 XXX  -0.000000  -0.000000  -0.001741   0.000000  -0.000000
  114  F  2 YYY  -0.000000  -0.000000   0.000000  -0.001741  -0.000000
  115  F  2 ZZZ  -0.001996  -0.000822   0.000000   0.000000  -0.004316
  116  F  2 XXY  -0.000000  -0.000000   0.000000  -0.000779  -0.000000
  117  F  2 XXZ   0.001339   0.000551   0.000000   0.000000   0.002895
  118  F  2 YYX  -0.000000  -0.000000  -0.000779   0.000000  -0.000000
  119  F  2 YYZ   0.001339   0.000551   0.000000   0.000000   0.002895
  120  F  2 ZZX  -0.000000  -0.000000   0.003114   0.000000  -0.000000
  121  F  2 ZZY  -0.000000  -0.000000   0.000000   0.003114  -0.000000
  122  F  2 XYZ  -0.000000  -0.000000   0.000000   0.000000  -0.000000
  123  F  2 XXX  -0.000000  -0.000000  -0.002571   0.000000  -0.000000
  124  F  2 YYY  -0.000000  -0.000000   0.000000  -0.002571  -0.000000
  125  F  2 ZZZ  -0.002730  -0.000315   0.000000   0.000000  -0.004604
  126  F  2 XXY  -0.000000  -0.000000   0.000000  -0.001150  -0.000000
  127  F  2 XXZ   0.001831   0.000211   0.000000   0.000000   0.003089
  128  F  2 YYX  -0.000000  -0.000000  -0.001150   0.000000  -0.000000
  129  F  2 YYZ   0.001831   0.000211   0.000000   0.000000   0.003089
  130  F  2 ZZX  -0.000000  -0.000000   0.004599   0.000000  -0.000000
  131  F  2 ZZY  -0.000000  -0.000000   0.000000   0.004599  -0.000000
  132  F  2 XYZ  -0.000000  -0.000000   0.000000   0.000000  -0.000000

                      6          7          8          9         10
                   -0.6665    -0.6665     0.0603     0.0953     0.1262
                     B2G        B3G        B1U        AG         B2U 
    1  F  1  S    0.000000   0.000000   0.069968   0.036294   0.000000
    2  F  1  S    0.000000   0.000000   0.035573   0.062169   0.000000
    3  F  1  S    0.000000   0.000000   0.158673  -0.135655   0.000000
    4  F  1  S    0.000000   0.000000  -0.083571   0.648868   0.000000
    5  F  1  S    0.000000   0.000000   0.912695  -1.676521   0.000000
    6  F  1  S    0.000000   0.000000 -10.835196  12.835586   0.000000
    7  F  1  X    0.178682   0.000000  -0.000000  -0.000000   0.000000
    8  F  1  Y    0.000000   0.178682  -0.000000  -0.000000   0.020659
    9  F  1  Z    0.000000   0.000000   0.122433  -0.011676   0.000000
   10  F  1  X    0.188572   0.000000  -0.000000  -0.000000   0.000000
   11  F  1  Y    0.000000   0.188572  -0.000000  -0.000000   0.052710
   12  F  1  Z    0.000000   0.000000   0.122031  -0.028765   0.000000
   13  F  1  X    0.222938   0.000000  -0.000000  -0.000000   0.000000
   14  F  1  Y    0.000000   0.222938  -0.000000  -0.000000  -0.072024
   15  F  1  Z    0.000000   0.000000   0.192728   0.040471   0.000000
   16  F  1  X    0.204039   0.000000  -0.000000  -0.000000   0.000000
   17  F  1  Y    0.000000   0.204039  -0.000000  -0.000000   0.319530
   18  F  1  Z    0.000000   0.000000   0.054749  -0.160671   0.000000
   19  F  1  X    0.118283   0.000000  -0.000000  -0.000000   0.000000
   20  F  1  Y    0.000000   0.118283  -0.000000  -0.000000  -0.717299
   21  F  1  Z    0.000000   0.000000   0.567250   0.351024   0.000000
   22  F  1  X    0.031344   0.000000  -0.000000  -0.000000   0.000000
   23  F  1  Y    0.000000   0.031344  -0.000000  -0.000000   2.361207
   24  F  1  Z    0.000000   0.000000  -1.719706  -1.346633   0.000000
   25  F  1  S    0.000000   0.000000  12.417446 -12.053650   0.000000
   26  F  1  X    0.000985   0.000000  -0.000000  -0.000000   0.000000
   27  F  1  Y    0.000000   0.000985  -0.000000  -0.000000  -2.287357
   28  F  1  Z    0.000000   0.000000   2.565429   1.400190   0.000000
   29  F  1 XX    0.000000   0.000000   0.001214  -0.000163   0.000000
   30  F  1 YY    0.000000   0.000000   0.001214  -0.000163   0.000000
   31  F  1 ZZ    0.000000   0.000000  -0.002428   0.000326   0.000000
   32  F  1 XY    0.000000   0.000000  -0.000000  -0.000000   0.000000
   33  F  1 XZ    0.000074   0.000000  -0.000000  -0.000000   0.000000
   34  F  1 YZ    0.000000   0.000074  -0.000000  -0.000000   0.000437
   35  F  1 XX    0.000000   0.000000   0.007925  -0.002181   0.000000
   36  F  1 YY    0.000000   0.000000   0.007925  -0.002181   0.000000
   37  F  1 ZZ    0.000000   0.000000  -0.015850   0.004362   0.000000
   38  F  1 XY    0.000000   0.000000  -0.000000  -0.000000   0.000000
   39  F  1 XZ   -0.001194   0.000000  -0.000000  -0.000000   0.000000
   40  F  1 YZ    0.000000  -0.001194  -0.000000  -0.000000   0.003855
   41  F  1 XX    0.000000   0.000000  -0.000628   0.000830   0.000000
   42  F  1 YY    0.000000   0.000000  -0.000628   0.000830   0.000000
   43  F  1 ZZ    0.000000   0.000000   0.001257  -0.001660   0.000000
   44  F  1 XY    0.000000   0.000000  -0.000000  -0.000000   0.000000
   45  F  1 XZ   -0.001123   0.000000  -0.000000  -0.000000   0.000000
   46  F  1 YZ    0.000000  -0.001123  -0.000000  -0.000000   0.002696
   47  F  1 XXX  -0.000711   0.000000  -0.000000  -0.000000   0.000000
   48  F  1 YYY   0.000000  -0.000711  -0.000000  -0.000000  -0.000154
   49  F  1 ZZZ   0.000000   0.000000   0.000036   0.000116   0.000000
   50  F  1 XXY   0.000000  -0.000318  -0.000000  -0.000000  -0.000069
   51  F  1 XXZ   0.000000   0.000000  -0.000024  -0.000077   0.000000
   52  F  1 YYX  -0.000318   0.000000  -0.000000  -0.000000   0.000000
   53  F  1 YYZ   0.000000   0.000000  -0.000024  -0.000077   0.000000
   54  F  1 ZZX   0.001272   0.000000  -0.000000  -0.000000   0.000000
   55  F  1 ZZY   0.000000   0.001272  -0.000000  -0.000000   0.000275
   56  F  1 XYZ   0.000000   0.000000  -0.000000  -0.000000   0.000000
   57  F  1 XXX  -0.000435   0.000000  -0.000000  -0.000000   0.000000
   58  F  1 YYY   0.000000  -0.000435  -0.000000  -0.000000  -0.000067
   59  F  1 ZZZ   0.000000   0.000000  -0.003475  -0.001623   0.000000
   60  F  1 XXY   0.000000  -0.000195  -0.000000  -0.000000  -0.000030
   61  F  1 XXZ   0.000000   0.000000   0.002331   0.001089   0.000000
   62  F  1 YYX  -0.000195   0.000000  -0.000000  -0.000000   0.000000
   63  F  1 YYZ   0.000000   0.000000   0.002331   0.001089   0.000000
   64  F  1 ZZX   0.000779   0.000000  -0.000000  -0.000000   0.000000
   65  F  1 ZZY   0.000000   0.000779  -0.000000  -0.000000   0.000119
   66  F  1 XYZ   0.000000   0.000000  -0.000000  -0.000000   0.000000
   67  F  2  S    0.000000   0.000000  -0.069968   0.036294   0.000000
   68  F  2  S    0.000000   0.000000  -0.035573   0.062169   0.000000
   69  F  2  S    0.000000   0.000000  -0.158673  -0.135655   0.000000
   70  F  2  S    0.000000   0.000000   0.083571   0.648868   0.000000
   71  F  2  S    0.000000   0.000000  -0.912695  -1.676521   0.000000
   72  F  2  S    0.000000   0.000000  10.835196  12.835586   0.000000
   73  F  2  X   -0.178682   0.000000  -0.000000  -0.000000   0.000000
   74  F  2  Y    0.000000  -0.178682  -0.000000  -0.000000   0.020659
   75  F  2  Z    0.000000   0.000000   0.122433   0.011676   0.000000
   76  F  2  X   -0.188572   0.000000  -0.000000  -0.000000   0.000000
   77  F  2  Y    0.000000  -0.188572  -0.000000  -0.000000   0.052710
   78  F  2  Z    0.000000   0.000000   0.122031   0.028765   0.000000
   79  F  2  X   -0.222938   0.000000  -0.000000  -0.000000   0.000000
   80  F  2  Y    0.000000  -0.222938  -0.000000  -0.000000  -0.072024
   81  F  2  Z    0.000000   0.000000   0.192728  -0.040471   0.000000
   82  F  2  X   -0.204039   0.000000  -0.000000  -0.000000   0.000000
   83  F  2  Y    0.000000  -0.204039  -0.000000  -0.000000   0.319530
   84  F  2  Z    0.000000   0.000000   0.054749   0.160671   0.000000
   85  F  2  X   -0.118283   0.000000  -0.000000  -0.000000   0.000000
   86  F  2  Y    0.000000  -0.118283  -0.000000  -0.000000  -0.717299
   87  F  2  Z    0.000000   0.000000   0.567250  -0.351024   0.000000
   88  F  2  X   -0.031344   0.000000  -0.000000  -0.000000   0.000000
   89  F  2  Y    0.000000  -0.031344  -0.000000  -0.000000   2.361207
   90  F  2  Z    0.000000   0.000000  -1.719706   1.346633   0.000000
   91  F  2  S    0.000000   0.000000 -12.417446 -12.053650   0.000000
   92  F  2  X   -0.000985   0.000000  -0.000000  -0.000000   0.000000
   93  F  2  Y    0.000000  -0.000985  -0.000000  -0.000000  -2.287357
   94  F  2  Z    0.000000   0.000000   2.565429  -1.400190   0.000000
   95  F  2 XX    0.000000   0.000000  -0.001214  -0.000163   0.000000
   96  F  2 YY    0.000000   0.000000  -0.001214  -0.000163   0.000000
   97  F  2 ZZ    0.000000   0.000000   0.002428   0.000326   0.000000
   98  F  2 XY    0.000000   0.000000  -0.000000  -0.000000   0.000000
   99  F  2 XZ    0.000074   0.000000  -0.000000  -0.000000   0.000000
  100  F  2 YZ    0.000000   0.000074  -0.000000  -0.000000  -0.000437
  101  F  2 XX    0.000000   0.000000  -0.007925  -0.002181   0.000000
  102  F  2 YY    0.000000   0.000000  -0.007925  -0.002181   0.000000
  103  F  2 ZZ    0.000000   0.000000   0.015850   0.004362   0.000000
  104  F  2 XY    0.000000   0.000000  -0.000000  -0.000000   0.000000
  105  F  2 XZ   -0.001194   0.000000  -0.000000  -0.000000   0.000000
  106  F  2 YZ    0.000000  -0.001194  -0.000000  -0.000000  -0.003855
  107  F  2 XX    0.000000   0.000000   0.000628   0.000830   0.000000
  108  F  2 YY    0.000000   0.000000   0.000628   0.000830   0.000000
  109  F  2 ZZ    0.000000   0.000000  -0.001257  -0.001660   0.000000
  110  F  2 XY    0.000000   0.000000  -0.000000  -0.000000   0.000000
  111  F  2 XZ   -0.001123   0.000000  -0.000000  -0.000000   0.000000
  112  F  2 YZ    0.000000  -0.001123  -0.000000  -0.000000  -0.002696
  113  F  2 XXX   0.000711   0.000000  -0.000000  -0.000000   0.000000
  114  F  2 YYY   0.000000   0.000711  -0.000000  -0.000000  -0.000154
  115  F  2 ZZZ   0.000000   0.000000   0.000036  -0.000116   0.000000
  116  F  2 XXY   0.000000   0.000318  -0.000000  -0.000000  -0.000069
  117  F  2 XXZ   0.000000   0.000000  -0.000024   0.000077   0.000000
  118  F  2 YYX   0.000318   0.000000  -0.000000  -0.000000   0.000000
  119  F  2 YYZ   0.000000   0.000000  -0.000024   0.000077   0.000000
  120  F  2 ZZX  -0.001272   0.000000  -0.000000  -0.000000   0.000000
  121  F  2 ZZY   0.000000  -0.001272  -0.000000  -0.000000   0.000275
  122  F  2 XYZ   0.000000   0.000000  -0.000000  -0.000000   0.000000
  123  F  2 XXX   0.000435   0.000000  -0.000000  -0.000000   0.000000
  124  F  2 YYY   0.000000   0.000435  -0.000000  -0.000000  -0.000067
  125  F  2 ZZZ   0.000000   0.000000  -0.003475   0.001623   0.000000
  126  F  2 XXY   0.000000   0.000195  -0.000000  -0.000000  -0.000030
  127  F  2 XXZ   0.000000   0.000000   0.002331  -0.001089   0.000000
  128  F  2 YYX   0.000195   0.000000  -0.000000  -0.000000   0.000000
  129  F  2 YYZ   0.000000   0.000000   0.002331  -0.001089   0.000000
  130  F  2 ZZX  -0.000779   0.000000  -0.000000  -0.000000   0.000000
  131  F  2 ZZY   0.000000  -0.000779  -0.000000  -0.000000   0.000119
  132  F  2 XYZ   0.000000   0.000000  -0.000000  -0.000000   0.000000

                     11         12         13         14         15
                    0.1262     0.1370     0.1757     0.1757     0.1832
                     B3U        B1U        B2G        B3G        AG  
    1  F  1  S   -0.000000  -0.040313   0.000000  -0.000000   0.016888
    2  F  1  S   -0.000000  -0.052696   0.000000  -0.000000   0.040886
    3  F  1  S   -0.000000   0.091720   0.000000  -0.000000  -0.119626
    4  F  1  S   -0.000000  -0.573057   0.000000  -0.000000   0.504929
    5  F  1  S   -0.000000   1.842624   0.000000  -0.000000  -1.295600
    6  F  1  S   -0.000000 -27.376371   0.000000  -0.000000   6.807152
    7  F  1  X    0.020659   0.000000  -0.014357  -0.000000  -0.000000
    8  F  1  Y   -0.000000   0.000000   0.000000  -0.014357  -0.000000
    9  F  1  Z   -0.000000  -0.113343   0.000000  -0.000000   0.005741
   10  F  1  X    0.052710   0.000000  -0.048968  -0.000000  -0.000000
   11  F  1  Y   -0.000000   0.000000   0.000000  -0.048968  -0.000000
   12  F  1  Z   -0.000000  -0.140027   0.000000  -0.000000   0.035779
   13  F  1  X   -0.072024   0.000000   0.092692  -0.000000  -0.000000
   14  F  1  Y   -0.000000   0.000000   0.000000   0.092692  -0.000000
   15  F  1  Z   -0.000000  -0.073097   0.000000  -0.000000  -0.091232
   16  F  1  X    0.319530   0.000000  -0.358593  -0.000000  -0.000000
   17  F  1  Y   -0.000000   0.000000   0.000000  -0.358593  -0.000000
   18  F  1  Z   -0.000000  -0.409948   0.000000  -0.000000   0.331820
   19  F  1  X   -0.717299   0.000000   0.957532  -0.000000  -0.000000
   20  F  1  Y   -0.000000   0.000000   0.000000   0.957532  -0.000000
   21  F  1  Z   -0.000000   0.796375   0.000000  -0.000000  -0.827501
   22  F  1  X    2.361207   0.000000  -4.274649  -0.000000  -0.000000
   23  F  1  Y   -0.000000   0.000000   0.000000  -4.274649  -0.000000
   24  F  1  Z   -0.000000  -4.663466   0.000000  -0.000000   3.186329
   25  F  1  S   -0.000000  30.037012   0.000000  -0.000000  -5.631593
   26  F  1  X   -2.287357   0.000000   5.173906  -0.000000  -0.000000
   27  F  1  Y   -0.000000   0.000000   0.000000   5.173906  -0.000000
   28  F  1  Z   -0.000000   5.629324   0.000000  -0.000000  -3.814611
   29  F  1 XX   -0.000000  -0.001767   0.000000  -0.000000  -0.001197
   30  F  1 YY   -0.000000  -0.001767   0.000000  -0.000000  -0.001197
   31  F  1 ZZ   -0.000000   0.003533   0.000000  -0.000000   0.002395
   32  F  1 XY   -0.000000   0.000000   0.000000  -0.000000  -0.000000
   33  F  1 XZ    0.000437   0.000000  -0.000867  -0.000000  -0.000000
   34  F  1 YZ   -0.000000   0.000000   0.000000  -0.000867  -0.000000
   35  F  1 XX   -0.000000   0.000462   0.000000  -0.000000   0.000685
   36  F  1 YY   -0.000000   0.000462   0.000000  -0.000000   0.000685
   37  F  1 ZZ   -0.000000  -0.000924   0.000000  -0.000000  -0.001370
   38  F  1 XY   -0.000000   0.000000   0.000000  -0.000000  -0.000000
   39  F  1 XZ    0.003855   0.000000   0.000586  -0.000000  -0.000000
   40  F  1 YZ   -0.000000   0.000000   0.000000   0.000586  -0.000000
   41  F  1 XX   -0.000000  -0.024798   0.000000  -0.000000  -0.014261
   42  F  1 YY   -0.000000  -0.024798   0.000000  -0.000000  -0.014261
   43  F  1 ZZ   -0.000000   0.049596   0.000000  -0.000000   0.028523
   44  F  1 XY   -0.000000   0.000000   0.000000  -0.000000  -0.000000
   45  F  1 XZ    0.002696   0.000000  -0.011027  -0.000000  -0.000000
   46  F  1 YZ   -0.000000   0.000000   0.000000  -0.011027  -0.000000
   47  F  1 XXX  -0.000154   0.000000   0.000259  -0.000000  -0.000000
   48  F  1 YYY  -0.000000   0.000000   0.000000   0.000259  -0.000000
   49  F  1 ZZZ  -0.000000  -0.001003   0.000000  -0.000000   0.001393
   50  F  1 XXY  -0.000000   0.000000   0.000000   0.000116  -0.000000
   51  F  1 XXZ  -0.000000   0.000673   0.000000  -0.000000  -0.000935
   52  F  1 YYX  -0.000069   0.000000   0.000116  -0.000000  -0.000000
   53  F  1 YYZ  -0.000000   0.000673   0.000000  -0.000000  -0.000935
   54  F  1 ZZX   0.000275   0.000000  -0.000463  -0.000000  -0.000000
   55  F  1 ZZY  -0.000000   0.000000   0.000000  -0.000463  -0.000000
   56  F  1 XYZ  -0.000000   0.000000   0.000000  -0.000000  -0.000000
   57  F  1 XXX  -0.000067   0.000000   0.000359  -0.000000  -0.000000
   58  F  1 YYY  -0.000000   0.000000   0.000000   0.000359  -0.000000
   59  F  1 ZZZ  -0.000000  -0.006205   0.000000  -0.000000  -0.007375
   60  F  1 XXY  -0.000000   0.000000   0.000000   0.000161  -0.000000
   61  F  1 XXZ  -0.000000   0.004162   0.000000  -0.000000   0.004947
   62  F  1 YYX  -0.000030   0.000000   0.000161  -0.000000  -0.000000
   63  F  1 YYZ  -0.000000   0.004162   0.000000  -0.000000   0.004947
   64  F  1 ZZX   0.000119   0.000000  -0.000643  -0.000000  -0.000000
   65  F  1 ZZY  -0.000000   0.000000   0.000000  -0.000643  -0.000000
   66  F  1 XYZ  -0.000000   0.000000   0.000000  -0.000000  -0.000000
   67  F  2  S   -0.000000   0.040313   0.000000  -0.000000   0.016888
   68  F  2  S   -0.000000   0.052696   0.000000  -0.000000   0.040886
   69  F  2  S   -0.000000  -0.091720   0.000000  -0.000000  -0.119626
   70  F  2  S   -0.000000   0.573057   0.000000  -0.000000   0.504929
   71  F  2  S   -0.000000  -1.842624   0.000000  -0.000000  -1.295600
   72  F  2  S   -0.000000  27.376371   0.000000  -0.000000   6.807152
   73  F  2  X    0.020659   0.000000   0.014357  -0.000000  -0.000000
   74  F  2  Y   -0.000000   0.000000   0.000000   0.014357  -0.000000
   75  F  2  Z   -0.000000  -0.113343   0.000000  -0.000000  -0.005741
   76  F  2  X    0.052710   0.000000   0.048968  -0.000000  -0.000000
   77  F  2  Y   -0.000000   0.000000   0.000000   0.048968  -0.000000
   78  F  2  Z   -0.000000  -0.140027   0.000000  -0.000000  -0.035779
   79  F  2  X   -0.072024   0.000000  -0.092692  -0.000000  -0.000000
   80  F  2  Y   -0.000000   0.000000   0.000000  -0.092692  -0.000000
   81  F  2  Z   -0.000000  -0.073097   0.000000  -0.000000   0.091232
   82  F  2  X    0.319530   0.000000   0.358593  -0.000000  -0.000000
   83  F  2  Y   -0.000000   0.000000   0.000000   0.358593  -0.000000
   84  F  2  Z   -0.000000  -0.409948   0.000000  -0.000000  -0.331820
   85  F  2  X   -0.717299   0.000000  -0.957532  -0.000000  -0.000000
   86  F  2  Y   -0.000000   0.000000   0.000000  -0.957532  -0.000000
   87  F  2  Z   -0.000000   0.796375   0.000000  -0.000000   0.827501
   88  F  2  X    2.361207   0.000000   4.274649  -0.000000  -0.000000
   89  F  2  Y   -0.000000   0.000000   0.000000   4.274649  -0.000000
   90  F  2  Z   -0.000000  -4.663466   0.000000  -0.000000  -3.186329
   91  F  2  S   -0.000000 -30.037012   0.000000  -0.000000  -5.631593
   92  F  2  X   -2.287357   0.000000  -5.173906  -0.000000  -0.000000
   93  F  2  Y   -0.000000   0.000000   0.000000  -5.173906  -0.000000
   94  F  2  Z   -0.000000   5.629324   0.000000  -0.000000   3.814611
   95  F  2 XX   -0.000000   0.001767   0.000000  -0.000000  -0.001197
   96  F  2 YY   -0.000000   0.001767   0.000000  -0.000000  -0.001197
   97  F  2 ZZ   -0.000000  -0.003533   0.000000  -0.000000   0.002395
   98  F  2 XY   -0.000000   0.000000   0.000000  -0.000000  -0.000000
   99  F  2 XZ   -0.000437   0.000000  -0.000867  -0.000000  -0.000000
  100  F  2 YZ   -0.000000   0.000000   0.000000  -0.000867  -0.000000
  101  F  2 XX   -0.000000  -0.000462   0.000000  -0.000000   0.000685
  102  F  2 YY   -0.000000  -0.000462   0.000000  -0.000000   0.000685
  103  F  2 ZZ   -0.000000   0.000924   0.000000  -0.000000  -0.001370
  104  F  2 XY   -0.000000   0.000000   0.000000  -0.000000  -0.000000
  105  F  2 XZ   -0.003855   0.000000   0.000586  -0.000000  -0.000000
  106  F  2 YZ   -0.000000   0.000000   0.000000   0.000586  -0.000000
  107  F  2 XX   -0.000000   0.024798   0.000000  -0.000000  -0.014261
  108  F  2 YY   -0.000000   0.024798   0.000000  -0.000000  -0.014261
  109  F  2 ZZ   -0.000000  -0.049596   0.000000  -0.000000   0.028523
  110  F  2 XY   -0.000000   0.000000   0.000000  -0.000000  -0.000000
  111  F  2 XZ   -0.002696   0.000000  -0.011027  -0.000000  -0.000000
  112  F  2 YZ   -0.000000   0.000000   0.000000  -0.011027  -0.000000
  113  F  2 XXX  -0.000154   0.000000  -0.000259  -0.000000  -0.000000
  114  F  2 YYY  -0.000000   0.000000   0.000000  -0.000259  -0.000000
  115  F  2 ZZZ  -0.000000  -0.001003   0.000000  -0.000000  -0.001393
  116  F  2 XXY  -0.000000   0.000000   0.000000  -0.000116  -0.000000
  117  F  2 XXZ  -0.000000   0.000673   0.000000  -0.000000   0.000935
  118  F  2 YYX  -0.000069   0.000000  -0.000116  -0.000000  -0.000000
  119  F  2 YYZ  -0.000000   0.000673   0.000000  -0.000000   0.000935
  120  F  2 ZZX   0.000275   0.000000   0.000463  -0.000000  -0.000000
  121  F  2 ZZY  -0.000000   0.000000   0.000000   0.000463  -0.000000
  122  F  2 XYZ  -0.000000   0.000000   0.000000  -0.000000  -0.000000
  123  F  2 XXX  -0.000067   0.000000  -0.000359  -0.000000  -0.000000
  124  F  2 YYY  -0.000000   0.000000   0.000000  -0.000359  -0.000000
  125  F  2 ZZZ  -0.000000  -0.006205   0.000000  -0.000000   0.007375
  126  F  2 XXY  -0.000000   0.000000   0.000000  -0.000161  -0.000000
  127  F  2 XXZ  -0.000000   0.004162   0.000000  -0.000000  -0.004947
  128  F  2 YYX  -0.000030   0.000000  -0.000161  -0.000000  -0.000000
  129  F  2 YYZ  -0.000000   0.004162   0.000000  -0.000000  -0.004947
  130  F  2 ZZX   0.000119   0.000000   0.000643  -0.000000  -0.000000
  131  F  2 ZZY  -0.000000   0.000000   0.000000   0.000643  -0.000000
  132  F  2 XYZ  -0.000000   0.000000   0.000000  -0.000000  -0.000000

                     16         17         18         19         20
                    0.2963     0.4255     0.4333     0.4376     0.4376
                     B1U        AG         B1U        B2U        B3U 
    1  F  1  S   -0.019576  -0.060231   0.009725   0.000000   0.000000
    2  F  1  S   -0.085090   0.052162   0.024651   0.000000   0.000000
    3  F  1  S    0.346562  -0.569260  -0.104431   0.000000   0.000000
    4  F  1  S   -1.264640   1.383720   0.502349   0.000000   0.000000
    5  F  1  S    4.539633  -4.729308  -2.081391   0.000000   0.000000
    6  F  1  S  -83.313511  24.893589   7.146959   0.000000   0.000000
    7  F  1  X    0.000000  -0.000000   0.000000   0.000000  -0.063333
    8  F  1  Y    0.000000  -0.000000   0.000000  -0.063333   0.000000
    9  F  1  Z    0.030525   0.030103  -0.078135   0.000000   0.000000
   10  F  1  X    0.000000  -0.000000   0.000000   0.000000   0.000847
   11  F  1  Y    0.000000  -0.000000   0.000000   0.000847   0.000000
   12  F  1  Z    0.044419  -0.007651  -0.025199   0.000000   0.000000
   13  F  1  X    0.000000  -0.000000   0.000000   0.000000  -0.305015
   14  F  1  Y    0.000000  -0.000000   0.000000  -0.305015   0.000000
   15  F  1  Z    0.013731   0.173980  -0.320828   0.000000   0.000000
   16  F  1  X    0.000000  -0.000000   0.000000   0.000000   0.603328
   17  F  1  Y    0.000000  -0.000000   0.000000   0.603328   0.000000
   18  F  1  Z    0.115149  -0.338472   0.635010   0.000000   0.000000
   19  F  1  X    0.000000  -0.000000   0.000000   0.000000  -1.883706
   20  F  1  Y    0.000000  -0.000000   0.000000  -1.883706   0.000000
   21  F  1  Z   -0.661480   1.022442  -3.547707   0.000000   0.000000
   22  F  1  X    0.000000  -0.000000   0.000000   0.000000   4.701160
   23  F  1  Y    0.000000  -0.000000   0.000000   4.701160   0.000000
   24  F  1  Z   -2.495838  -2.954663   9.738837   0.000000   0.000000
   25  F  1  S   96.325134 -21.021047  -0.193347   0.000000   0.000000
   26  F  1  X    0.000000  -0.000000   0.000000   0.000000  -3.106923
   27  F  1  Y    0.000000  -0.000000   0.000000  -3.106923   0.000000
   28  F  1  Z    8.886291   1.938559  -4.311825   0.000000   0.000000
   29  F  1 XX    0.000682  -0.000168   0.001326   0.000000   0.000000
   30  F  1 YY    0.000682  -0.000168   0.001326   0.000000   0.000000
   31  F  1 ZZ   -0.001364   0.000337  -0.002653   0.000000   0.000000
   32  F  1 XY    0.000000  -0.000000   0.000000   0.000000   0.000000
   33  F  1 XZ    0.000000  -0.000000   0.000000   0.000000  -0.001087
   34  F  1 YZ    0.000000  -0.000000   0.000000  -0.001087   0.000000
   35  F  1 XX    0.000937  -0.002137  -0.015828   0.000000   0.000000
   36  F  1 YY    0.000937  -0.002137  -0.015828   0.000000   0.000000
   37  F  1 ZZ   -0.001875   0.004274   0.031655   0.000000   0.000000
   38  F  1 XY    0.000000  -0.000000   0.000000   0.000000   0.000000
   39  F  1 XZ    0.000000  -0.000000   0.000000   0.000000  -0.000197
   40  F  1 YZ    0.000000  -0.000000   0.000000  -0.000197   0.000000
   41  F  1 XX    0.084463  -0.005631   0.134835   0.000000   0.000000
   42  F  1 YY    0.084463  -0.005631   0.134835   0.000000   0.000000
   43  F  1 ZZ   -0.168927   0.011262  -0.269669   0.000000   0.000000
   44  F  1 XY    0.000000  -0.000000   0.000000   0.000000   0.000000
   45  F  1 XZ    0.000000  -0.000000   0.000000   0.000000   0.004327
   46  F  1 YZ    0.000000  -0.000000   0.000000   0.004327   0.000000
   47  F  1 XXX   0.000000  -0.000000   0.000000   0.000000   0.001099
   48  F  1 YYY   0.000000  -0.000000   0.000000   0.001099   0.000000
   49  F  1 ZZZ   0.001317   0.000464   0.002222   0.000000   0.000000
   50  F  1 XXY   0.000000  -0.000000   0.000000   0.000492   0.000000
   51  F  1 XXZ  -0.000883  -0.000312  -0.001491   0.000000   0.000000
   52  F  1 YYX   0.000000  -0.000000   0.000000   0.000000   0.000492
   53  F  1 YYZ  -0.000883  -0.000312  -0.001491   0.000000   0.000000
   54  F  1 ZZX   0.000000  -0.000000   0.000000   0.000000  -0.001966
   55  F  1 ZZY   0.000000  -0.000000   0.000000  -0.001966   0.000000
   56  F  1 XYZ   0.000000  -0.000000   0.000000   0.000000   0.000000
   57  F  1 XXX   0.000000  -0.000000   0.000000   0.000000   0.001559
   58  F  1 YYY   0.000000  -0.000000   0.000000   0.001559   0.000000
   59  F  1 ZZZ  -0.013321  -0.004021   0.006510   0.000000   0.000000
   60  F  1 XXY   0.000000  -0.000000   0.000000   0.000697   0.000000
   61  F  1 XXZ   0.008936   0.002698  -0.004367   0.000000   0.000000
   62  F  1 YYX   0.000000  -0.000000   0.000000   0.000000   0.000697
   63  F  1 YYZ   0.008936   0.002698  -0.004367   0.000000   0.000000
   64  F  1 ZZX   0.000000  -0.000000   0.000000   0.000000  -0.002788
   65  F  1 ZZY   0.000000  -0.000000   0.000000  -0.002788   0.000000
   66  F  1 XYZ   0.000000  -0.000000   0.000000   0.000000   0.000000
   67  F  2  S    0.019576  -0.060231  -0.009725   0.000000   0.000000
   68  F  2  S    0.085090   0.052162  -0.024651   0.000000   0.000000
   69  F  2  S   -0.346562  -0.569260   0.104431   0.000000   0.000000
   70  F  2  S    1.264640   1.383720  -0.502349   0.000000   0.000000
   71  F  2  S   -4.539633  -4.729308   2.081391   0.000000   0.000000
   72  F  2  S   83.313511  24.893589  -7.146959   0.000000   0.000000
   73  F  2  X    0.000000  -0.000000   0.000000   0.000000  -0.063333
   74  F  2  Y    0.000000  -0.000000   0.000000  -0.063333   0.000000
   75  F  2  Z    0.030525  -0.030103  -0.078135   0.000000   0.000000
   76  F  2  X    0.000000  -0.000000   0.000000   0.000000   0.000847
   77  F  2  Y    0.000000  -0.000000   0.000000   0.000847   0.000000
   78  F  2  Z    0.044419   0.007651  -0.025199   0.000000   0.000000
   79  F  2  X    0.000000  -0.000000   0.000000   0.000000  -0.305015
   80  F  2  Y    0.000000  -0.000000   0.000000  -0.305015   0.000000
   81  F  2  Z    0.013731  -0.173980  -0.320828   0.000000   0.000000
   82  F  2  X    0.000000  -0.000000   0.000000   0.000000   0.603328
   83  F  2  Y    0.000000  -0.000000   0.000000   0.603328   0.000000
   84  F  2  Z    0.115149   0.338472   0.635010   0.000000   0.000000
   85  F  2  X    0.000000  -0.000000   0.000000   0.000000  -1.883706
   86  F  2  Y    0.000000  -0.000000   0.000000  -1.883706   0.000000
   87  F  2  Z   -0.661480  -1.022442  -3.547707   0.000000   0.000000
   88  F  2  X    0.000000  -0.000000   0.000000   0.000000   4.701160
   89  F  2  Y    0.000000  -0.000000   0.000000   4.701160   0.000000
   90  F  2  Z   -2.495838   2.954663   9.738837   0.000000   0.000000
   91  F  2  S  -96.325134 -21.021047   0.193347   0.000000   0.000000
   92  F  2  X    0.000000  -0.000000   0.000000   0.000000  -3.106923
   93  F  2  Y    0.000000  -0.000000   0.000000  -3.106923   0.000000
   94  F  2  Z    8.886291  -1.938559  -4.311825   0.000000   0.000000
   95  F  2 XX   -0.000682  -0.000168  -0.001326   0.000000   0.000000
   96  F  2 YY   -0.000682  -0.000168  -0.001326   0.000000   0.000000
   97  F  2 ZZ    0.001364   0.000337   0.002653   0.000000   0.000000
   98  F  2 XY    0.000000  -0.000000   0.000000   0.000000   0.000000
   99  F  2 XZ    0.000000  -0.000000   0.000000   0.000000   0.001087
  100  F  2 YZ    0.000000  -0.000000   0.000000   0.001087   0.000000
  101  F  2 XX   -0.000937  -0.002137   0.015828   0.000000   0.000000
  102  F  2 YY   -0.000937  -0.002137   0.015828   0.000000   0.000000
  103  F  2 ZZ    0.001875   0.004274  -0.031655   0.000000   0.000000
  104  F  2 XY    0.000000  -0.000000   0.000000   0.000000   0.000000
  105  F  2 XZ    0.000000  -0.000000   0.000000   0.000000   0.000197
  106  F  2 YZ    0.000000  -0.000000   0.000000   0.000197   0.000000
  107  F  2 XX   -0.084463  -0.005631  -0.134835   0.000000   0.000000
  108  F  2 YY   -0.084463  -0.005631  -0.134835   0.000000   0.000000
  109  F  2 ZZ    0.168927   0.011262   0.269669   0.000000   0.000000
  110  F  2 XY    0.000000  -0.000000   0.000000   0.000000   0.000000
  111  F  2 XZ    0.000000  -0.000000   0.000000   0.000000  -0.004327
  112  F  2 YZ    0.000000  -0.000000   0.000000  -0.004327   0.000000
  113  F  2 XXX   0.000000  -0.000000   0.000000   0.000000   0.001099
  114  F  2 YYY   0.000000  -0.000000   0.000000   0.001099   0.000000
  115  F  2 ZZZ   0.001317  -0.000464   0.002222   0.000000   0.000000
  116  F  2 XXY   0.000000  -0.000000   0.000000   0.000492   0.000000
  117  F  2 XXZ  -0.000883   0.000312  -0.001491   0.000000   0.000000
  118  F  2 YYX   0.000000  -0.000000   0.000000   0.000000   0.000492
  119  F  2 YYZ  -0.000883   0.000312  -0.001491   0.000000   0.000000
  120  F  2 ZZX   0.000000  -0.000000   0.000000   0.000000  -0.001966
  121  F  2 ZZY   0.000000  -0.000000   0.000000  -0.001966   0.000000
  122  F  2 XYZ   0.000000  -0.000000   0.000000   0.000000   0.000000
  123  F  2 XXX   0.000000  -0.000000   0.000000   0.000000   0.001559
  124  F  2 YYY   0.000000  -0.000000   0.000000   0.001559   0.000000
  125  F  2 ZZZ  -0.013321   0.004021   0.006510   0.000000   0.000000
  126  F  2 XXY   0.000000  -0.000000   0.000000   0.000697   0.000000
  127  F  2 XXZ   0.008936  -0.002698  -0.004367   0.000000   0.000000
  128  F  2 YYX   0.000000  -0.000000   0.000000   0.000000   0.000697
  129  F  2 YYZ   0.008936  -0.002698  -0.004367   0.000000   0.000000
  130  F  2 ZZX   0.000000  -0.000000   0.000000   0.000000  -0.002788
  131  F  2 ZZY   0.000000  -0.000000   0.000000  -0.002788   0.000000
  132  F  2 XYZ   0.000000  -0.000000   0.000000   0.000000   0.000000

                     21         22         23         24         25
                    0.5024     0.5024     0.5117     0.6969     0.7791
                     B2G        B3G        AG         B1U        AG  
    1  F  1  S   -0.000000   0.000000  -0.030121  -0.052583  -0.000000
    2  F  1  S   -0.000000   0.000000   0.051193   0.101991  -0.000000
    3  F  1  S   -0.000000   0.000000  -0.396673  -0.831930  -0.000000
    4  F  1  S   -0.000000   0.000000   1.079422   2.381272  -0.000000
    5  F  1  S   -0.000000   0.000000  -3.412257  -9.687174  -0.000000
    6  F  1  S   -0.000000   0.000000  12.109751 124.638458  -0.000000
    7  F  1  X   -0.054303   0.000000  -0.000000  -0.000000  -0.000000
    8  F  1  Y   -0.000000  -0.054303  -0.000000  -0.000000  -0.000000
    9  F  1  Z   -0.000000   0.000000  -0.034783   0.018833  -0.000000
   10  F  1  X    0.011115   0.000000  -0.000000  -0.000000  -0.000000
   11  F  1  Y   -0.000000   0.011115  -0.000000  -0.000000  -0.000000
   12  F  1  Z   -0.000000   0.000000   0.023421   0.011422  -0.000000
   13  F  1  X   -0.303677   0.000000  -0.000000  -0.000000  -0.000000
   14  F  1  Y   -0.000000  -0.303677  -0.000000  -0.000000  -0.000000
   15  F  1  Z   -0.000000   0.000000  -0.255260   0.023483  -0.000000
   16  F  1  X    0.666719   0.000000  -0.000000  -0.000000  -0.000000
   17  F  1  Y   -0.000000   0.666719  -0.000000  -0.000000  -0.000000
   18  F  1  Z   -0.000000   0.000000   0.626657   0.053784  -0.000000
   19  F  1  X   -2.288587   0.000000  -0.000000  -0.000000  -0.000000
   20  F  1  Y   -0.000000  -2.288587  -0.000000  -0.000000  -0.000000
   21  F  1  Z   -0.000000   0.000000  -1.822309   0.757392  -0.000000
   22  F  1  X    8.203559   0.000000  -0.000000  -0.000000  -0.000000
   23  F  1  Y   -0.000000   8.203559  -0.000000  -0.000000  -0.000000
   24  F  1  Z   -0.000000   0.000000   5.836879   8.918608  -0.000000
   25  F  1  S   -0.000000   0.000000  -9.529435-123.558742  -0.000000
   26  F  1  X   -6.377766   0.000000  -0.000000  -0.000000  -0.000000
   27  F  1  Y   -0.000000  -6.377766  -0.000000  -0.000000  -0.000000
   28  F  1  Z   -0.000000   0.000000  -4.570688 -10.580021  -0.000000
   29  F  1 XX   -0.000000   0.000000   0.001956   0.001462  -0.024687
   30  F  1 YY   -0.000000   0.000000   0.001956   0.001462   0.024687
   31  F  1 ZZ   -0.000000   0.000000  -0.003912  -0.002924  -0.000000
   32  F  1 XY   -0.000000   0.000000  -0.000000  -0.000000  -0.000000
   33  F  1 XZ   -0.001506   0.000000  -0.000000  -0.000000  -0.000000
   34  F  1 YZ   -0.000000  -0.001506  -0.000000  -0.000000  -0.000000
   35  F  1 XX   -0.000000   0.000000   0.019843   0.006056   0.064680
   36  F  1 YY   -0.000000   0.000000   0.019843   0.006056  -0.064680
   37  F  1 ZZ   -0.000000   0.000000  -0.039686  -0.012112  -0.000000
   38  F  1 XY   -0.000000   0.000000  -0.000000  -0.000000  -0.000000
   39  F  1 XZ   -0.012105   0.000000  -0.000000  -0.000000  -0.000000
   40  F  1 YZ   -0.000000  -0.012105  -0.000000  -0.000000  -0.000000
   41  F  1 XX   -0.000000   0.000000  -0.013922  -0.132622  -0.558777
   42  F  1 YY   -0.000000   0.000000  -0.013922  -0.132622   0.558777
   43  F  1 ZZ   -0.000000   0.000000   0.027845   0.265244  -0.000000
   44  F  1 XY   -0.000000   0.000000  -0.000000  -0.000000  -0.000000
   45  F  1 XZ   -0.005598   0.000000  -0.000000  -0.000000  -0.000000
   46  F  1 YZ   -0.000000  -0.005598  -0.000000  -0.000000  -0.000000
   47  F  1 XXX  -0.000180   0.000000  -0.000000  -0.000000  -0.000000
   48  F  1 YYY  -0.000000  -0.000180  -0.000000  -0.000000  -0.000000
   49  F  1 ZZZ  -0.000000   0.000000  -0.000185  -0.000830  -0.000000
   50  F  1 XXY  -0.000000  -0.000081  -0.000000  -0.000000  -0.000000
   51  F  1 XXZ  -0.000000   0.000000   0.000124   0.000557  -0.002735
   52  F  1 YYX  -0.000081   0.000000  -0.000000  -0.000000  -0.000000
   53  F  1 YYZ  -0.000000   0.000000   0.000124   0.000557   0.002735
   54  F  1 ZZX   0.000323   0.000000  -0.000000  -0.000000  -0.000000
   55  F  1 ZZY  -0.000000   0.000323  -0.000000  -0.000000  -0.000000
   56  F  1 XYZ  -0.000000   0.000000  -0.000000  -0.000000  -0.000000
   57  F  1 XXX  -0.000534   0.000000  -0.000000  -0.000000  -0.000000
   58  F  1 YYY  -0.000000  -0.000534  -0.000000  -0.000000  -0.000000
   59  F  1 ZZZ  -0.000000   0.000000  -0.020267   0.029957  -0.000000
   60  F  1 XXY  -0.000000  -0.000239  -0.000000  -0.000000  -0.000000
   61  F  1 XXZ  -0.000000   0.000000   0.013596  -0.020096   0.005842
   62  F  1 YYX  -0.000239   0.000000  -0.000000  -0.000000  -0.000000
   63  F  1 YYZ  -0.000000   0.000000   0.013596  -0.020096  -0.005842
   64  F  1 ZZX   0.000956   0.000000  -0.000000  -0.000000  -0.000000
   65  F  1 ZZY  -0.000000   0.000956  -0.000000  -0.000000  -0.000000
   66  F  1 XYZ  -0.000000   0.000000  -0.000000  -0.000000  -0.000000
   67  F  2  S   -0.000000   0.000000  -0.030121   0.052583  -0.000000
   68  F  2  S   -0.000000   0.000000   0.051193  -0.101991  -0.000000
   69  F  2  S   -0.000000   0.000000  -0.396673   0.831930  -0.000000
   70  F  2  S   -0.000000   0.000000   1.079422  -2.381272  -0.000000
   71  F  2  S   -0.000000   0.000000  -3.412257   9.687174  -0.000000
   72  F  2  S   -0.000000   0.000000  12.109751-124.638458  -0.000000
   73  F  2  X    0.054303   0.000000  -0.000000  -0.000000  -0.000000
   74  F  2  Y   -0.000000   0.054303  -0.000000  -0.000000  -0.000000
   75  F  2  Z   -0.000000   0.000000   0.034783   0.018833  -0.000000
   76  F  2  X   -0.011115   0.000000  -0.000000  -0.000000  -0.000000
   77  F  2  Y   -0.000000  -0.011115  -0.000000  -0.000000  -0.000000
   78  F  2  Z   -0.000000   0.000000  -0.023421   0.011422  -0.000000
   79  F  2  X    0.303677   0.000000  -0.000000  -0.000000  -0.000000
   80  F  2  Y   -0.000000   0.303677  -0.000000  -0.000000  -0.000000
   81  F  2  Z   -0.000000   0.000000   0.255260   0.023483  -0.000000
   82  F  2  X   -0.666719   0.000000  -0.000000  -0.000000  -0.000000
   83  F  2  Y   -0.000000  -0.666719  -0.000000  -0.000000  -0.000000
   84  F  2  Z   -0.000000   0.000000  -0.626657   0.053784  -0.000000
   85  F  2  X    2.288587   0.000000  -0.000000  -0.000000  -0.000000
   86  F  2  Y   -0.000000   2.288587  -0.000000  -0.000000  -0.000000
   87  F  2  Z   -0.000000   0.000000   1.822309   0.757392  -0.000000
   88  F  2  X   -8.203559   0.000000  -0.000000  -0.000000  -0.000000
   89  F  2  Y   -0.000000  -8.203559  -0.000000  -0.000000  -0.000000
   90  F  2  Z   -0.000000   0.000000  -5.836879   8.918608  -0.000000
   91  F  2  S   -0.000000   0.000000  -9.529435 123.558742  -0.000000
   92  F  2  X    6.377766   0.000000  -0.000000  -0.000000  -0.000000
   93  F  2  Y   -0.000000   6.377766  -0.000000  -0.000000  -0.000000
   94  F  2  Z   -0.000000   0.000000   4.570688 -10.580021  -0.000000
   95  F  2 XX   -0.000000   0.000000   0.001956  -0.001462  -0.024687
   96  F  2 YY   -0.000000   0.000000   0.001956  -0.001462   0.024687
   97  F  2 ZZ   -0.000000   0.000000  -0.003912   0.002924  -0.000000
   98  F  2 XY   -0.000000   0.000000  -0.000000  -0.000000  -0.000000
   99  F  2 XZ   -0.001506   0.000000  -0.000000  -0.000000  -0.000000
  100  F  2 YZ   -0.000000  -0.001506  -0.000000  -0.000000  -0.000000
  101  F  2 XX   -0.000000   0.000000   0.019843  -0.006056   0.064680
  102  F  2 YY   -0.000000   0.000000   0.019843  -0.006056  -0.064680
  103  F  2 ZZ   -0.000000   0.000000  -0.039686   0.012112  -0.000000
  104  F  2 XY   -0.000000   0.000000  -0.000000  -0.000000  -0.000000
  105  F  2 XZ   -0.012105   0.000000  -0.000000  -0.000000  -0.000000
  106  F  2 YZ   -0.000000  -0.012105  -0.000000  -0.000000  -0.000000
  107  F  2 XX   -0.000000   0.000000  -0.013922   0.132622  -0.558777
  108  F  2 YY   -0.000000   0.000000  -0.013922   0.132622   0.558777
  109  F  2 ZZ   -0.000000   0.000000   0.027845  -0.265244  -0.000000
  110  F  2 XY   -0.000000   0.000000  -0.000000  -0.000000  -0.000000
  111  F  2 XZ   -0.005598   0.000000  -0.000000  -0.000000  -0.000000
  112  F  2 YZ   -0.000000  -0.005598  -0.000000  -0.000000  -0.000000
  113  F  2 XXX   0.000180   0.000000  -0.000000  -0.000000  -0.000000
  114  F  2 YYY  -0.000000   0.000180  -0.000000  -0.000000  -0.000000
  115  F  2 ZZZ  -0.000000   0.000000   0.000185  -0.000830  -0.000000
  116  F  2 XXY  -0.000000   0.000081  -0.000000  -0.000000  -0.000000
  117  F  2 XXZ  -0.000000   0.000000  -0.000124   0.000557   0.002735
  118  F  2 YYX   0.000081   0.000000  -0.000000  -0.000000  -0.000000
  119  F  2 YYZ  -0.000000   0.000000  -0.000124   0.000557  -0.002735
  120  F  2 ZZX  -0.000323   0.000000  -0.000000  -0.000000  -0.000000
  121  F  2 ZZY  -0.000000  -0.000323  -0.000000  -0.000000  -0.000000
  122  F  2 XYZ  -0.000000   0.000000  -0.000000  -0.000000  -0.000000
  123  F  2 XXX   0.000534   0.000000  -0.000000  -0.000000  -0.000000
  124  F  2 YYY  -0.000000   0.000534  -0.000000  -0.000000  -0.000000
  125  F  2 ZZZ  -0.000000   0.000000   0.020267   0.029957  -0.000000
  126  F  2 XXY  -0.000000   0.000239  -0.000000  -0.000000  -0.000000
  127  F  2 XXZ  -0.000000   0.000000  -0.013596  -0.020096  -0.005842
  128  F  2 YYX   0.000239   0.000000  -0.000000  -0.000000  -0.000000
  129  F  2 YYZ  -0.000000   0.000000  -0.013596  -0.020096   0.005842
  130  F  2 ZZX  -0.000956   0.000000  -0.000000  -0.000000  -0.000000
[...]
   86  F  2  Y    0.000000   0.000000   0.976789   0.000000   0.000000
   87  F  2  Z    0.000000   0.000000   0.000000   0.723110  -0.795920
   88  F  2  X   -2.333897   4.431449   0.000000   0.000000   0.000000
   89  F  2  Y    0.000000   0.000000  -4.431449   0.000000   0.000000
   90  F  2  Z    0.000000   0.000000   0.000000  -4.564773   3.193189
   91  F  2  S    0.000000   0.000000   0.000000 -33.933728   5.700275
   92  F  2  X    2.264615  -5.407320   0.000000   0.000000   0.000000
   93  F  2  Y    0.000000   0.000000   5.407320   0.000000   0.000000
   94  F  2  Z    0.000000   0.000000   0.000000   5.295179  -3.916844
   95  F  2 XX    0.000000   0.000000   0.000000   0.002830   0.001228
   96  F  2 YY    0.000000   0.000000   0.000000   0.002830   0.001228
   97  F  2 ZZ    0.000000   0.000000   0.000000  -0.005661  -0.002457
   98  F  2 XY    0.000000   0.000000   0.000000   0.000000   0.000000
   99  F  2 XZ    0.000621  -0.000706   0.000000   0.000000   0.000000
  100  F  2 YZ    0.000000   0.000000   0.000706   0.000000   0.000000
  101  F  2 XX    0.000000   0.000000   0.000000   0.000669  -0.001389
  102  F  2 YY    0.000000   0.000000   0.000000   0.000669  -0.001389
  103  F  2 ZZ    0.000000   0.000000   0.000000  -0.001339   0.002777
  104  F  2 XY    0.000000   0.000000   0.000000   0.000000   0.000000
  105  F  2 XZ    0.003761  -0.000865   0.000000   0.000000   0.000000
  106  F  2 YZ    0.000000   0.000000   0.000865   0.000000   0.000000
  107  F  2 XX    0.000000   0.000000   0.000000   0.038990   0.014539
  108  F  2 YY    0.000000   0.000000   0.000000   0.038990   0.014539
  109  F  2 ZZ    0.000000   0.000000   0.000000  -0.077979  -0.029077
  110  F  2 XY    0.000000   0.000000   0.000000   0.000000   0.000000
  111  F  2 XZ    0.004067  -0.010277   0.000000   0.000000   0.000000
  112  F  2 YZ    0.000000   0.000000   0.010277   0.000000   0.000000
  113  F  2 XXX   0.000262  -0.000164   0.000000   0.000000   0.000000
  114  F  2 YYY   0.000000   0.000000   0.000164   0.000000   0.000000
  115  F  2 ZZZ   0.000000   0.000000   0.000000  -0.000938   0.001727
  116  F  2 XXY   0.000000   0.000000   0.000073   0.000000   0.000000
  117  F  2 XXZ   0.000000   0.000000   0.000000   0.000629  -0.001158
  118  F  2 YYX   0.000117  -0.000073   0.000000   0.000000   0.000000
  119  F  2 YYZ   0.000000   0.000000   0.000000   0.000629  -0.001158
  120  F  2 ZZX  -0.000469   0.000294   0.000000   0.000000   0.000000
  121  F  2 ZZY   0.000000   0.000000  -0.000294   0.000000   0.000000
  122  F  2 XYZ   0.000000   0.000000   0.000000   0.000000   0.000000
  123  F  2 XXX  -0.000362  -0.001384   0.000000   0.000000   0.000000
  124  F  2 YYY   0.000000   0.000000   0.001384   0.000000   0.000000
  125  F  2 ZZZ   0.000000   0.000000   0.000000  -0.005349  -0.005890
  126  F  2 XXY   0.000000   0.000000   0.000619   0.000000   0.000000
  127  F  2 XXZ   0.000000   0.000000   0.000000   0.003588   0.003951
  128  F  2 YYX  -0.000162  -0.000619   0.000000   0.000000   0.000000
  129  F  2 YYZ   0.000000   0.000000   0.000000   0.003588   0.003951
  130  F  2 ZZX   0.000647   0.002476   0.000000   0.000000   0.000000
  131  F  2 ZZY   0.000000   0.000000  -0.002476   0.000000   0.000000
  132  F  2 XYZ   0.000000   0.000000   0.000000   0.000000   0.000000

                     16         17
                    0.3019     0.4260
                     B1U        AG  
    1  F  1  S    0.010976   0.059438
    2  F  1  S    0.076992  -0.051609
    3  F  1  S   -0.356101   0.559848
    4  F  1  S    1.212784  -1.374227
    5  F  1  S   -4.095748   4.720646
    6  F  1  S   89.004534 -24.821822
    7  F  1  X    0.000000   0.000000
    8  F  1  Y    0.000000   0.000000
    9  F  1  Z   -0.041306  -0.031857
   10  F  1  X    0.000000   0.000000
   11  F  1  Y    0.000000   0.000000
   12  F  1  Z   -0.062630   0.006900
   13  F  1  X    0.000000   0.000000
   14  F  1  Y    0.000000   0.000000
   15  F  1  Z   -0.010072  -0.182429
   16  F  1  X    0.000000   0.000000
   17  F  1  Y    0.000000   0.000000
   18  F  1  Z   -0.154640   0.348894
   19  F  1  X    0.000000   0.000000
   20  F  1  Y    0.000000   0.000000
   21  F  1  Z    1.137626  -1.065875
   22  F  1  X    0.000000   0.000000
   23  F  1  Y    0.000000   0.000000
   24  F  1  Z    1.693686   3.069095
   25  F  1  S -105.073143  20.956422
   26  F  1  X    0.000000   0.000000
   27  F  1  Y    0.000000   0.000000
   28  F  1  Z   -9.006553  -2.004348
   29  F  1 XX   -0.000705   0.000301
   30  F  1 YY   -0.000705   0.000301
   31  F  1 ZZ    0.001410  -0.000602
   32  F  1 XY    0.000000   0.000000
   33  F  1 XZ    0.000000   0.000000
   34  F  1 YZ    0.000000   0.000000
   35  F  1 XX   -0.004988   0.000663
   36  F  1 YY   -0.004988   0.000663
   37  F  1 ZZ    0.009976  -0.001325
   38  F  1 XY    0.000000   0.000000
   39  F  1 XZ    0.000000   0.000000
   40  F  1 YZ    0.000000   0.000000
   41  F  1 XX   -0.118489   0.007093
   42  F  1 YY   -0.118489   0.007093
   43  F  1 ZZ    0.236978  -0.014185
   44  F  1 XY    0.000000   0.000000
   45  F  1 XZ    0.000000   0.000000
   46  F  1 YZ    0.000000   0.000000
   47  F  1 XXX   0.000000   0.000000
   48  F  1 YYY   0.000000   0.000000
   49  F  1 ZZZ  -0.001368  -0.000257
   50  F  1 XXY   0.000000   0.000000
   51  F  1 XXZ   0.000918   0.000173
   52  F  1 YYX   0.000000   0.000000
   53  F  1 YYZ   0.000918   0.000173
   54  F  1 ZZX   0.000000   0.000000
   55  F  1 ZZY   0.000000   0.000000
   56  F  1 XYZ   0.000000   0.000000
   57  F  1 XXX   0.000000   0.000000
   58  F  1 YYY   0.000000   0.000000
   59  F  1 ZZZ   0.018858   0.006884
   60  F  1 XXY   0.000000   0.000000
   61  F  1 XXZ  -0.012650  -0.004618
   62  F  1 YYX   0.000000   0.000000
   63  F  1 YYZ  -0.012650  -0.004618
   64  F  1 ZZX   0.000000   0.000000
   65  F  1 ZZY   0.000000   0.000000
   66  F  1 XYZ   0.000000   0.000000
   67  F  2  S   -0.010976   0.059438
   68  F  2  S   -0.076992  -0.051609
   69  F  2  S    0.356101   0.559848
   70  F  2  S   -1.212784  -1.374227
   71  F  2  S    4.095748   4.720646
   72  F  2  S  -89.004534 -24.821822
   73  F  2  X    0.000000   0.000000
   74  F  2  Y    0.000000   0.000000
   75  F  2  Z   -0.041306   0.031857
   76  F  2  X    0.000000   0.000000
   77  F  2  Y    0.000000   0.000000
   78  F  2  Z   -0.062630  -0.006900
   79  F  2  X    0.000000   0.000000
   80  F  2  Y    0.000000   0.000000
   81  F  2  Z   -0.010072   0.182429
   82  F  2  X    0.000000   0.000000
   83  F  2  Y    0.000000   0.000000
   84  F  2  Z   -0.154640  -0.348894
   85  F  2  X    0.000000   0.000000
   86  F  2  Y    0.000000   0.000000
   87  F  2  Z    1.137626   1.065875
   88  F  2  X    0.000000   0.000000
   89  F  2  Y    0.000000   0.000000
   90  F  2  Z    1.693686  -3.069095
   91  F  2  S  105.073143  20.956422
   92  F  2  X    0.000000   0.000000
   93  F  2  Y    0.000000   0.000000
   94  F  2  Z   -9.006553   2.004348
   95  F  2 XX    0.000705   0.000301
   96  F  2 YY    0.000705   0.000301
   97  F  2 ZZ   -0.001410  -0.000602
   98  F  2 XY    0.000000   0.000000
   99  F  2 XZ    0.000000   0.000000
  100  F  2 YZ    0.000000   0.000000
  101  F  2 XX    0.004988   0.000663
  102  F  2 YY    0.004988   0.000663
  103  F  2 ZZ   -0.009976  -0.001325
  104  F  2 XY    0.000000   0.000000
  105  F  2 XZ    0.000000   0.000000
  106  F  2 YZ    0.000000   0.000000
  107  F  2 XX    0.118489   0.007093
  108  F  2 YY    0.118489   0.007093
  109  F  2 ZZ   -0.236978  -0.014185
  110  F  2 XY    0.000000   0.000000
  111  F  2 XZ    0.000000   0.000000
  112  F  2 YZ    0.000000   0.000000
  113  F  2 XXX   0.000000   0.000000
  114  F  2 YYY   0.000000   0.000000
  115  F  2 ZZZ  -0.001368   0.000257
  116  F  2 XXY   0.000000   0.000000
  117  F  2 XXZ   0.000918  -0.000173
  118  F  2 YYX   0.000000   0.000000
  119  F  2 YYZ   0.000918  -0.000173
  120  F  2 ZZX   0.000000   0.000000
  121  F  2 ZZY   0.000000   0.000000
  122  F  2 XYZ   0.000000   0.000000
  123  F  2 XXX   0.000000   0.000000
  124  F  2 YYY   0.000000   0.000000
  125  F  2 ZZZ   0.018858  -0.006884
  126  F  2 XXY   0.000000   0.000000
  127  F  2 XXZ  -0.012650   0.004618
  128  F  2 YYX   0.000000   0.000000
  129  F  2 YYZ  -0.012650   0.004618
  130  F  2 ZZX   0.000000   0.000000
  131  F  2 ZZY   0.000000   0.000000
  132  F  2 XYZ   0.000000   0.000000

     ----------------------------------------------------------------
     PROPERTY VALUES FOR THE RHF   SELF-CONSISTENT FIELD WAVEFUNCTION
     ----------------------------------------------------------------

          -----------------
          ENERGY COMPONENTS
          -----------------

         WAVEFUNCTION NORMALIZATION =       1.0000000000

                ONE ELECTRON ENERGY =    -120.7073365472
                TWO ELECTRON ENERGY =      53.3207181768
           NUCLEAR REPULSION ENERGY =      19.5277189720
                                      ------------------
                       TOTAL ENERGY =     -47.8588993984

 ELECTRON-ELECTRON POTENTIAL ENERGY =      53.3207181768
  NUCLEUS-ELECTRON POTENTIAL ENERGY =    -170.3453068086
   NUCLEUS-NUCLEUS POTENTIAL ENERGY =      19.5277189720
                                      ------------------
             TOTAL POTENTIAL ENERGY =     -97.4968696599
               TOTAL KINETIC ENERGY =      49.6379702614
                 VIRIAL RATIO (V/T) =       1.9641590731

          ---------------------------------------
          MULLIKEN AND LOWDIN POPULATION ANALYSES
          ---------------------------------------

     ATOMIC MULLIKEN POPULATION IN EACH MOLECULAR ORBITAL

                      1          2          3          4          5

                  2.000000   2.000000   2.000000   2.000000   2.000000

    1             1.000000   1.000000   1.000000   1.000000   1.000000
    2             1.000000   1.000000   1.000000   1.000000   1.000000

                      6          7

                  2.000000   2.000000

    1             1.000000   1.000000
    2             1.000000   1.000000

               ----- POPULATIONS IN EACH AO -----
                             MULLIKEN      LOWDIN
              1  F  1  S     -0.02329     0.05614
              2  F  1  S      0.31325     0.17772
              3  F  1  S      0.77971     0.29401
              4  F  1  S      0.69783     0.24734
              5  F  1  S      0.18548     0.13128
              6  F  1  S     -0.00616     0.04814
              7  F  1  X      0.30955     0.30172
              8  F  1  Y      0.30955     0.30172
              9  F  1  Z      0.13856     0.13092
             10  F  1  X      0.44736     0.37414
             11  F  1  Y      0.44736     0.37414
             12  F  1  Z      0.20944     0.17475
             13  F  1  X      0.57356     0.30058
             14  F  1  Y      0.57356     0.30058
             15  F  1  Z      0.33515     0.16937
             16  F  1  X      0.45981     0.21086
             17  F  1  Y      0.45981     0.21086
             18  F  1  Z      0.25550     0.15004
             19  F  1  X      0.17999     0.11747
             20  F  1  Y      0.17999     0.11747
             21  F  1  Z      0.08239     0.09837
             22  F  1  X      0.02193     0.03522
             23  F  1  Y      0.02193     0.03522
             24  F  1  Z     -0.00178     0.03375
             25  F  1  S      0.01507     0.04058
             26  F  1  X      0.00047     0.01565
             27  F  1  Y      0.00047     0.01565
             28  F  1  Z      0.00144     0.01635
             29  F  1 XX      0.00094     0.14014
             30  F  1 YY      0.00000     0.14014
             31  F  1 ZZ      0.00000     0.13619
             32  F  1 XY      0.00019     0.00000
             33  F  1 XZ      0.00019     0.00016
             34  F  1 YZ      0.00000     0.00016
             35  F  1 XX      0.01324     0.11174
             36  F  1 YY      0.00000     0.11174
             37  F  1 ZZ      0.00000     0.10993
             38  F  1 XY      0.00389     0.00000
             39  F  1 XZ      0.00389     0.00497
             40  F  1 YZ      0.00000     0.00497
             41  F  1 XX      0.00076     0.00923
             42  F  1 YY      0.00000     0.00923
             43  F  1 ZZ      0.00000     0.07340
             44  F  1 XY      0.00189     0.00000
             45  F  1 XZ      0.00189     0.03873
             46  F  1 YZ      0.00000     0.03873
             47  F  1 XXX     0.00000     0.19323
             48  F  1 YYY     0.00000     0.19323
             49  F  1 ZZZ     0.00019     0.11409
             50  F  1 XXY     0.00071     0.08654
             51  F  1 XXZ     0.00019     0.04185
             52  F  1 YYX     0.00000     0.08654
             53  F  1 YYZ     0.00000     0.04185
             54  F  1 ZZX     0.00000     0.08922
             55  F  1 ZZY     0.00000     0.08922
             56  F  1 XYZ     0.00000     0.00000
             57  F  1 XXX     0.00000     0.12206
             58  F  1 YYY     0.00000     0.12206
             59  F  1 ZZZ     0.00116     0.12945
             60  F  1 XXY     0.00178     0.05256
             61  F  1 XXZ     0.00116     0.03112
             62  F  1 YYX     0.00000     0.05256
             63  F  1 YYZ     0.00000     0.03112
             64  F  1 ZZX     0.00000     0.05690
             65  F  1 ZZY     0.00000     0.05690
             66  F  1 XYZ     0.00000     0.00000
             67  F  2  S     -0.02329     0.05614
             68  F  2  S      0.31325     0.17772
             69  F  2  S      0.77971     0.29401
             70  F  2  S      0.69783     0.24734
             71  F  2  S      0.18548     0.13128
             72  F  2  S     -0.00616     0.04814
             73  F  2  X      0.30955     0.30172
             74  F  2  Y      0.30955     0.30172
             75  F  2  Z      0.13856     0.13092
             76  F  2  X      0.44736     0.37414
             77  F  2  Y      0.44736     0.37414
             78  F  2  Z      0.20944     0.17475
             79  F  2  X      0.57356     0.30058
             80  F  2  Y      0.57356     0.30058
             81  F  2  Z      0.33515     0.16937
             82  F  2  X      0.45981     0.21086
             83  F  2  Y      0.45981     0.21086
             84  F  2  Z      0.25550     0.15004
             85  F  2  X      0.17999     0.11747
             86  F  2  Y      0.17999     0.11747
             87  F  2  Z      0.08239     0.09837
             88  F  2  X      0.02193     0.03522
             89  F  2  Y      0.02193     0.03522
             90  F  2  Z     -0.00178     0.03375
             91  F  2  S      0.01507     0.04058
             92  F  2  X      0.00047     0.01565
             93  F  2  Y      0.00047     0.01565
             94  F  2  Z      0.00144     0.01635
             95  F  2 XX      0.00094     0.14014
             96  F  2 YY      0.00000     0.14014
             97  F  2 ZZ      0.00000     0.13619
             98  F  2 XY      0.00019     0.00000
             99  F  2 XZ      0.00019     0.00016
            100  F  2 YZ      0.00000     0.00016
            101  F  2 XX      0.01324     0.11174
            102  F  2 YY      0.00000     0.11174
            103  F  2 ZZ      0.00000     0.10993
            104  F  2 XY      0.00389     0.00000
            105  F  2 XZ      0.00389     0.00497
            106  F  2 YZ      0.00000     0.00497
            107  F  2 XX      0.00076     0.00923
            108  F  2 YY      0.00000     0.00923
            109  F  2 ZZ      0.00000     0.07340
            110  F  2 XY      0.00189     0.00000
            111  F  2 XZ      0.00189     0.03873
            112  F  2 YZ      0.00000     0.03873
            113  F  2 XXX     0.00000     0.19323
            114  F  2 YYY     0.00000     0.19323
            115  F  2 ZZZ     0.00019     0.11409
            116  F  2 XXY     0.00071     0.08654
            117  F  2 XXZ     0.00019     0.04185
            118  F  2 YYX     0.00000     0.08654
            119  F  2 YYZ     0.00000     0.04185
            120  F  2 ZZX     0.00000     0.08922
            121  F  2 ZZY     0.00000     0.08922
            122  F  2 XYZ     0.00000     0.00000
            123  F  2 XXX     0.00000     0.12206
            124  F  2 YYY     0.00000     0.12206
            125  F  2 ZZZ     0.00116     0.12945
            126  F  2 XXY     0.00178     0.05256
            127  F  2 XXZ     0.00116     0.03112
            128  F  2 YYX     0.00000     0.05256
            129  F  2 YYZ     0.00000     0.03112
            130  F  2 ZZX     0.00000     0.05690
            131  F  2 ZZY     0.00000     0.05690
            132  F  2 XYZ     0.00000     0.00000

          ----- MULLIKEN ATOMIC OVERLAP POPULATIONS -----
          (OFF-DIAGONAL ELEMENTS NEED TO BE MULTIPLIED BY 2)

             1           2

    1    6.9929037
    2    0.0070963   6.9929037

          TOTAL MULLIKEN AND LOWDIN ATOMIC POPULATIONS
       ATOM         MULL.POP.    CHARGE          LOW.POP.     CHARGE
    1 F             7.000000    0.000000         7.000000   -0.000000
    2 F             7.000000    0.000000         7.000000    0.000000

          MULLIKEN SPHERICAL HARMONIC POPULATIONS
       ATOM           S       P       D      F      G      H      I    TOTAL
    1 F             1.96    5.01    0.03   0.01   0.00   0.00   0.00    7.00
    2 F             1.96    5.01    0.03   0.01   0.00   0.00   0.00    7.00

          -------------------------------
          BOND ORDER AND VALENCE ANALYSIS     BOND ORDER THRESHOLD=0.050
          -------------------------------

                   BOND                       BOND                       BOND
  ATOM PAIR DIST  ORDER      ATOM PAIR DIST  ORDER      ATOM PAIR DIST  ORDER
    1   2  1.328  0.900

                       TOTAL       BONDED        FREE
      ATOM            VALENCE     VALENCE     VALENCE
    1 F                 0.900       0.900      -0.000
    2 F                 0.900       0.900       0.000

          ---------------------
          ELECTROSTATIC MOMENTS
          ---------------------

 POINT   1           X           Y           Z (BOHR)    CHARGE
                 0.000000    0.000000    0.000000        0.00 (A.U.)
         DX          DY          DZ         /D/  (DEBYE)
     0.000000    0.000000   -0.000000    0.000000
 ...... END OF PROPERTY EVALUATION ......
 STEP CPU TIME =     0.04 TOTAL CPU TIME =       35.9 (    0.6 MIN)
 TOTAL WALL CLOCK TIME=       36.8 SECONDS, CPU UTILIZATION IS  97.55%
  $VIB   
          IVIB=   0 IATOM=   0 ICOORD=   0 E=      -47.8588993984
  0.000000000E+00 0.000000000E+00 7.944792704E-07 0.000000000E+00 0.000000000E+00
 -7.944792704E-07
  0.000000000E+00 0.000000000E+00-4.515083418E-15
 ......END OF GEOMETRY SEARCH......
 STEP CPU TIME =     0.00 TOTAL CPU TIME =       35.9 (    0.6 MIN)
 TOTAL WALL CLOCK TIME=       36.8 SECONDS, CPU UTILIZATION IS  97.55%
              2602841  WORDS OF DYNAMIC MEMORY USED
 EXECUTION OF GAMESS TERMINATED NORMALLY Mon Nov 28 20:22:56 2016
 DDI: 263640 bytes (0.3 MB / 0 MWords) used by master data server.

 ----------------------------------------
 CPU timing information for all processes
 ========================================
 0: 35.781 + 0.88 = 35.870
 ----------------------------------------
 ddikick.x: exited gracefully.
unset echo
----- accounting info -----
Files used on the master node compute-3-0 were:
-rw-rw-r-- 1 sarom sarom  556912 Nov 29  2016 .//mcp-f2.dat
-rw-rw-r-- 1 sarom sarom     859 Nov 29  2016 .//mcp-f2.F05
-rw-rw-r-- 1 sarom sarom 3304720 Nov 29  2016 .//mcp-f2.F10
-rw-rw-r-- 1 sarom sarom     859 Nov 28 17:27 .//mcp-f2.inp
-rw-rw-r-- 1 sarom sarom  352120 Nov 29  2016 .//mcp-f2.log
Mon Nov 28 20:23:01 CST 2016
0.189u 0.295s 0:42.16 1.1%	0+0k 0+144io 0pf+0w
