----- GAMESS execution script 'rungms' -----
This job is running on host compute-3-0
under operating system Linux at Mon Nov 28 21:27:45 CST 2016
Available scratch disk space (Kbyte units) at beginning of the job is
Filesystem            1K-blocks       Used  Available Use% Mounted on
bolt.local:/export/home/sarom
                     9590469632 1552979968 7550321664  18% /home/sarom
Copying input file mc-psi-hno-dynwt.inp to your run's scratch directory...
cp mc-psi-hno-dynwt.inp .//mc-psi-hno-dynwt.F05
unset echo
/home/sarom/gamessGH/ddikick.x /home/sarom/gamessGH/gamess.00.x mc-psi-hno-dynwt -ddi 1 1 localhost -scr ./

 Distributed Data Interface kickoff program.
 Initiating 1 compute processes on 1 nodes to run the following command:
 /home/sarom/gamessGH/gamess.00.x mc-psi-hno-dynwt 

          ******************************************************
          *         GAMESS VERSION = 18 AUG 2016 (R1)          *
          *             FROM IOWA STATE UNIVERSITY             *
          * M.W.SCHMIDT, K.K.BALDRIDGE, J.A.BOATZ, S.T.ELBERT, *
          *   M.S.GORDON, J.H.JENSEN, S.KOSEKI, N.MATSUNAGA,   *
          *          K.A.NGUYEN, S.J.SU, T.L.WINDUS,           *
          *       TOGETHER WITH M.DUPUIS, J.A.MONTGOMERY       *
          *         J.COMPUT.CHEM.  14, 1347-1363(1993)        *
          **************** 64 BIT LINUX VERSION ****************

  SINCE 1993, STUDENTS AND POSTDOCS WORKING AT IOWA STATE UNIVERSITY
  AND ALSO IN THEIR VARIOUS JOBS AFTER LEAVING ISU HAVE MADE IMPORTANT
  CONTRIBUTIONS TO THE CODE:
     IVANA ADAMOVIC, CHRISTINE AIKENS, YURI ALEXEEV, POOJA ARORA,
     ANDREY ASADCHEV, ROB BELL, PRADIPTA BANDYOPADHYAY, JONATHAN BENTZ,
     BRETT BODE, KURT BRORSEN, CALEB CARLIN, GALINA CHABAN, WEI CHEN,
     CHEOL HO CHOI, PAUL DAY, ALBERT DEFUSCO, NUWAN DESILVA, TIM DUDLEY,
     DMITRI FEDOROV, GRAHAM FLETCHER, MARK FREITAG, KURT GLAESEMANN,
     DAN KEMP, GRANT MERRILL, NORIYUKI MINEZAWA, JONATHAN MULLIN,
     TAKESHI NAGATA, SEAN NEDD, HEATHER NETZLOFF, BOSILJKA NJEGIC, RYAN OLSON,
     MIKE PAK, SPENCER PRUITT, LUKE ROSKOP, JIM SHOEMAKER, LYUDMILA SLIPCHENKO,
     TONY SMITH, SAROM SOK LEANG, JIE SONG, TETSUYA TAKETSUGU, SIMON WEBB,
     PENG XU, SOOHAENG YOO, FEDERICO ZAHARIEV

  ADDITIONAL CODE HAS BEEN PROVIDED BY COLLABORATORS IN OTHER GROUPS:
     IOWA STATE UNIVERSITY:
          JOE IVANIC, AARON WEST, LAIMUTIS BYTAUTAS, KLAUS RUEDENBERG
     UNIVERSITY OF TOKYO: KIMIHIKO HIRAO, TAKAHITO NAKAJIMA,
          TAKAO TSUNEDA, MUNEAKI KAMIYA, SUSUMU YANAGISAWA,
          KIYOSHI YAGI, MAHITO CHIBA, SEIKEN TOKURA, NAOAKI KAWAKAMI
     UNIVERSITY OF AARHUS: FRANK JENSEN
     UNIVERSITY OF IOWA: VISVALDAS KAIRYS, HUI LI
     NATIONAL INST. OF STANDARDS AND TECHNOLOGY: WALT STEVENS, DAVID GARMER
     UNIVERSITY OF PISA: BENEDETTA MENNUCCI, JACOPO TOMASI
     UNIVERSITY OF MEMPHIS: HENRY KURTZ, PRAKASHAN KORAMBATH
     UNIVERSITY OF ALBERTA: TOBY ZENG, MARIUSZ KLOBUKOWSKI
     UNIVERSITY OF NEW ENGLAND: MARK SPACKMAN
     MIE UNIVERSITY: HIROAKI UMEDA
     NAT. INST. OF ADVANCED INDUSTRIAL SCIENCE AND TECHNOLOGY: KAZUO KITAURA
     MICHIGAN STATE UNIVERSITY:
          KAROL KOWALSKI, MARTA WLOCH, JEFFREY GOUR, JESSE LUTZ,
          WEI LI, PIOTR PIECUCH
     UNIVERSITY OF SILESIA: MONIKA MUSIAL, STANISLAW KUCHARSKI
     FACULTES UNIVERSITAIRES NOTRE-DAME DE LA PAIX:
          OLIVIER QUINET, BENOIT CHAMPAGNE
     UNIVERSITY OF CALIFORNIA - SANTA BARBARA: BERNARD KIRTMAN
     INSTITUTE FOR MOLECULAR SCIENCE:
          KAZUYA ISHIMURA, MICHIO KATOUDA, AND SHIGERU NAGASE
     UNIVERSITY OF NOTRE DAME: ANNA POMOGAEVA, DAN CHIPMAN
     KYUSHU UNIVERSITY:
          HARUYUKI NAKANO,
          FENG LONG GU, JACEK KORCHOWIEC, MARCIN MAKOWSKI, AND YURIKO AOKI,
          HIROTOSHI MORI AND EISAKU MIYOSHI
     PENNSYLVANIA STATE UNIVERSITY:
          TZVETELIN IORDANOV, CHET SWALINA, JONATHAN SKONE,
          SHARON HAMMES-SCHIFFER
     WASEDA UNIVERSITY:
          MASATO KOBAYASHI, TOMOKO AKAMA, TSUGUKI TOUMA,
          TAKESHI YOSHIKAWA, YASUHIRO IKABATA, JUNJI SEINO,
          YUYA NAKAJIMA, HIROMI NAKAI
     NANJING UNIVERSITY: SHUHUA LI
     UNIVERSITY OF NEBRASKA:
          PEIFENG SU, DEJUN SI, NANDUN THELLAMUREGE, YALI WANG, HUI LI
     UNIVERSITY OF ZURICH: ROBERTO PEVERATI, KIM BALDRIDGE
     N. COPERNICUS UNIVERSITY AND JACKSON STATE UNIVERSITY:
          MARIA BARYSZ
     UNIVERSITY OF COPENHAGEN: Jimmy Kromann, CASPER STEINMANN
     TOKYO INSTITUTE OF TECHNOLOGY: HIROYA NAKATA
     NAGOYA UNIVERSITY: YOSHIO NISHIMOTO, STEPHAN IRLE
     MOSCOW STATE UNIVERSITY: VLADIMIR MIRONOV

 EXECUTION OF GAMESS BEGUN Mon Nov 28 21:27:46 2016

            ECHO OF THE FIRST FEW INPUT CARDS -
 INPUT CARD>!   HNO...ORMAS geometry opt. with dynamically state-averaged gradients         
 INPUT CARD>!   test is from Luke in 2012                                                   
 INPUT CARD>!                                                                               
 INPUT CARD>!   The state averaged MCSCF needs 8 iterations to converge to                  
 INPUT CARD>!               CONVERGED MCSCF STATES' DYNAMIC WEIGHTS:                        
 INPUT CARD>!     STATE=   1   ENERGY=     -129.8374646248   WEIGHT= 0.702829   S=  0.00    
 INPUT CARD>!     STATE=   3   ENERGY=     -129.7642924686   WEIGHT= 0.297171   S=  0.00    
 INPUT CARD>!   There are 8 CP-MCHF iterations to get the gradient, RMS= 0.072940257        
 INPUT CARD>!                                                                               
 INPUT CARD>!   This run takes 164 seconds on 2.66 GHz Cloverton (26 Apr 2015)              
 INPUT CARD>!                                                                               
 INPUT CARD>!   ------------------------------------------------------------------------    
 INPUT CARD>!   The averaged states are S0 ...(pi)2,n(2),(pi*)0... and the n --> pi* S1,    
 INPUT CARD>!   the ORMAS partitioning is between 7 a' and 2 a'' (QCAS-like)                
 INPUT CARD>!                                                                               
 INPUT CARD>!   Expected results if optimizing:                                             
 INPUT CARD>!     NSERCH: 0  E= -129.8374646247  GRAD. MAX= 0.1613574  R.M.S.= 0.0729403    
 INPUT CARD>!     NSERCH: 1  E= -129.8488674401  GRAD. MAX= 0.0424601  R.M.S.= 0.0183164    
 INPUT CARD>!     NSERCH: 2  E= -129.8516697716  GRAD. MAX= 0.0164181  R.M.S.= 0.0078204    
 INPUT CARD>!     NSERCH: 3  E= -129.8520357358  GRAD. MAX= 0.0011803  R.M.S.= 0.0006420    
 INPUT CARD>!     NSERCH: 4  E= -129.8520415953  GRAD. MAX= 0.0003377  R.M.S.= 0.0001626    
 INPUT CARD>!     NSERCH: 5  E= -129.8520421778  GRAD. MAX= 0.0000543  R.M.S.= 0.0000243    
 INPUT CARD>!     NSERCH: 6  E= -129.8520422765  GRAD. MAX= 0.0000001  R.M.S.= 0.0000001    
 INPUT CARD>!   At the last geometry, the weights are S0=0.656336 and S1=0.343664,          
 INPUT CARD>!   S1 sits at -129.7896892378, and the last gradient computation says          
 INPUT CARD>!     NONADIABATIC COUPLING MATRIX ELEMENT (NACME), IN ONE/BOHR                 
 INPUT CARD>!     <STATE  2, WEIGHT=   0.34366 | D/DQ | STATE  1, WEIGHT=   0.65634>        
 INPUT CARD>!       ATOM               D/DX           D/DY           D/DZ                   
 INPUT CARD>!        1 H               0.0000000      0.0000000     -0.6523878              
 INPUT CARD>!        2 N               0.0000000      0.0000000      0.9803999              
 INPUT CARD>!        3 O               0.0000000      0.0000000     -0.2867652              
 INPUT CARD>!                                                                               
 INPUT CARD>!            (                                                                  
 INPUT CARD>!                                                                               
 INPUT CARD> $contrl scftyp=mcscf mult=1 runtyp=gradient nzvar=3 $end                       
 INPUT CARD> $system parall=.true. mwords=30 memddi=20 $end                                 
 INPUT CARD> $basis  gbasis=n31 ngauss=6 ndfunc=0 $end                                      
 INPUT CARD> $zmat   izmat(1)= 1,1,2,  1,2,3,  2,1,2,3 $end                                 
 INPUT CARD> $statpt opttol=1d-5 $end                                                       
 INPUT CARD>!                                                                               
 INPUT CARD>!     Use VVOS=.TRUE. at the time of RHF to get good starting orbitals!         
 INPUT CARD>!     Move both a'' to the very end of active space, to create the QCAS.        
 INPUT CARD> $guess  guess=moread norb=20 norder=1 iorder(3)=3,4,5,6,8,10,11, 7,9 $end      
 INPUT CARD>!                                                                               
 INPUT CARD>!     S0 ground state is ...(pi)2,(n)2,(pi*)0... with S1 being n-->pi*.         
 INPUT CARD>!     If the ORMAS space separates a' from a'' orbitals, we have to             
 INPUT CARD>!     allow one electron to hop into a'' to generate S1's determinants.         
 INPUT CARD>!     There's 5,194 determinants in this ORMAS.                                 
 INPUT CARD>!                                                                               
 INPUT CARD>!     Use NSTATE high enough to ensure the T1 state between S0 and S1           
   30000000 WORDS OF MEMORY AVAILABLE

     BASIS OPTIONS
     -------------
     GBASIS=N31          IGAUSS=       6      POLAR=NONE    
     NDFUNC=       0     NFFUNC=       0     DIFFSP=       F
     NPFUNC=       0      DIFFS=       F     BASNAM=        


     RUN TITLE
     ---------
 HNO...RHF/6-311G(3df,2p) geometry                                               

 THE POINT GROUP OF THE MOLECULE IS CS      
 THE ORDER OF THE PRINCIPAL AXIS IS     0

 ATOM      ATOMIC                      COORDINATES (BOHR)
           CHARGE         X                   Y                   Z
 H           1.0    -0.5935692410        1.8427859300        0.0000000000
 N           7.0     0.0454993680        0.0027907838        0.0000000000
 O           8.0     2.2475437041        0.0014047860        0.0000000000

          INTERNUCLEAR DISTANCES (ANGS.)
          ------------------------------

                1 H          2 N          3 O     

   1 H       0.0000000    1.0307404 *  1.7916075 *
   2 N       1.0307404 *  0.0000000    1.1652720 *
   3 O       1.7916075 *  1.1652720 *  0.0000000  

  * ... LESS THAN  3.000


     ATOMIC BASIS SET
     ----------------
 THE CONTRACTED PRIMITIVE FUNCTIONS HAVE BEEN UNNORMALIZED
 THE CONTRACTED BASIS FUNCTIONS ARE NOW NORMALIZED TO UNITY

  SHELL TYPE  PRIMITIVE        EXPONENT          CONTRACTION COEFFICIENT(S)

 H         

      1   S       1            18.7311370    0.033494604338
      1   S       2             2.8253944    0.234726953484
      1   S       3             0.6401217    0.813757326146

      2   S       4             0.1612778    1.000000000000

 N         

      3   S       5          4173.5114600    0.001834772160
      3   S       6           627.4579110    0.013994627002
      3   S       7           142.9020930    0.068586551812
      3   S       8            40.2343293    0.232240873040
      3   S       9            12.8202129    0.469069948082
      3   S      10             4.3904370    0.360455199063

      4   L      11            11.6263619   -0.114961181702    0.067579743878
      4   L      12             2.7162798   -0.169117478561    0.323907295893
      4   L      13             0.7722184    1.145851947027    0.740895139755

      5   L      14             0.2120315    1.000000000000    1.000000000000

 O         

      6   S      15          5484.6716600    0.001831074430
      6   S      16           825.2349460    0.013950172200
      6   S      17           188.0469580    0.068445078098
      6   S      18            52.9645000    0.232714335992
      6   S      19            16.8975704    0.470192897984
      6   S      20             5.7996353    0.358520852987

      7   L      21            15.5396162   -0.110777549525    0.070874268231
      7   L      22             3.5999336   -0.148026262701    0.339752839147
      7   L      23             1.0137618    1.130767015354    0.727158577316

      8   L      24             0.2700058    1.000000000000    1.000000000000

 TOTAL NUMBER OF BASIS SET SHELLS             =    8
 NUMBER OF CARTESIAN GAUSSIAN BASIS FUNCTIONS =   20
 NUMBER OF ELECTRONS                          =   16
 CHARGE OF MOLECULE                           =    0
 SPIN MULTIPLICITY                            =    1
 NUMBER OF OCCUPIED ORBITALS (ALPHA)          =    8
 NUMBER OF OCCUPIED ORBITALS (BETA )          =    8
 TOTAL NUMBER OF ATOMS                        =    3
 THE NUCLEAR REPULSION ENERGY IS       31.3875917648

     $CONTRL OPTIONS
     ---------------
 SCFTYP=MCSCF        RUNTYP=GRADIENT     EXETYP=RUN     
 MPLEVL=       0     CITYP =NONE         CCTYP =NONE         VBTYP =NONE    
 DFTTYP=NONE         TDDFT =NONE    
 MULT  =       1     ICHARG=       0     NZVAR =       3     COORD =UNIQUE  
 PP    =NONE         RELWFN=NONE         LOCAL =NONE         NUMGRD=       F
 ISPHER=      -1     NOSYM =       0     MAXIT =      30     UNITS =ANGS    
 PLTORB=       F     MOLPLT=       F     AIMPAC=       F     FRIEND=        
 NPRINT=       7     IREST =       0     GEOM  =INPUT   
 NORMF =       0     NORMP =       0     ITOL  =      20     ICUT  =       9
 INTTYP=BEST         GRDTYP=BEST         QMTTOL= 1.0E-06

     $SYSTEM OPTIONS
     ---------------
  REPLICATED MEMORY=    30000000 WORDS (ON EVERY NODE).
 DISTRIBUTED MEMDDI=          20 MILLION WORDS IN AGGREGATE,
 MEMDDI DISTRIBUTED OVER   1 PROCESSORS IS    20000000 WORDS/PROCESSOR.
 TOTAL MEMORY REQUESTED ON EACH PROCESSOR=    50000000 WORDS.
 TIMLIM=      525600.00 MINUTES, OR     365.0 DAYS.
 PARALL= T  BALTYP=  DLB     KDIAG=    0  COREFL= F
 MXSEQ2=     300 MXSEQ3=     150  mem10=         0

          ----------------
          PROPERTIES INPUT
          ----------------

     MOMENTS            FIELD           POTENTIAL          DENSITY
 IEMOM =       1   IEFLD =       0   IEPOT =       0   IEDEN =       0
 WHERE =COMASS     WHERE =NUCLEI     WHERE =NUCLEI     WHERE =NUCLEI  
 OUTPUT=BOTH       OUTPUT=BOTH       OUTPUT=BOTH       OUTPUT=BOTH    
 IEMINT=       0   IEFINT=       0                     IEDINT=       0
                                                       MORB  =       0

     -------------------------------
     INTEGRAL TRANSFORMATION OPTIONS
     -------------------------------
     NWORD  =            0
     CUTOFF = 1.0E-09     MPTRAN =       0
     DIRTRF =       F     AOINTS =DUP     
 INTEGRAL TRANSFORMATION OPTION -DIRTRF- FORCED TRUE,
 DUE TO THE CHOICE OF -FULLNR- IN A PARALLEL JOB.

          ----------------------
          MCSCF INPUT PARAMETERS
          ----------------------
 CONVERGER SELECTION: FOCAS = F  SOSCF = F  FULLNR = T  QUD = F  JACOBI = F
 SECULAR EQUATION METHOD CISTEP = ORMAS   
 --- GENERAL INPUT OPTIONS:
 MAXIT =      30  MICIT =       1  ACURCY= 1.000E-05
 DAMP  =   0.000  CANONC=       T  ENGTOL= 1.000E-10
 EKT   =       F  NPUNCH=       2  NWORD =         0
 REGENERATE CI AFTER CONVERGENCE = NONE    
 DIABATIZATION AFTER CONVERGENCE =        F
 --- INPUT FOR FULLNR CONVERGER:
 METHOD=DM2       FORS  =       F  DROPC =       T
 LINSER=       F  FCORE =       F  NORB  =      20

          ----------------------
          INTEGRAL INPUT OPTIONS
          ----------------------
 NOPK  =       1 NORDER=       0 SCHWRZ=       F

   --- ENCODED Z MATRIX ---
 COORD  TYPE   I   J   K   L   M   N
    1      1    1   2
    2      1    2   3
    3      2    1   2   3

 THE DETERMINANT OF THE G MATRIX IS 10**(    -2)


                     --------------------
                     INTERNAL COORDINATES
                     --------------------

                 - - ATOMS - -         COORDINATE      COORDINATE
 NO.   TYPE    I  J  K  L  M  N        (BOHR,RAD)       (ANG,DEG)
 ----------------------------------------------------------------
   1 STRETCH   1  2                     1.9478169       1.0307404
   2 STRETCH   2  3                     2.2020448       1.1652720
   3 BEND      1  2  3                  1.9057118     109.1892411

     ------------------------------------------
     THE POINT GROUP IS CS , NAXIS= 0, ORDER= 2
     ------------------------------------------

     DIMENSIONS OF THE SYMMETRY SUBSPACES ARE
 A'  =   16     A'' =    4

 ..... DONE SETTING UP THE RUN .....
 CPU     0: STEP CPU TIME=     0.02 TOTAL CPU TIME=        0.0 (    0.0 MIN)
 TOTAL WALL CLOCK TIME=        0.0 SECONDS, CPU UTILIZATION IS  66.67%

                    --------------------------------
                    SINGLE POINT ENERGY AND GRADIENT
                    --------------------------------

          ********************
          1 ELECTRON INTEGRALS
          ********************
 TIME TO DO   DIPOLE INTEGRALS=      0.00
 ...... END OF ONE-ELECTRON INTEGRALS ......
 CPU     0: STEP CPU TIME=     0.00 TOTAL CPU TIME=        0.0 (    0.0 MIN)
 TOTAL WALL CLOCK TIME=        0.0 SECONDS, CPU UTILIZATION IS  66.67%

          -------------
          GUESS OPTIONS
          -------------
          GUESS =MOREAD            NORB  =      20          NORDER=       1
          MIX   =       F          PRTMO =       F          PUNMO =       F
          TOLZ  = 1.0E-08          TOLE  = 1.0E-05
          SYMDEN=       F          PURIFY=       F

 INITIAL GUESS ORBITALS GENERATED BY MOREAD   ROUTINE.

 SYMMETRIES FOR INITIAL GUESS ORBITALS FOLLOW.   BOTH SET(S).
     8 ORBITALS ARE OCCUPIED (    2 CORE ORBITALS).
     1=A'       2=A'       3=A'       4=A'       5=A'       6=A'       7=A'  
     8=A'       9=A'      10=A''     11=A''     12=A'      13=A''     14=A'  
    15=A'      16=A'      17=A'      18=A''     19=A'      20=A'  
 ...... END OF INITIAL ORBITAL SELECTION ......
 CPU     0: STEP CPU TIME=     0.01 TOTAL CPU TIME=        0.0 (    0.0 MIN)
 TOTAL WALL CLOCK TIME=        0.0 SECONDS, CPU UTILIZATION IS  75.00%

                    ----------------------
                    AO INTEGRAL TECHNOLOGY
                    ----------------------
     S,P,L SHELL ROTATED AXIS INTEGRALS, REPROGRAMMED BY
        KAZUYA ISHIMURA (IMS) AND JOSE SIERRA (SYNSTAR).
     S,P,D,L SHELL ROTATED AXIS INTEGRALS PROGRAMMED BY
        KAZUYA ISHIMURA (INSTITUTE FOR MOLECULAR SCIENCE).
     S,P,D,F,G SHELL TO TOTAL QUARTET ANGULAR MOMENTUM SUM 5,
        ERIC PROGRAM BY GRAHAM FLETCHER (ELORET AND NASA ADVANCED
        SUPERCOMPUTING DIVISION, AMES RESEARCH CENTER).
     S,P,D,F,G,L SHELL GENERAL RYS QUADRATURE PROGRAMMED BY
        MICHEL DUPUIS (PACIFIC NORTHWEST NATIONAL LABORATORY).
 DIRECT TRANSFORMATION SKIPS AO INTEGRAL STORAGE ON DISK.
  ...... END OF TWO-ELECTRON INTEGRALS .....
 STEP CPU TIME =     0.01 TOTAL CPU TIME =        0.0 (    0.0 MIN)
 TOTAL WALL CLOCK TIME=        0.1 SECONDS, CPU UTILIZATION IS  40.00%
 DDI: Creating Array [0] - 400 x 66 = 26400 words.
 DDI: Creating Array [1] - 9 x 726 = 6534 words.
 DDI: Creating Array [2] - 66 x 66 = 4356 words.
 DDI: Creating Array [3] - 210 x 66 = 13860 words.

          -----------------
          MCSCF CALCULATION
          -----------------

 ----- NUCLEAR ENERGY ----- =        31.3875917648

     ------------------------------------------------------------
       DIRECT DETERMINANT ORMAS-CI INPUT SORTER
       PROGRAM WRITTEN BY JOE IVANIC AND MIKE SCHMIDT
       ORMAS = OCCUPATION RESTRICTED MULTIPLE ACTIVE SPACE
     ------------------------------------------------------------

 RUNTYP=GRADIENT INVOLVING AN ANALYTIC NUCLEAR GRADIENT
 HAS BEEN REQUESTED FOR A RUN AVERAGING OVER   2 STATES.
 THIS REQUIRES SOLUTION OF THE MULTI-REFERENCE RESPONSE EQUATIONS,
 REQUIRING MORE COMPUTER TIME THAN SINGLE STATE GRADIENTS.
 PROVIDING $CPMCHF INPUT MAY HELP RESPONSE SOLVING.

 THE POINT GROUP                  =   C1      
 THE STATE SYMMETRY               =   A       
 NUMBER OF CORE ORBITALS          =    2
 NUMBER OF ACTIVE ORBITALS        =    9
 NUMBER OF ALPHA ELECTRONS        =    8 (   6 ACTIVE)
 NUMBER OF BETA ELECTRONS         =    8 (   6 ACTIVE)
 NUMBER OF OCCUPIED ORBITALS      =   11

 NUMBER OF CI STATES REQUESTED    =    4
 NUMBER OF CI STARTING VECTORS    =    4
 MAX. NO. OF CI EXPANSION VECTORS =   10
 SIZE OF INITIAL CI GUESS MATRIX  = 1000

 MAX. NO. OF CI ITERS/STATE       =  100
 CI DIAGONALIZATION CRITERION     = 1.00E-06
 PURE SPIN STATE AVERAGED 1E- AND 2E- DENSITY MATRIX OPTION=.T.
 STATE=   1 DM2 WEIGHT=   0.50000     STATE=   2 DM2 WEIGHT=   0.50000
 STATE-AVERAGED MCSCF USING IROOT=  1 AS ITS STATE-SPECIFIC E

 CORRELATION ENERGY ANALYSIS      =    F

 FULLY DIRECT OPTION              =    F

 CALC. OF DAVIDSON Q CORRECTION   =    F

 BLOCK SPACE MIXING IN NO DIAG    =    F

 SYMMETRIES FOR THE   2 CORE,   9 ACTIVE ARE

     CORE= A     A   

   ACTIVE= A     A     A     A     A     A     A     A     A   

 THE NUMBER OF SPACES             =   2
 EACH SPACE STARTS AT ORBITAL     =   3  10
 NO OF ORBITALS IN EACH SPACE     =   7   2
 MIN NO OF ELECS IN EACH SPACE    =   9   2
 MAX NO OF ELECS IN EACH SPACE    =  10   3

 SPACE SPECIFICATIONS HAVE PASSED PRELIMINARY CHECKS

 ALL VALID DETERMINANTS WILL BE EXPRESSED AS PAIRS OF ALPHA AND BETA STRINGS.

 MIN NO OF ALPHA ELECS =    4   0
 MAX NO OF ALPHA ELECS =    6   2

 MIN NO OF BETA  ELECS =    4   0
 MAX NO OF BETA  ELECS =    6   2

 EVALUATING EXCHANGE INTEGRALS FOR DIRECT INTEGRAL TRANSFORMATION
 SCHWARZ INEQUALITY OVERHEAD:       210 INTEGRALS, T=        0.00

     --------------------------------------------
     PARTIAL TWO ELECTRON INTEGRAL TRANSFORMATION
     --------------------------------------------

 NUMBER OF CORE MOLECULAR ORBITALS     =    2
 NUMBER OF OCCUPIED MOLECULAR ORBITALS =   11
 TOTAL NUMBER OF MOLECULAR ORBITALS    =   20
 TOTAL NUMBER OF ATOMIC ORBITALS       =   20
 THRESHOLD FOR KEEPING TRANSFORMED 2E- INTEGRALS = 1.000E-09

 -------------------------------     ------------------------------
 DISTRIBUTED DATA TRANSFORMATION     PROGRAM WRITTEN BY G. FLETCHER
 -------------------------------     ------------------------------

 THE DISTRIBUTED MEMORY REQUIRED FOR THIS STEP IS MEMDDI=         1 MWORDS
 CREATING DISTRIBUTED STORAGE FOR [VIR OCC|VIR OCC] INTEGRALS
 CREATING DISTRIBUTED STORAGE FOR [VIR OCC|OCC OCC] INTEGRALS
 CREATING DISTRIBUTED STORAGE FOR [OCC OCC|OCC OCC] INTEGRALS
 CREATING DISTRIBUTED STORAGE FOR [VIR VIR|OCC OCC] INTEGRALS
 FOR    1 PROCESSORS, THE REPLICATED MEMORY NEEDED IS       57006 WORDS.

      DIRECT 4-INDEX TRANSFORMATION 
      SCHWARZ INEQUALITY TEST SKIPPED          0 INTEGRAL BLOCKS
 ----- FROZEN CORE ENERGY =      -117.2562758440
 ... END OF INTEGRAL TRANSFORMATION ...
 CPU     0: STEP CPU TIME=     0.02 TOTAL CPU TIME=        0.1 (    0.0 MIN)
 TOTAL WALL CLOCK TIME=        0.2 SECONDS, CPU UTILIZATION IS  37.50%

     --------------------------------------------------
                 DIRECT DETERMINANT ORMAS-CI 
                PROGRAM WRITTEN BY JOE IVANIC
     --------------------------------------------------

 STORAGE OF BINOMIAL COEFFICIENTS REQUIRES          65 WORDS

 TOTAL NUMBER OF ALPHA GROUPS  =            3
 TOTAL NUMBER OF BETA  GROUPS  =            3

 TOTAL NUMBER OF ALPHA STRINGS =           84
 TOTAL NUMBER OF BETA  STRINGS =           84

 STORAGE OF TABLES REQUIRES                       704 WORDS

 TOTAL NUMBER OF ALPHA-BETA GROUP COMBINATIONS =            9
 OF THESE THE ALLOWED NUMBER OF COMBINATIONS   =            5

 TOTAL NUMBER OF (B -> B`) WHERE  (B` > B)  =          756

 TIME FOR SETTING UP TABLE SET 1 :          0.0

 THE NUMBER OF DETERMINANTS HAVING SPACE SYMMETRY A  
 IN POINT GROUP C1   WITH SZ=  0.0 IS           5194

 INTEGRAL STORAGE REQUIRES                   31126 WORDS
 EXTRA ORMAS STORAGE REQUIRES              1667090 WORDS
 (EXTRA ORMAS STORAGE INCLUDES THAT FOR MXXPAN = 10)
 TOTAL ORMAS CALCULATION REQUIRES          1698985 WORDS

 FULLY DIRECT WOULD REQUIRE                1695688 WORDS

 INITIAL ORMAS VECTOR GUESS TIME :          4.2
 SETTING UP CALCULATION TIME     :          0.0
 ORMAS SPIN CALCULATION TIME     :          0.0
 INITIAL ORMAS CI ITERATION TIME :          0.0

 ITERATION      ENERGY           GRADIENT
     0     -129.8122532570     0.20898642
     0     -129.7698979580     0.20291367
     0     -129.7350023234     0.21041799
     0     -129.5698880904     0.23465711

     1     -129.8260378080     0.04160696
     1     -129.7830299233     0.03928643
     1     -129.7491224304     0.04284098
     1     -129.5898370488     0.04629670

     2     -129.8264870540     0.01609187
     2     -129.7834388812     0.01418973
     2     -129.7496000020     0.01704190
     2     -129.5904594548     0.01558467

     3     -129.8265571794     0.00731891
     3     -129.7834953727     0.00639574
     3     -129.7496778806     0.00802261
     3     -129.5905322537     0.00626089

     4     -129.8265749764     0.00403062
     4     -129.7835089005     0.00339659
     4     -129.7497010245     0.00492444
     4     -129.5905443862     0.00280763

     5     -129.8265797603     0.00197255
     5     -129.7835125513     0.00172154
     5     -129.7497083961     0.00247024
     5     -129.5905469992     0.00146393

     6     -129.8265811238     0.00113885
     6     -129.7835136412     0.00098224
     6     -129.7497109831     0.00164628
     6     -129.5905477849     0.00087860

     7     -129.8265815241     0.00058835
     7     -129.7835139937     0.00054517
     7     -129.7497119542     0.00087166
     7     -129.5905480994     0.00054952

     8     -129.8265816462     0.00034983
     8     -129.7835141170     0.00033076
     8     -129.7497123513     0.00063659
     8     -129.5905482499     0.00040886

     9     -129.8265816845     0.00019038
     9     -129.7835141632     0.00020037
     9     -129.7497125254     0.00036162
     9     -129.5905483310     0.00027586

    10     -129.8265816969     0.00011475
    10     -129.7835141816     0.00012783
    10     -129.7497126067     0.00028462
    10     -129.5905483788     0.00023727

    11     -129.8265817010     0.00006505
    11     -129.7835141893     0.00008291
    11     -129.7497126464     0.00017201
    11     -129.5905484088     0.00016637

    12     -129.8265817024     0.00003938
    12     -129.7835141926     0.00005451
    12     -129.7497126664     0.00014015
    12     -129.5905484283     0.00015389

    13     -129.8265817029     0.00002303
    13     -129.7835141941     0.00003688
    13     -129.7497126767     0.00008798
    13     -129.5905484413     0.00010949

    14     -129.8265817031     0.00001400
    14     -129.7835141948     0.00002459
    14     -129.7497126821     0.00007232
    14     -129.5905484501     0.00010421

    15     -129.8265817031     0.00000842
    15     -129.7835141951     0.00001702
    15     -129.7497126849     0.00004633
    15     -129.5905484562     0.00007451

    16     -129.8265817032     0.00000516
    16     -129.7835141952     0.00001141
    16     -129.7497126864     0.00003807
    16     -129.5905484603     0.00007164

    17     -129.8265817032     0.00000318
    17     -129.7835141953     0.00000800
    17     -129.7497126872     0.00002465
    17     -129.5905484632     0.00005132

    18     -129.8265817032     0.00000197
    18     -129.7835141953     0.00000537
    18     -129.7497126876     0.00002021
    18     -129.5905484651     0.00004951

    19     -129.8265817032     0.00000125
    19     -129.7835141954     0.00000379
    19     -129.7497126879     0.00001316
    19     -129.5905484665     0.00003549

    20     -129.8265817032     0.00000078
    20     -129.7835141954     0.00000255
    20     -129.7497126880     0.00001077
    20     -129.5905484674     0.00003428


 CONVERGED STATE    1 ENERGY=     -129.8265817032 IN   20 ITERS

     0     -129.7835141954     0.00000255
     0     -129.7497126880     0.00001077
     0     -129.5905484674     0.00003428

     1     -129.7835141954     0.00000180
     1     -129.7497126881     0.00000703
     1     -129.5905484681     0.00002458

     2     -129.7835141954     0.00000007
     2     -129.7497126881     0.00000020
     2     -129.5905484696     0.00000110


 CONVERGED STATE    2 ENERGY=     -129.7835141954 IN   23 ITERS


 CONVERGED STATE    3 ENERGY=     -129.7497126881 IN   23 ITERS

     0     -129.5905484696     0.00000110
     1     -129.5905484696     0.00000087

 CONVERGED STATE    4 ENERGY=     -129.5905484696 IN   25 ITERS

 ALL STATES CONVERGED.

 CI EIGENVECTORS WILL BE LABELED IN GROUP=C1      
 PRINTING CI COEFFICIENTS LARGER THAN  0.050000

 STATE   1  ENERGY=      -129.8265817032  S=  0.00  SZ=  0.00  SPACE SYM=A   

         ALPHA           |          BETA           | CI COEFFICIENT
 1                 2     | 1                 2     |
-------------------------|-------------------------|---------------
  1  2  3  4  5     8    |  1  2  3  4  5     8    |   0.9619632218
  1  2  3  4  5     9    |  1  2  3  4  5     9    |  -0.1930014037
  1  2  3  4  6     8    |  1  2  3  4  6     8    |  -0.0500849519

 STATE   2  ENERGY=      -129.7835141954  S=  1.00  SZ=  0.00  SPACE SYM=A   

         ALPHA           |          BETA           | CI COEFFICIENT
 1                 2     | 1                 2     |
-------------------------|-------------------------|---------------
  1  2  3  4  5     8    |  1  2  3  4        8  9 |   0.6823902954
  1  2  3  4        8  9 |  1  2  3  4  5     8    |  -0.6823902954
  1  2  3  4  5     9    |  1  2  3  5        8  9 |   0.0692052029
  1  2  3  5        8  9 |  1  2  3  4  5     9    |  -0.0692052029
  1  2  3  4  5     9    |  1  2  4  5        8  9 |  -0.0671123157
  1  2  4  5        8  9 |  1  2  3  4  5     9    |   0.0671123157
  1  2  3  4  5     8    |  1  2  4  5        8  9 |   0.0548099642
  1  2  4  5        8  9 |  1  2  3  4  5     8    |  -0.0548099642

 STATE   3  ENERGY=      -129.7497126881  S=  0.00  SZ=  0.00  SPACE SYM=A   

         ALPHA           |          BETA           | CI COEFFICIENT
 1                 2     | 1                 2     |
-------------------------|-------------------------|---------------
  1  2  3  4        8  9 |  1  2  3  4  5     8    |   0.6722074994
  1  2  3  4  5     8    |  1  2  3  4        8  9 |   0.6722074994
  1  2  3  5        8  9 |  1  2  3  4  5     9    |   0.0988780687
  1  2  3  4  5     9    |  1  2  3  5        8  9 |   0.0988780687
  1  2  4  5        8  9 |  1  2  3  4  5     9    |  -0.0933374059
  1  2  3  4  5     9    |  1  2  4  5        8  9 |  -0.0933374059
  1  2  4  5        8  9 |  1  2  3  4  5     8    |   0.0696527744
  1  2  3  4  5     8    |  1  2  4  5        8  9 |   0.0696527744
  1  2  3  5        8  9 |  1  2  3  4  5     8    |  -0.0550330447
  1  2  3  4  5     8    |  1  2  3  5        8  9 |  -0.0550330447

 STATE   4  ENERGY=      -129.5905484696  S=  1.00  SZ=  0.00  SPACE SYM=A   

         ALPHA           |          BETA           | CI COEFFICIENT
 1                 2     | 1                 2     |
-------------------------|-------------------------|---------------
  1  2  3  4  5     8    |  1  2  3  4  5     9    |   0.6962249469
  1  2  3  4  5     9    |  1  2  3  4  5     8    |  -0.6962249469

 ..... DONE WITH ORMAS-CI COMPUTATION .....
 CPU     0: STEP CPU TIME=     4.40 TOTAL CPU TIME=        4.5 (    0.1 MIN)
 TOTAL WALL CLOCK TIME=        4.6 SECONDS, CPU UTILIZATION IS  95.91%

     -------------------------------------------------------
      ONE AND TWO PARTICLE ORMAS DENSITY MATRIX COMPUTATION
                  PROGRAM WRITTEN BY JOE IVANIC
     -------------------------------------------------------

 THE DENSITIES ARE STATE AVERAGED OVER   2 ROOT(S)

      STATE WEIGHTS WILL BE CHOSEN DYNAMICALLY 
 STATE   1 IS THE REFERENCE STATE
 DYNAMICALLY WEIGHTED ENERGY PARAMETER:  2.000 EV

 STATE=   1   ENERGY=     -129.8265817032   WEIGHT= 0.71875   S=  0.00
 STATE=   3   ENERGY=     -129.7497126881   WEIGHT= 0.28125   S=  0.00
 SIEVING THE A    SYMMETRY NONZERO DENSITY ELEMENTS IN GROUP C1      
        601 NONZERO DM2 ELEMENTS WRITTEN IN       1 RECORDS TO FILE 70 LABELED AS DEN2P1 
        601 NONZERO DM2 ELEMENTS WRITTEN IN       1 RECORDS TO FILE 71 LABELED AS DEN2P2 
        601 NONZERO DM2 ELEMENTS WRITTEN IN       1 RECORDS TO FILE 72 LABELED AS DEN2P3 
        601 NONZERO DM2 ELEMENTS WRITTEN IN       1 RECORDS TO FILE 73 LABELED AS DEN2P4 
        601 NONZERO DM2 ELEMENTS WRITTEN IN       1 RECORDS TO FILE 15
 ..... DONE WITH 1 AND 2 PARTICLE DENSITY MATRIX .....
 CPU     0: STEP CPU TIME=     0.05 TOTAL CPU TIME=        4.5 (    0.1 MIN)
 TOTAL WALL CLOCK TIME=        5.6 SECONDS, CPU UTILIZATION IS  79.82%

     --------------------------------     -----------------------------
     MCHF NEWTON-RAPHSON OPTIMIZATION     CODE WRITTEN BY MICHEL DUPUIS
     --------------------------------     -----------------------------
     PARALLEL VERSION WRITTEN BY G. FLETCHER (ELORET)
     NASA ADVANCED SUPERCOMPUTING DIVISION, AMES RESEARCH CENTER

 NUMBER OF INDEPENDENT ORBITAL ROTATION PARAMETERS =    88
 ..... DONE SOLVING NEWTON-RAPHSON EQUATIONS .....
 CPU     0: STEP CPU TIME=     0.08 TOTAL CPU TIME=        4.6 (    0.1 MIN)
 TOTAL WALL CLOCK TIME=        5.8 SECONDS, CPU UTILIZATION IS  78.60%
 ..... DONE WITH NTN-RPH ORBITAL ROTATIONS ..... 
 CPU     0: STEP CPU TIME=     0.00 TOTAL CPU TIME=        4.6 (    0.1 MIN)
 TOTAL WALL CLOCK TIME=        5.8 SECONDS, CPU UTILIZATION IS  78.60%
 MAXIMUM MEMORY USED BY NTN-RPH CODE WAS     48319 WORDS.

 ITER     TOTAL ENERGY      DEL(E)  LAGRANGIAN ASYMMETRY   SQCDF  MICIT   DAMP
   1     -129.804962340 -0.804962340  0.052906   18   10 1.121E-01  1   0.0000
   2     -129.815323357 -0.010361017  0.004398   18   10 7.862E-03  1   0.0000
   3     -129.815712977 -0.000389620  0.000926    8    1 2.283E-04  1   0.0000
   4     -129.815714555 -0.000001578  0.000204    8    1 1.572E-05  1   0.0000
   5     -129.815717456 -0.000002901  0.000060   17    8 1.593E-06  1   0.0000
   6     -129.815719262 -0.000001806  0.000022   17    8 1.877E-07  1   0.0000
   7     -129.815719958 -0.000000696  0.000008   17    8 2.404E-08  1   0.0000
   8     -129.815719958  0.000000000  0.000008   17    8 2.415E-08  1   0.0000

          --------------------
          LAGRANGIAN CONVERGED
          --------------------

 FINAL MCSCF ENERGY IS     -129.8374646247 AFTER   8 ITERATIONS

 CONVERGED MCSCF STATES' DYNAMIC WEIGHTS:
 STATE=   1   ENERGY=     -129.8374646247   WEIGHT= 0.702829   S=  0.00
 STATE=   3   ENERGY=     -129.7642924697   WEIGHT= 0.297171   S=  0.00

 -MCCI- BASED ON OPTIMIZED ORBITALS
 ----------------------------------

 PLEASE NOTE: ORMAS IS NOT INVARIANT TO ORBITAL ROTATIONS BETWEEN THE
 DIFFERENT ACTIVE SPACES.  THE CI EXPANSION JUST BELOW IS FOR THE
 OPTIMIZED ORBITALS USED IN THE LAST ITERATION.  THE NATURAL ORBITALS
 ARE GENERATED BELOW, BUT THE NO'S ROTATE BETWEEN THE ACTIVE SPACES,
 SO THE NATURAL ORBITALS DO NOT REPRODUCE THE ORMAS WAVEFUNCTION.

 CI EIGENVECTORS WILL BE LABELED IN GROUP=C1      
 PRINTING CI COEFFICIENTS LARGER THAN  0.050000

 STATE   1  ENERGY=      -129.8374646247  S=  0.00  SZ=  0.00  SPACE SYM=A   

         ALPHA           |          BETA           | CI COEFFICIENT
 1                 2     | 1                 2     |
-------------------------|-------------------------|---------------
  1  2  3  4  5     8    |  1  2  3  4  5     8    |   0.9604456772
  1  2  3  4  5     9    |  1  2  3  4  5     9    |  -0.1956419559
  1  2  3  4  6     8    |  1  2  3  4  6     8    |  -0.0524974020

 STATE   2  ENERGY=      -129.7966546156  S=  1.00  SZ=  0.00  SPACE SYM=A   

         ALPHA           |          BETA           | CI COEFFICIENT
 1                 2     | 1                 2     |
-------------------------|-------------------------|---------------
  1  2  3  4  5     8    |  1  2  3  4        8  9 |   0.6820067305
  1  2  3  4        8  9 |  1  2  3  4  5     8    |  -0.6820067305
  1  2  3  4  5     9    |  1  2  3  5        8  9 |   0.0685210002
  1  2  3  5        8  9 |  1  2  3  4  5     9    |  -0.0685210002
  1  2  3  4  5     9    |  1  2  4  5        8  9 |  -0.0665256377
  1  2  4  5        8  9 |  1  2  3  4  5     9    |   0.0665256377
  1  2  3  4  5     8    |  1  2  4  5        8  9 |   0.0563552471
  1  2  4  5        8  9 |  1  2  3  4  5     8    |  -0.0563552471

 STATE   3  ENERGY=      -129.7642924697  S=  0.00  SZ=  0.00  SPACE SYM=A   

         ALPHA           |          BETA           | CI COEFFICIENT
 1                 2     | 1                 2     |
-------------------------|-------------------------|---------------
  1  2  3  4        8  9 |  1  2  3  4  5     8    |   0.6716065802
  1  2  3  4  5     8    |  1  2  3  4        8  9 |   0.6716065802
  1  2  3  5        8  9 |  1  2  3  4  5     9    |   0.0988469806
  1  2  3  4  5     9    |  1  2  3  5        8  9 |   0.0988469806
  1  2  4  5        8  9 |  1  2  3  4  5     9    |  -0.0925749776
  1  2  3  4  5     9    |  1  2  4  5        8  9 |  -0.0925749776
  1  2  4  5        8  9 |  1  2  3  4  5     8    |   0.0691675803
  1  2  3  4  5     8    |  1  2  4  5        8  9 |   0.0691675803
  1  2  3  5        8  9 |  1  2  3  4  5     8    |  -0.0590578058
  1  2  3  4  5     8    |  1  2  3  5        8  9 |  -0.0590578058

 STATE   4  ENERGY=      -129.6048081362  S=  1.00  SZ=  0.00  SPACE SYM=A   

         ALPHA           |          BETA           | CI COEFFICIENT
 1                 2     | 1                 2     |
-------------------------|-------------------------|---------------
  1  2  3  4  5     8    |  1  2  3  4  5     9    |   0.6963349308
  1  2  3  4  5     9    |  1  2  3  4  5     8    |  -0.6963349308

 DENSITY MATRIX OVER ACTIVE MO-S

             1           2           3           4           5

    1    1.9914991
    2   -0.0028566   1.9888919
    3    0.0049739  -0.0081033   1.9762430
    4   -0.0078597   0.0006083  -0.0013130   1.9777736
    5    0.0049371   0.0044666  -0.0265952  -0.0264725   1.7093462
    6    0.0072132   0.0123053   0.0014304  -0.0137129  -0.0479166
    7   -0.0071112   0.0092540  -0.0044958  -0.0195727   0.0034777
    8    0.0000000   0.0000000  -0.0000000  -0.0000000  -0.0000000
    9    0.0000000   0.0000000  -0.0000000  -0.0000000  -0.0000000

             6           7           8           9

    6    0.0310810
    7    0.0002954   0.0279938
    8   -0.0000000  -0.0000000   1.9174245
    9    0.0000000   0.0000000  -0.0055128   0.3797468

 FORMING THE "STANDARD FOCK OPERATOR" IN DIRECT AO INTEGRAL MODE...
     2 FILLED,    9 ACTIVE, AND    9 VIRTUAL ORBITALS  WILL BE CANONICALIZED

          ----------------------
          MCSCF NATURAL ORBITALS
          ----------------------

                      1          2          3          4          5
                  -20.6057   -15.6578     1.9992     1.9913     1.9773
                     A'         A'         A'         A'         A'  
    1  H  1  S   -0.000683  -0.002066   0.004156   0.126882   0.142730
    2  H  1  S   -0.000764   0.002443   0.016735  -0.008402   0.022882
    3  N  2  S   -0.002775   0.998444  -0.001855  -0.195153  -0.043483
    4  N  2  S   -0.001466   0.016836   0.026307   0.473437   0.105552
    5  N  2  X   -0.001150   0.004585   0.034528  -0.105868   0.231908
    6  N  2  Y    0.000004   0.002778   0.000705  -0.079422   0.381473
    7  N  2  Z   -0.000000  -0.000000  -0.000000   0.000000  -0.000000
    8  N  2  S    0.011885  -0.013644  -0.095634   0.526280  -0.041878
    9  N  2  X    0.007241   0.000976  -0.058081  -0.073247   0.094889
   10  N  2  Y    0.000296  -0.001649  -0.003019  -0.055560   0.208455
   11  N  2  Z   -0.000000  -0.000000  -0.000000   0.000000  -0.000000
   12  O  3  S    1.006021   0.006706  -0.176959   0.011482  -0.013866
   13  O  3  S   -0.003442  -0.009586   0.517172  -0.033652   0.037568
   14  O  3  X   -0.011110  -0.002786   0.147209  -0.131360  -0.257904
   15  O  3  Y    0.000622   0.002614  -0.008432  -0.151172   0.359594
   16  O  3  Z   -0.000000  -0.000000  -0.000000   0.000000  -0.000000
   17  O  3  S   -0.043279  -0.007940   0.609523  -0.160975  -0.082222
   18  O  3  X    0.000721  -0.002254   0.068982  -0.011707  -0.109972
   19  O  3  Y    0.000145   0.002102  -0.003892  -0.096151   0.202852
   20  O  3  Z   -0.000000  -0.000000  -0.000000   0.000000  -0.000000

                      6          7          8          9         10
                    1.9724     1.9174     1.7055     0.3797     0.0295
                     A'         A''        A'         A''        A'  
    1  H  1  S    0.214838   0.000000  -0.226071  -0.000000  -0.706358
    2  H  1  S    0.118943   0.000000  -0.226867  -0.000000  -0.496838
    3  N  2  S    0.010049   0.000000  -0.047486  -0.000000  -0.071686
    4  N  2  S   -0.052740   0.000000   0.094680  -0.000000   0.342121
    5  N  2  X   -0.419974   0.000000  -0.146084  -0.000000  -0.216666
    6  N  2  Y    0.227826   0.000000  -0.318093  -0.000000   0.729787
    7  N  2  Z    0.000000   0.404185   0.000000   0.585789  -0.000000
    8  N  2  S    0.170238   0.000000   0.291916  -0.000000   0.285501
    9  N  2  X   -0.052764   0.000000  -0.129815  -0.000000  -0.111240
   10  N  2  Y    0.091629   0.000000  -0.240819  -0.000000   0.122312
   11  N  2  Z    0.000000   0.238510   0.000000   0.417535  -0.000000
   12  O  3  S    0.033241   0.000000   0.002569  -0.000000  -0.002483
   13  O  3  S   -0.082829   0.000000  -0.021428  -0.000000   0.010886
   14  O  3  X    0.436561   0.000000   0.064043  -0.000000   0.038564
   15  O  3  Y    0.099212   0.000000   0.558348  -0.000000  -0.249689
   16  O  3  Z    0.000000   0.486058   0.000000  -0.536069  -0.000000
   17  O  3  S   -0.011462   0.000000   0.049684  -0.000000   0.047899
   18  O  3  X    0.234113   0.000000   0.020109  -0.000000  -0.013135
   19  O  3  Y    0.038154   0.000000   0.439256  -0.000000   0.081101
   20  O  3  Z    0.000000   0.302394   0.000000  -0.367310  -0.000000

                     11
                    0.0277
                     A'  
    1  H  1  S   -0.034410
    2  H  1  S   -0.019385
    3  N  2  S   -0.090369
    4  N  2  S    0.447710
    5  N  2  X    0.814907
    6  N  2  Y    0.014177
    7  N  2  Z   -0.000000
    8  N  2  S    0.360224
    9  N  2  X    0.258553
   10  N  2  Y   -0.008430
   11  N  2  Z   -0.000000
   12  O  3  S    0.082531
 DDI: Creating Array [0] - 66 x 66 = 4356 words.
 DDI: Creating Array [1] - 210 x 66 = 13860 words.
   13  O  3  S   -0.310823
   14  O  3  X    0.782945
   15  O  3  Y    0.016285
   16  O  3  Z   -0.000000
   17  O  3  S   -0.471160
   18  O  3  X    0.233566
   19  O  3  Y   -0.012279
   20  O  3  Z   -0.000000

          ------------------------
          MCSCF OPTIMIZED ORBITALS
          ------------------------

                      1          2          3          4          5
                  -20.6057   -15.6578    -1.6204    -0.9926    -0.7503
                     A'         A'         A'         A'         A'  
    1  H  1  S   -0.000683  -0.002066   0.042745  -0.200970   0.187947
    2  H  1  S   -0.000764   0.002443  -0.018256  -0.025875   0.100196
    3  N  2  S   -0.002775   0.998444  -0.105928   0.154743   0.032468
    4  N  2  S   -0.001466   0.016836   0.283027  -0.357447  -0.096808
    5  N  2  X   -0.001150   0.004585   0.191390   0.097128  -0.256360
    6  N  2  Y    0.000004   0.002778   0.027302  -0.154050   0.310832
    7  N  2  Z   -0.000000  -0.000000   0.000000   0.000000  -0.000000
    8  N  2  S    0.011885  -0.013644   0.090635  -0.446305   0.008006
    9  N  2  X    0.007241   0.000976  -0.026967  -0.003986  -0.026375
   10  N  2  Y    0.000296  -0.001649   0.017786  -0.070700   0.138732
   11  N  2  Z   -0.000000  -0.000000   0.000000   0.000000  -0.000000
   12  O  3  S    1.006021   0.006706  -0.145615  -0.099846  -0.037342
   13  O  3  S   -0.003442  -0.009586   0.420200   0.289334   0.119127
   14  O  3  X   -0.011110  -0.002786  -0.171408   0.177307   0.373801
   15  O  3  Y    0.000622   0.002614   0.009486  -0.054020   0.274779
   16  O  3  Z   -0.000000  -0.000000   0.000000   0.000000  -0.000000
   17  O  3  S   -0.043279  -0.007940   0.370219   0.461223   0.204363
   18  O  3  X    0.000721  -0.002254  -0.063566   0.035173   0.191968
   19  O  3  Y    0.000145   0.002102   0.005435  -0.016070   0.151342
   20  O  3  Z   -0.000000  -0.000000   0.000000   0.000000  -0.000000

                      6          7          8          9         10
                   -0.6554    -0.3468     0.6138     0.8588    -0.6115
                     A'         A'         A'         A'         A'' 
    1  H  1  S   -0.043279  -0.229386  -0.708398  -0.004306  -0.000000
    2  H  1  S   -0.043734  -0.228450  -0.498566   0.001515  -0.000000
    3  N  2  S    0.050335  -0.059020  -0.075453  -0.087807  -0.000000
    4  N  2  S   -0.119997   0.122539   0.360687   0.434117  -0.000000
    5  N  2  X    0.352773  -0.162541  -0.181630   0.824181  -0.000000
    6  N  2  Y    0.219301  -0.369338   0.729250  -0.017474  -0.000000
    7  N  2  Z    0.000000   0.000000   0.000000  -0.000000   0.392668
    8  N  2  S   -0.289938   0.330647   0.301177   0.348957  -0.000000
    9  N  2  X    0.125522  -0.141616  -0.100352   0.263215  -0.000000
   10  N  2  Y    0.131980  -0.266669   0.121186  -0.013852  -0.000000
   11  N  2  Z    0.000000   0.000000   0.000000  -0.000000   0.230311
   12  O  3  S    0.009709   0.004249   0.001206   0.082985  -0.000000
   13  O  3  S   -0.036963  -0.026361  -0.002968  -0.312276  -0.000000
   14  O  3  X   -0.314168   0.063427   0.071604   0.778601  -0.000000
   15  O  3  Y    0.377665   0.505293  -0.243460   0.026449  -0.000000
   16  O  3  Z    0.000000   0.000000   0.000000  -0.000000   0.496434
   17  O  3  S   -0.106953   0.042495   0.027402  -0.474899  -0.000000
   18  O  3  X   -0.173116   0.022382  -0.003456   0.233059  -0.000000
   19  O  3  Y    0.235919   0.406600   0.084316  -0.015998  -0.000000
   20  O  3  Z    0.000000   0.000000   0.000000  -0.000000   0.309510

                     11         12         13         14         15
                    0.0407     0.6751     0.7062     0.8957     0.9721
                     A''        A'         A'         A''        A'  
    1  H  1  S    0.000000   0.506162  -0.483774   0.000000  -0.543871
    2  H  1  S    0.000000  -1.485792   1.446368   0.000000   0.172728
    3  N  2  S    0.000000  -0.041474  -0.000571   0.000000  -0.051928
    4  N  2  S    0.000000  -0.265189  -0.193029   0.000000   0.614385
    5  N  2  X    0.000000  -0.349457  -0.347829   0.000000  -0.192725
    6  N  2  Y    0.000000  -0.287916   0.263814   0.000000  -0.642801
    7  N  2  Z    0.593571  -0.000000   0.000000  -0.931466   0.000000
    8  N  2  S    0.000000   2.277285   0.743533   0.000000  -0.592328
    9  N  2  X    0.000000   1.434171   1.747526   0.000000   0.008644
   10  N  2  Y    0.000000   0.755315  -0.816019   0.000000   1.024125
   11  N  2  Z    0.422113  -0.000000   0.000000   1.164736   0.000000
   12  O  3  S    0.000000   0.029753   0.054492   0.000000  -0.005153
   13  O  3  S    0.000000   0.000241  -0.174021   0.000000   0.061931
   14  O  3  X    0.000000  -0.089190  -0.108158   0.000000   0.052678
   15  O  3  Y    0.000000   0.081800  -0.137510   0.000000  -0.327650
   16  O  3  Z   -0.526475  -0.000000   0.000000  -0.161179   0.000000
   17  O  3  S    0.000000  -1.505310  -1.454062   0.000000   0.088976
   18  O  3  X    0.000000   0.834059   0.762984   0.000000  -0.105516
   19  O  3  Y    0.000000  -0.204668   0.301067   0.000000   0.081980
   20  O  3  Z   -0.361334  -0.000000   0.000000  -0.144663   0.000000

                     16         17         18         19         20
                    1.0923     1.1869     1.1972     1.2524     1.8088
                     A'         A''        A'         A'         A'  
    1  H  1  S   -0.209825   0.000000   0.173291  -0.773952   0.361699
    2  H  1  S   -0.400358   0.000000  -0.914038  -0.762954   0.066966
    3  N  2  S    0.004051   0.000000   0.024637  -0.010257   0.010418
    4  N  2  S   -0.064784   0.000000  -0.992021  -1.131411   0.376552
    5  N  2  X    0.424877   0.000000   0.178219   0.040393  -0.256766
    6  N  2  Y   -0.094744   0.000000  -0.119789  -0.211885   0.006161
    7  N  2  Z   -0.000000   0.074569  -0.000000   0.000000   0.000000
    8  N  2  S    1.492160   0.000000   1.394267   1.843888  -3.555531
    9  N  2  X   -0.015446   0.000000  -0.251316  -0.195038  -1.765725
   10  N  2  Y    0.472848   0.000000   0.133319   1.456609  -0.292428
   11  N  2  Z   -0.000000  -0.573763  -0.000000   0.000000   0.000000
   12  O  3  S    0.072555   0.000000  -0.001323   0.010574   0.026641
   13  O  3  S   -0.363458   0.000000  -0.109350  -0.274640  -1.767225
   14  O  3  X   -0.650697   0.000000   0.145524   0.202224   0.138237
   15  O  3  Y   -0.041882   0.000000  -0.726231   0.408794  -0.020049
   16  O  3  Z   -0.000000  -0.902927  -0.000000   0.000000   0.000000
   17  O  3  S   -0.382372   0.000000   0.033057   0.044105   4.534761
   18  O  3  X    1.538212   0.000000  -0.218624  -0.288417  -1.988465
   19  O  3  Y   -0.072319   0.000000   0.917814  -0.921948   0.116873
   20  O  3  Z   -0.000000   1.292034  -0.000000   0.000000   0.000000

 THIS RUN IS GOING TO SOLVE THE CP-MC-HF RESPONSE EQUATIONS,
 USING CANONICAL ACTIVE ORBITALS TO IMPROVE THEIR CONVERGENCE.
 ROTATION OF THE ACTIVE ORBITALS REQUIRES REGENERATION OF THE CI STATES,
 THE 1 PARTICLE DENSITY, AND THE 2 PARTICLE DENSITY OVER THE NEW ACTIVE
 ORBITALS.  AWAY WE GO...

     --------------------------------------------
     PARTIAL TWO ELECTRON INTEGRAL TRANSFORMATION
     --------------------------------------------

 NUMBER OF CORE MOLECULAR ORBITALS     =    2
 NUMBER OF OCCUPIED MOLECULAR ORBITALS =   11
 TOTAL NUMBER OF MOLECULAR ORBITALS    =   11
 TOTAL NUMBER OF ATOMIC ORBITALS       =   20
 THRESHOLD FOR KEEPING TRANSFORMED 2E- INTEGRALS = 1.000E-09

 -------------------------------     ------------------------------
 DISTRIBUTED DATA TRANSFORMATION     PROGRAM WRITTEN BY G. FLETCHER
 -------------------------------     ------------------------------

 THE DISTRIBUTED MEMORY REQUIRED FOR THIS STEP IS MEMDDI=         1 MWORDS
 CREATING DISTRIBUTED STORAGE FOR [OCC OCC|OCC OCC] INTEGRALS
 CREATING WORKSPACE OF SIZE VVOO
 FOR    1 PROCESSORS, THE REPLICATED MEMORY NEEDED IS       53710 WORDS.

      DIRECT 4-INDEX TRANSFORMATION 
      SCHWARZ INEQUALITY TEST SKIPPED          0 INTEGRAL BLOCKS
 ----- FROZEN CORE ENERGY =      -117.1665842555
 ... END OF INTEGRAL TRANSFORMATION ...
 CPU     0: STEP CPU TIME=     1.66 TOTAL CPU TIME=        6.3 (    0.1 MIN)
 TOTAL WALL CLOCK TIME=       10.3 SECONDS, CPU UTILIZATION IS  60.44%

     --------------------------------------------------
                 DIRECT DETERMINANT ORMAS-CI 
                PROGRAM WRITTEN BY JOE IVANIC
     --------------------------------------------------

 STORAGE OF BINOMIAL COEFFICIENTS REQUIRES          65 WORDS

 TOTAL NUMBER OF ALPHA GROUPS  =            3
 TOTAL NUMBER OF BETA  GROUPS  =            3

 TOTAL NUMBER OF ALPHA STRINGS =           84
 TOTAL NUMBER OF BETA  STRINGS =           84

 STORAGE OF TABLES REQUIRES                       704 WORDS

 TOTAL NUMBER OF ALPHA-BETA GROUP COMBINATIONS =            9
 OF THESE THE ALLOWED NUMBER OF COMBINATIONS   =            5

 TOTAL NUMBER OF (B -> B`) WHERE  (B` > B)  =          756

 TIME FOR SETTING UP TABLE SET 1 :          0.0

 THE NUMBER OF DETERMINANTS HAVING SPACE SYMMETRY A  
 IN POINT GROUP C1   WITH SZ=  0.0 IS           5194

 INTEGRAL STORAGE REQUIRES                   31126 WORDS
 EXTRA ORMAS STORAGE REQUIRES              1667090 WORDS
 (EXTRA ORMAS STORAGE INCLUDES THAT FOR MXXPAN = 10)
 TOTAL ORMAS CALCULATION REQUIRES          1698985 WORDS

 FULLY DIRECT WOULD REQUIRE                1695688 WORDS

 INITIAL ORMAS VECTOR GUESS TIME :          4.0
 SETTING UP CALCULATION TIME     :          0.0
 ORMAS SPIN CALCULATION TIME     :          0.0
 INITIAL ORMAS CI ITERATION TIME :          0.0

 ITERATION      ENERGY           GRADIENT
     0     -129.8216949209     0.22855580
     0     -129.7820383220     0.21888874
     0     -129.7485293335     0.22690375
     0     -129.5816680160     0.25980898

     1     -129.8368034045     0.04828366
     1     -129.7961376185     0.04268355
     1     -129.7636757625     0.04629076
     1     -129.6040899867     0.04952308

     2     -129.8373483418     0.01888103
     2     -129.7965794068     0.01510606
     2     -129.7641807962     0.01818118
     2     -129.6047379062     0.01523449

     3     -129.8374330102     0.00894049
     3     -129.7966364566     0.00663880
     3     -129.7642597117     0.00851479
     3     -129.6047982628     0.00548316

     4     -129.8374555309     0.00507574
     4     -129.7966497631     0.00350238
     4     -129.7642823403     0.00510206
     4     -129.6048061358     0.00231454

     5     -129.8374618780     0.00260626
     5     -129.7966532115     0.00170731
     5     -129.7642891242     0.00251507
     5     -129.6048075671     0.00113399

     6     -129.8374637738     0.00151545
     6     -129.7966541823     0.00095947
     6     -129.7642913103     0.00159806
     6     -129.6048079434     0.00063344

     7     -129.8374643547     0.00080741
     7     -129.7966544729     0.00049831
     7     -129.7642920413     0.00080739
     7     -129.6048080649     0.00035836

     8     -129.8374645375     0.00047464
     8     -129.7966545657     0.00029680
     8     -129.7642923010     0.00054685
     8     -129.6048081080     0.00022001

     9     -129.8374645961     0.00025896
     9     -129.7966545972     0.00016487
     9     -129.7642923982     0.00028514
     9     -129.6048081243     0.00013113

    10     -129.8374646152     0.00015352
    10     -129.7966546086     0.00010405
    10     -129.7642924372     0.00020943
    10     -129.6048081310     0.00008694

    11     -129.8374646215     0.00008518
    11     -129.7966546130     0.00006209
    11     -129.7642924539     0.00011499
    11     -129.6048081338     0.00005374

    12     -129.8374646236     0.00005086
    12     -129.7966546148     0.00004114
    12     -129.7642924616     0.00009170
    12     -129.6048081350     0.00003794

    13     -129.8374646243     0.00002859
    13     -129.7966546155     0.00002611
    13     -129.7642924652     0.00005349
    13     -129.6048081356     0.00002397

    14     -129.8374646245     0.00001718
    14     -129.7966546159     0.00001782
    14     -129.7642924671     0.00004482
    14     -129.6048081359     0.00001771

    15     -129.8374646246     0.00000976
    15     -129.7966546160     0.00001178
    15     -129.7642924680     0.00002734
    15     -129.6048081360     0.00001131

    16     -129.8374646246     0.00000590
    16     -129.7966546161     0.00000814
    16     -129.7642924685     0.00002328
    16     -129.6048081361     0.00000861

    17     -129.8374646247     0.00000339
    17     -129.7966546161     0.00000550
    17     -129.7642924688     0.00001456
    17     -129.6048081361     0.00000553

    18     -129.8374646247     0.00000206
    18     -129.7966546161     0.00000381
    18     -129.7642924689     0.00001241
    18     -129.6048081361     0.00000428

    19     -129.8374646247     0.00000119
    19     -129.7966546161     0.00000261
    19     -129.7642924690     0.00000787
    19     -129.6048081362     0.00000275

    20     -129.8374646247     0.00000073
    20     -129.7966546161     0.00000181
    20     -129.7642924691     0.00000669
    20     -129.6048081362     0.00000216


 CONVERGED STATE    1 ENERGY=     -129.8374646247 IN   20 ITERS

     0     -129.7966546161     0.00000181
     0     -129.7642924691     0.00000669
     0     -129.6048081362     0.00000216

     1     -129.7966546161     0.00000124
     1     -129.7642924691     0.00000427
     1     -129.6048081362     0.00000139

     2     -129.7966546161     0.00000005
     2     -129.7642924691     0.00000020
     2     -129.6048081362     0.00000013


 CONVERGED STATE    2 ENERGY=     -129.7966546161 IN   23 ITERS


 CONVERGED STATE    3 ENERGY=     -129.7642924691 IN   23 ITERS


 CONVERGED STATE    4 ENERGY=     -129.6048081362 IN   23 ITERS

 ALL STATES CONVERGED.

 CI EIGENVECTORS WILL BE LABELED IN GROUP=C1      
 PRINTING CI COEFFICIENTS LARGER THAN  0.050000

 STATE   1  ENERGY=      -129.8374646247  S=  0.00  SZ=  0.00  SPACE SYM=A   

         ALPHA           |          BETA           | CI COEFFICIENT
 1                 2     | 1                 2     |
-------------------------|-------------------------|---------------
  1  2  3  4  5     8    |  1  2  3  4  5     8    |   0.9595275456
  1  2  3  4  5     9    |  1  2  3  4  5     9    |  -0.1941291854
  1  2  3  4  6     8    |  1  2  3  4  6     8    |  -0.0541539349

 STATE   2  ENERGY=      -129.7966546161  S=  1.00  SZ=  0.00  SPACE SYM=A   

         ALPHA           |          BETA           | CI COEFFICIENT
 1                 2     | 1                 2     |
-------------------------|-------------------------|---------------
  1  2  3  4  5     8    |  1  2  3  4        8  9 |   0.6836456651
  1  2  3  4        8  9 |  1  2  3  4  5     8    |  -0.6836456651
  1  2  3  4  5     9    |  1  2  3  5        8  9 |   0.0770120326
  1  2  3  5        8  9 |  1  2  3  4  5     9    |  -0.0770120326
  1  2  3  4  5     9    |  1  2  4  5        8  9 |  -0.0534836984
  1  2  4  5        8  9 |  1  2  3  4  5     9    |   0.0534836984
  1  2  3  4  5     8    |  1  2  4  5        8  9 |   0.0533181467
  1  2  4  5        8  9 |  1  2  3  4  5     8    |  -0.0533181467

 STATE   3  ENERGY=      -129.7642924691  S=  0.00  SZ=  0.00  SPACE SYM=A   

         ALPHA           |          BETA           | CI COEFFICIENT
 1                 2     | 1                 2     |
-------------------------|-------------------------|---------------
  1  2  3  4        8  9 |  1  2  3  4  5     8    |   0.6741609170
  1  2  3  4  5     8    |  1  2  3  4        8  9 |   0.6741609170
  1  2  3  5        8  9 |  1  2  3  4  5     9    |   0.1104006181
  1  2  3  4  5     9    |  1  2  3  5        8  9 |   0.1104006181
  1  2  4  5        8  9 |  1  2  3  4  5     9    |  -0.0734484489
  1  2  3  4  5     9    |  1  2  4  5        8  9 |  -0.0734484489
  1  2  3  5        8  9 |  1  2  3  4  5     8    |  -0.0682653765
  1  2  3  4  5     8    |  1  2  3  5        8  9 |  -0.0682653765
  1  2  4  5        8  9 |  1  2  3  4  5     8    |   0.0580212103
  1  2  3  4  5     8    |  1  2  4  5        8  9 |   0.0580212103

 STATE   4  ENERGY=      -129.6048081362  S=  1.00  SZ=  0.00  SPACE SYM=A   

         ALPHA           |          BETA           | CI COEFFICIENT
 1                 2     | 1                 2     |
-------------------------|-------------------------|---------------
  1  2  3  4  5     9    |  1  2  3  4  5     8    |   0.6969820380
  1  2  3  4  5     8    |  1  2  3  4  5     9    |  -0.6969820380

 ..... DONE WITH ORMAS-CI COMPUTATION .....
 CPU     0: STEP CPU TIME=     4.22 TOTAL CPU TIME=       10.5 (    0.2 MIN)
 TOTAL WALL CLOCK TIME=       14.8 SECONDS, CPU UTILIZATION IS  70.89%

     -------------------------------------------------------
      ONE AND TWO PARTICLE ORMAS DENSITY MATRIX COMPUTATION
                  PROGRAM WRITTEN BY JOE IVANIC
     -------------------------------------------------------

 THE DENSITIES ARE STATE AVERAGED OVER   2 ROOT(S)

      STATE WEIGHTS WILL BE CHOSEN DYNAMICALLY 
 STATE   1 IS THE REFERENCE STATE
 DYNAMICALLY WEIGHTED ENERGY PARAMETER:  2.000 EV

 STATE=   1   ENERGY=     -129.8374646247   WEIGHT= 0.70283   S=  0.00
 STATE=   3   ENERGY=     -129.7642924691   WEIGHT= 0.29717   S=  0.00
 SIEVING THE A    SYMMETRY NONZERO DENSITY ELEMENTS IN GROUP C1      
        601 NONZERO DM2 ELEMENTS WRITTEN IN       1 RECORDS TO FILE 70 LABELED AS DEN2P1 
        601 NONZERO DM2 ELEMENTS WRITTEN IN       1 RECORDS TO FILE 71 LABELED AS DEN2P2 
        601 NONZERO DM2 ELEMENTS WRITTEN IN       1 RECORDS TO FILE 72 LABELED AS DEN2P3 
        601 NONZERO DM2 ELEMENTS WRITTEN IN       1 RECORDS TO FILE 73 LABELED AS DEN2P4 
        601 NONZERO DM2 ELEMENTS WRITTEN IN       1 RECORDS TO FILE 15
 ..... DONE WITH 1 AND 2 PARTICLE DENSITY MATRIX .....
 CPU     0: STEP CPU TIME=     0.04 TOTAL CPU TIME=       10.5 (    0.2 MIN)
 TOTAL WALL CLOCK TIME=       15.5 SECONDS, CPU UTILIZATION IS  67.76%
 FREEING DISTRIBUTED STORAGE FOR [OCC OCC|OCC OCC] INTEGRALS
 .....DONE WITH MCSCF ITERATIONS.....
 CPU     0: STEP CPU TIME=     0.00 TOTAL CPU TIME=       10.5 (    0.2 MIN)
 TOTAL WALL CLOCK TIME=       15.5 SECONDS, CPU UTILIZATION IS  67.76%
 DDI: Creating Array [0] - 400 x 66 = 26400 words.
 DDI: Creating Array [1] - 9 x 726 = 6534 words.
 DDI: Creating Array [2] - 66 x 66 = 4356 words.
 DDI: Creating Array [3] - 210 x 66 = 13860 words.

     ----------------------------------------------------------------
     PROPERTY VALUES FOR THE MCSCF SELF-CONSISTENT FIELD WAVEFUNCTION
     ----------------------------------------------------------------

 THIS MCSCF AVERAGED   2 ROOTS OF DIFFERENT ENERGY.
 SINCE NO STATE-SPECIFIC DENSITY MATRIX IS AVAILABLE,
 PROPERTIES WILL NOT BE COMPUTED.


 THIS MCSCF RUN AVERAGED ORBITALS FOR STATES WITH DIFFERENT ENERGY,
 SO A CP-MCSCF-HF STEP MUST BE RUN TO PRODUCE A STATE-SPECIFIC GRADIENT.

     ------------------------------
     CPHF RESPONSE SOLUTION OPTIONS
     ------------------------------
     POLAR  =       F     NWORD  =       0
     CPHF   =MO      

     --------------------------------------------
     PARTIAL TWO ELECTRON INTEGRAL TRANSFORMATION
     --------------------------------------------

 NUMBER OF CORE MOLECULAR ORBITALS     =    0
 NUMBER OF OCCUPIED MOLECULAR ORBITALS =   11
 TOTAL NUMBER OF MOLECULAR ORBITALS    =   20
 TOTAL NUMBER OF ATOMIC ORBITALS       =   20
 THRESHOLD FOR KEEPING TRANSFORMED 2E- INTEGRALS = 1.000E-09

 -------------------------------     ------------------------------
 DISTRIBUTED DATA TRANSFORMATION     PROGRAM WRITTEN BY G. FLETCHER
 -------------------------------     ------------------------------

 THE DISTRIBUTED MEMORY REQUIRED FOR THIS STEP IS MEMDDI=         1 MWORDS
 CREATING DISTRIBUTED STORAGE FOR [VIR OCC|VIR OCC] INTEGRALS
 CREATING DISTRIBUTED STORAGE FOR [VIR OCC|OCC OCC] INTEGRALS
 CREATING DISTRIBUTED STORAGE FOR [OCC OCC|OCC OCC] INTEGRALS
 CREATING DISTRIBUTED STORAGE FOR [VIR VIR|OCC OCC] INTEGRALS
 FOR    1 PROCESSORS, THE REPLICATED MEMORY NEEDED IS       57006 WORDS.

      DIRECT 4-INDEX TRANSFORMATION 
      SCHWARZ INEQUALITY TEST SKIPPED          0 INTEGRAL BLOCKS
 ... END OF INTEGRAL TRANSFORMATION ...
 CPU     0: STEP CPU TIME=     0.02 TOTAL CPU TIME=       10.5 (    0.2 MIN)
 TOTAL WALL CLOCK TIME=       16.3 SECONDS, CPU UTILIZATION IS  64.40%

     ---------------------------------------------
     1ST AND 2ND INTEGRAL DERIVATIVE CONTRIBUTIONS
     ---------------------------------------------
 ...... END OF 1-ELECTRON GRAD+HESS+FOCKDER ......
 CPU     0: STEP CPU TIME=     0.00 TOTAL CPU TIME=       10.5 (    0.2 MIN)
 TOTAL WALL CLOCK TIME=       16.8 SECONDS, CPU UTILIZATION IS  62.72%

     ----------------------------------------------
     TWO ELECTRON INTEGRAL DERIVATIVE CONTRIBUTIONS
     ----------------------------------------------

      79228 WORDS REQUIRED,  30000000 WORDS AVAILABLE
 THE COARSE/FINE SCHWARZ SCREENINGS SKIPPED          0/         0 BLOCKS.
 THE NUMBER OF DERIVATIVE INTEGRAL BLOCKS COMPUTED WAS       618
 CPU     0: STEP CPU TIME=     0.29 TOTAL CPU TIME=       10.8 (    0.2 MIN)
 TOTAL WALL CLOCK TIME=       17.8 SECONDS, CPU UTILIZATION IS  60.92%
 ...... END OF 2-ELECTRON GRAD+HESS+LAGDER ......
 CPU     0: STEP CPU TIME=     0.00 TOTAL CPU TIME=       10.8 (    0.2 MIN)
 TOTAL WALL CLOCK TIME=       17.8 SECONDS, CPU UTILIZATION IS  60.92%

     -------------------------------------------------
     COUPLED-PERTURBED MULTICONFIGURATION HARTREE-FOCK
     Z-VECTOR VERSION
     -------------------------------------------------

 SETTING UP RIGHT-HAND SIDE OF CPMCHF EQUATIONS.
 # OF WORDS REQUIRED  =     121591
 # OF WORDS AVAILABLE =   30000000
 NOTE THAT THE CP-MCHF DISTRIBUTED MEMORY REQUIREMENTS ARE JUST THE
 MEMORY NEEDED TO STORE TRANSFORMED INTEGRAL CLASSES (ALLOCATED ABOVE).

  --- DIPOLE MOMENTS (DEBYE) ---
  1,  1 :  DIPOLE   -0.828321    1.694892    0.000000    1.886472
  1,  2 : TDIPOLE   -0.000000   -0.000000    0.426767    0.426767
  2,  2 :  DIPOLE   -0.907462    1.735759   -0.000000    1.958659

  --- OSCILLATOR STRENGTHS  ---

             1           2

    1    0.0000000
    2    0.0013752   0.0000000


 CALCULATING MCSCF ELECTRONIC HESSIAN ON THE FLY.
 # OF ORBITAL ROTATIONS   =        131
 LENGTH OF DET. EXPANSION =       5194

 SOLVING CPMCHF EQUATIONS - ESSENTIAL MEMORY.
 # OF WORDS REQUIRED  =     390728
 # OF WORDS AVAILABLE =   30000000
 DDI: Creating Array [4] - 1 x 1 = 1 words.
 DDI: Creating Array [5] - 1 x 1 = 1 words.
 DDI: Creating Array [6] - 1 x 1 = 1 words.
 DDI: Creating Array [7] - 1 x 1 = 1 words.

 MASTER NODE HAS FINISHED WITH (OO|OO) INTEGRALS, T=    0.0
 MASTER NODE HAS FINISHED WITH (VO|OO) INTEGRALS, T=    0.0
 MASTER NODE HAS FINISHED WITH (VV|OO) INTEGRALS, T=    0.0
 MASTER NODE HAS FINISHED WITH (VO|VO) INTEGRALS, T=    0.0

 FINISHED SETTING UP RIGHT-HAND SIDE.
 CPU     0: STEP CPU TIME=     0.32 TOTAL CPU TIME=       11.1 (    0.2 MIN)
 TOTAL WALL CLOCK TIME=       19.4 SECONDS, CPU UTILIZATION IS  57.51%

 SOLVING FOR    3 NUCLEAR RESPONSES AND 0 ELECTRIC FIELD RESPONSES

 SOLVING CPMCHF EQUATIONS - EXTRA SOLVER MEMORY.
 # OF WORDS REQUIRED  =    2957006
 # OF WORDS AVAILABLE =   29609272

 PRECONDITIONED GCRODR SOLVER   CONV. TOLERANCE=1.00E-07
 ITER   RESPONSE ERROR    IMPROVED     ORB-ORB     CI-ORB
   1      2.34719E+00         3            0.0        0.8
 DUE TO LARGE RES. NORM, GUESS SET TO 0 VECTOR.
   1      8.73704E-02         3            0.0        0.5
   2      3.79526E-04         3            0.0        0.4
   3      4.52008E-06         1            0.0        0.4
   4      1.65850E-07         1            0.0        0.4
   5      3.41817E-11         0            0.0        0.4
 THE CPMCHF HAS CONVERGED AFTER   5 ITERATIONS.

 STATE-SPECIFIC GRADIENT OF STATE   1 (OVERALL STATE   1)
 ENERGY=     -129.8374646247 SPIN=  0.00 WEIGHT= 0.702829

 UNITS ARE HARTREE/BOHR    E'X               E'Y               E'Z 
    1 H                0.020302792      -0.030878283       0.000000001
    2 N                0.141054487       0.022773467      -0.000000002
    3 O               -0.161357279       0.008104816       0.000000001

 STATE-SPECIFIC GRADIENT OF STATE   2 (OVERALL STATE   3)
 ENERGY=     -129.7642924691 SPIN=  0.00 WEIGHT= 0.297171

 UNITS ARE HARTREE/BOHR    E'X               E'Y               E'Z 
    1 H                0.030497375      -0.020195721      -0.000000002
    2 N                0.186490702       0.000437025       0.000000004
    3 O               -0.216988077       0.019758695      -0.000000002

 NACME FOR STATE J->I HAVE OPPOSITE SIGN TO THE NACME CONNECTING STATE I->J,
 SO ONLY NACME FOR I>J ARE PRINTED, FOR STATES WITH SPIN QUANTUM NO. S=  0.00

 NONADIABATIC COUPLING MATRIX ELEMENT (NACME), IN ONE/BOHR
 <STATE  2, WEIGHT=   0.29717 | D/DQ | STATE  1, WEIGHT=   0.70283>
   ATOM               D/DX           D/DY           D/DZ
    1 H               0.0000000     -0.0000000     -0.6876606
    2 N               0.0000000      0.0000000      1.0539522
    3 O              -0.0000000     -0.0000000     -0.3209295

 TOTAL REPLICATED MEMORY USED FOR NACME RESPONSES=      3347734 WORDS.
 FREEING DISTRIBUTED STORAGE FOR [VIR VIR|OCC OCC] INTEGRALS
 FREEING DISTRIBUTED STORAGE FOR [OCC OCC|OCC OCC] INTEGRALS
 FREEING DISTRIBUTED STORAGE FOR [VIR OCC|OCC OCC] INTEGRALS
 FREEING DISTRIBUTED STORAGE FOR [VIR OCC|VIR OCC] INTEGRALS

 ...... DONE WITH CPMCHF EQUATIONS ......
 CPU     0: STEP CPU TIME=    43.18 TOTAL CPU TIME=       54.3 (    0.9 MIN)
 TOTAL WALL CLOCK TIME=       63.4 SECONDS, CPU UTILIZATION IS  85.68%

                         ----------------------
                         GRADIENT OF THE ENERGY
                         ----------------------

 UNITS ARE HARTREE/BOHR    E'X               E'Y               E'Z 
    1 H                0.020302792      -0.030878283       0.000000000
    2 N                0.141054487       0.022773467       0.000000000
    3 O               -0.161357279       0.008104816       0.000000000

                   MAXIMUM GRADIENT =    0.161357279
                       RMS GRADIENT =    0.072940257


                     --------------------
                     INTERNAL COORDINATES
                     --------------------

                 - - ATOMS - -         COORDINATE        GRADIENT
 NO.   TYPE    I  J  K  L  M  N         (ANG,DEG)     (H/B,H/RAD)
 ----------------------------------------------------------------
   1 STRETCH   1  2                     1.0307404      -0.0358303
   2 STRETCH   2  3                     1.1652720      -0.1613623
   3 BEND      1  2  3                109.1892411      -0.0176237

                   MAXIMUM GRADIENT =    0.161362344
                       RMS GRADIENT =    0.095972578
  $VIB   
          IVIB=   0 IATOM=   0 ICOORD=   0 E=     -129.8374646247
  2.030279182E-02-3.087828278E-02 0.000000000E+00 1.410544868E-01 2.277346696E-02
  0.000000000E+00-1.613572787E-01 8.104815825E-03 0.000000000E+00
  0.000000000E+00 0.000000000E+00 0.000000000E+00

..... END OF SINGLE POINT GRADIENT .....
 CPU     0: STEP CPU TIME=     0.00 TOTAL CPU TIME=       54.3 (    0.9 MIN)
 TOTAL WALL CLOCK TIME=       63.5 SECONDS, CPU UTILIZATION IS  85.52%
              3347734  WORDS OF DYNAMIC MEMORY USED
 EXECUTION OF GAMESS TERMINATED NORMALLY Mon Nov 28 21:28:49 2016
 DDI: 672872 bytes (0.6 MB / 0 MWords) used by master data server.

 ----------------------------------------
 CPU timing information for all processes
 ========================================
 0: 54.113 + 0.219 = 54.333
 ----------------------------------------
 ddikick.x: exited gracefully.
unset echo
----- accounting info -----
Files used on the master node compute-3-0 were:
-rw-rw-r-- 1 sarom sarom   11567 Nov 29  2016 .//mc-psi-hno-dynwt.dat
-rw-rw-r-- 1 sarom sarom   10082 Nov 29  2016 .//mc-psi-hno-dynwt.F05
-rw-rw-r-- 1 sarom sarom    1688 Nov 29  2016 .//mc-psi-hno-dynwt.F09
-rw-rw-r-- 1 sarom sarom 2519440 Nov 29  2016 .//mc-psi-hno-dynwt.F10
-rw-rw-r-- 1 sarom sarom  166264 Nov 29  2016 .//mc-psi-hno-dynwt.F12
-rw-rw-r-- 1 sarom sarom  180552 Nov 29  2016 .//mc-psi-hno-dynwt.F15
-rw-rw-r-- 1 sarom sarom       0 Nov 29  2016 .//mc-psi-hno-dynwt.F16
-rw-rw-r-- 1 sarom sarom   28872 Nov 29  2016 .//mc-psi-hno-dynwt.F18
-rw-rw-r-- 1 sarom sarom  748008 Nov 29  2016 .//mc-psi-hno-dynwt.F19
-rw-rw-r-- 1 sarom sarom  180016 Nov 29  2016 .//mc-psi-hno-dynwt.F70
-rw-rw-r-- 1 sarom sarom  180016 Nov 29  2016 .//mc-psi-hno-dynwt.F71
-rw-rw-r-- 1 sarom sarom  180016 Nov 29  2016 .//mc-psi-hno-dynwt.F72
-rw-rw-r-- 1 sarom sarom  180016 Nov 29  2016 .//mc-psi-hno-dynwt.F73
-rw-rw-r-- 1 sarom sarom   10082 Nov 27 05:47 .//mc-psi-hno-dynwt.inp
-rw-rw-r-- 1 sarom sarom   70637 Nov 29  2016 .//mc-psi-hno-dynwt.log
Mon Nov 28 21:28:56 CST 2016
0.217u 0.489s 1:11.07 0.9%	0+0k 0+152io 0pf+0w
