----- GAMESS execution script 'rungms' -----
This job is running on host compute-3-0
under operating system Linux at Mon Nov 28 21:28:19 CST 2016
Available scratch disk space (Kbyte units) at beginning of the job is
Filesystem            1K-blocks       Used  Available Use% Mounted on
bolt.local:/export/home/sarom
                     9590469632 1555010560 7548291072  18% /home/sarom
Copying input file mc-psi-si09h12.inp to your run's scratch directory...
cp mc-psi-si09h12.inp .//mc-psi-si09h12.F05
unset echo
/home/sarom/gamessGH/ddikick.x /home/sarom/gamessGH/gamess.00.x mc-psi-si09h12 -ddi 1 1 localhost -scr ./

 Distributed Data Interface kickoff program.
 Initiating 1 compute processes on 1 nodes to run the following command:
 /home/sarom/gamessGH/gamess.00.x mc-psi-si09h12 

          ******************************************************
          *         GAMESS VERSION = 18 AUG 2016 (R1)          *
          *             FROM IOWA STATE UNIVERSITY             *
          * M.W.SCHMIDT, K.K.BALDRIDGE, J.A.BOATZ, S.T.ELBERT, *
          *   M.S.GORDON, J.H.JENSEN, S.KOSEKI, N.MATSUNAGA,   *
          *          K.A.NGUYEN, S.J.SU, T.L.WINDUS,           *
          *       TOGETHER WITH M.DUPUIS, J.A.MONTGOMERY       *
          *         J.COMPUT.CHEM.  14, 1347-1363(1993)        *
          **************** 64 BIT LINUX VERSION ****************

  SINCE 1993, STUDENTS AND POSTDOCS WORKING AT IOWA STATE UNIVERSITY
  AND ALSO IN THEIR VARIOUS JOBS AFTER LEAVING ISU HAVE MADE IMPORTANT
  CONTRIBUTIONS TO THE CODE:
     IVANA ADAMOVIC, CHRISTINE AIKENS, YURI ALEXEEV, POOJA ARORA,
     ANDREY ASADCHEV, ROB BELL, PRADIPTA BANDYOPADHYAY, JONATHAN BENTZ,
     BRETT BODE, KURT BRORSEN, CALEB CARLIN, GALINA CHABAN, WEI CHEN,
     CHEOL HO CHOI, PAUL DAY, ALBERT DEFUSCO, NUWAN DESILVA, TIM DUDLEY,
     DMITRI FEDOROV, GRAHAM FLETCHER, MARK FREITAG, KURT GLAESEMANN,
     DAN KEMP, GRANT MERRILL, NORIYUKI MINEZAWA, JONATHAN MULLIN,
     TAKESHI NAGATA, SEAN NEDD, HEATHER NETZLOFF, BOSILJKA NJEGIC, RYAN OLSON,
     MIKE PAK, SPENCER PRUITT, LUKE ROSKOP, JIM SHOEMAKER, LYUDMILA SLIPCHENKO,
     TONY SMITH, SAROM SOK LEANG, JIE SONG, TETSUYA TAKETSUGU, SIMON WEBB,
     PENG XU, SOOHAENG YOO, FEDERICO ZAHARIEV

  ADDITIONAL CODE HAS BEEN PROVIDED BY COLLABORATORS IN OTHER GROUPS:
     IOWA STATE UNIVERSITY:
          JOE IVANIC, AARON WEST, LAIMUTIS BYTAUTAS, KLAUS RUEDENBERG
     UNIVERSITY OF TOKYO: KIMIHIKO HIRAO, TAKAHITO NAKAJIMA,
          TAKAO TSUNEDA, MUNEAKI KAMIYA, SUSUMU YANAGISAWA,
          KIYOSHI YAGI, MAHITO CHIBA, SEIKEN TOKURA, NAOAKI KAWAKAMI
     UNIVERSITY OF AARHUS: FRANK JENSEN
     UNIVERSITY OF IOWA: VISVALDAS KAIRYS, HUI LI
     NATIONAL INST. OF STANDARDS AND TECHNOLOGY: WALT STEVENS, DAVID GARMER
     UNIVERSITY OF PISA: BENEDETTA MENNUCCI, JACOPO TOMASI
     UNIVERSITY OF MEMPHIS: HENRY KURTZ, PRAKASHAN KORAMBATH
     UNIVERSITY OF ALBERTA: TOBY ZENG, MARIUSZ KLOBUKOWSKI
     UNIVERSITY OF NEW ENGLAND: MARK SPACKMAN
     MIE UNIVERSITY: HIROAKI UMEDA
     NAT. INST. OF ADVANCED INDUSTRIAL SCIENCE AND TECHNOLOGY: KAZUO KITAURA
     MICHIGAN STATE UNIVERSITY:
          KAROL KOWALSKI, MARTA WLOCH, JEFFREY GOUR, JESSE LUTZ,
          WEI LI, PIOTR PIECUCH
     UNIVERSITY OF SILESIA: MONIKA MUSIAL, STANISLAW KUCHARSKI
     FACULTES UNIVERSITAIRES NOTRE-DAME DE LA PAIX:
          OLIVIER QUINET, BENOIT CHAMPAGNE
     UNIVERSITY OF CALIFORNIA - SANTA BARBARA: BERNARD KIRTMAN
     INSTITUTE FOR MOLECULAR SCIENCE:
          KAZUYA ISHIMURA, MICHIO KATOUDA, AND SHIGERU NAGASE
     UNIVERSITY OF NOTRE DAME: ANNA POMOGAEVA, DAN CHIPMAN
     KYUSHU UNIVERSITY:
          HARUYUKI NAKANO,
          FENG LONG GU, JACEK KORCHOWIEC, MARCIN MAKOWSKI, AND YURIKO AOKI,
          HIROTOSHI MORI AND EISAKU MIYOSHI
     PENNSYLVANIA STATE UNIVERSITY:
          TZVETELIN IORDANOV, CHET SWALINA, JONATHAN SKONE,
          SHARON HAMMES-SCHIFFER
     WASEDA UNIVERSITY:
          MASATO KOBAYASHI, TOMOKO AKAMA, TSUGUKI TOUMA,
          TAKESHI YOSHIKAWA, YASUHIRO IKABATA, JUNJI SEINO,
          YUYA NAKAJIMA, HIROMI NAKAI
     NANJING UNIVERSITY: SHUHUA LI
     UNIVERSITY OF NEBRASKA:
          PEIFENG SU, DEJUN SI, NANDUN THELLAMUREGE, YALI WANG, HUI LI
     UNIVERSITY OF ZURICH: ROBERTO PEVERATI, KIM BALDRIDGE
     N. COPERNICUS UNIVERSITY AND JACKSON STATE UNIVERSITY:
          MARIA BARYSZ
     UNIVERSITY OF COPENHAGEN: Jimmy Kromann, CASPER STEINMANN
     TOKYO INSTITUTE OF TECHNOLOGY: HIROYA NAKATA
     NAGOYA UNIVERSITY: YOSHIO NISHIMOTO, STEPHAN IRLE
     MOSCOW STATE UNIVERSITY: VLADIMIR MIRONOV

 EXECUTION OF GAMESS BEGUN Mon Nov 28 21:28:32 2016

            ECHO OF THE FIRST FEW INPUT CARDS -
 INPUT CARD>!    part of a sequence of Si(100) surface models,                              
 INPUT CARD>!         Si9H12, Si15H16, Si21H20, Si39H32                                     
 INPUT CARD>!    which can be used to ramp up basis faster than the active space.           
 INPUT CARD>!    The inputs are set to a mix of pi/pi* and sigma/pi/pi*/sigma*!             
 INPUT CARD>!    This series could also be used for MRPT or hessian computations.           
 INPUT CARD>!                                                                               
 INPUT CARD>!    FINAL MCSCF E= -2607.2434939540, 2 iters, RMS grad= 0.000002709            
 INPUT CARD>!    the sigma bond order is 0.98, while the pi bond order is 0.74.             
 INPUT CARD>!                                                                               
 INPUT CARD>!    This test takes 31 seconds on 2.66 GHz Cloverton (26 Apr 2015)             
 INPUT CARD>!                                                                               
 INPUT CARD>!    --------------------------------------------------------------------       
 INPUT CARD>!                                                                               
 INPUT CARD>!    this is the very famous cluster model for one Si(100) surface dimer,       
 INPUT CARD>!    Si9H12...6-31G(d)...195 AOs.                                               
 INPUT CARD>!                                                                               
 INPUT CARD>!    This is part of a set of jobs designed to grow the basis set               
 INPUT CARD>!    and active spaces systematically, with 1,2,3 surface dimers.               
 INPUT CARD>!              # AOs    # filled/active orb/active e-                           
 INPUT CARD>!    Si9H12     195     69/2/2  H        67/ 4/ 4 H                             
 INPUT CARD>!    Si15H16    317    111/4/4  H,P     109/ 8/ 8                               
 INPUT CARD>!    Si21H20    439    154/6/6          151/12/12                               
 INPUT CARD>!    H,P mean Hessian, or PT2 has been run.  Mostly this was skipped            
 INPUT CARD>!    because of busy machines, but the largest active space for the             
 INPUT CARD>!    trimer is a formidable hessian job.                                        
 INPUT CARD>!                                                                               
 INPUT CARD>!    ===== running with a sigma/pi/pi*/sigma* active space:                     
 INPUT CARD>!                                                                               
 INPUT CARD>!    F.NAL energy= -2607.2434939540, RMS= 0.000002709                           
 INPUT CARD>!    NOON= 1.9772, 1.7344, 0.2654, 0.0229                                       
 INPUT CARD>!    analytic frequencies run from 87.01 to 2349.50, ZPE=74.163 kcal/mol        
 INPUT CARD>!    a total of 19 MC-CPHF iterations are required.                             
 INPUT CARD>!                                                                               
 INPUT CARD>!    orientation analysis of this dimer gives                                   
 INPUT CARD>!        SiSi sigma bond order= 0.98, SiSi pi bond order= 0.74                  
 INPUT CARD>!    to be compared to 0.98 and 0.84 in trans bent Si2H4.                       
 INPUT CARD>!                                                                               
 INPUT CARD>!    The MCSCF grad takes 65 s.conds on a 1.2 GHz Power4+ (16 June 2006)        
 INPUT CARD>!    The analytic hessian takes 2534 s.conds, with p=2, on my office G5.        
 INPUT CARD>!                                                                               
 INPUT CARD>!    ===== running with a pi/pi* type active space only:                        
 INPUT CARD>!                                                                               
 INPUT CARD>!    This should be done with SCFTYP=GVB!                                       
 INPUT CARD>!    F_NAL GVB energy= -2607.2308873093,                                        
 INPUT CARD>!    NOON= 1.67260, 0.32740                                                     
 INPUT CARD>!    analytic frequencies run from 86.85 to 2349.24, ZPE=74.192 kcal/mol        
 INPUT CARD>!    with T/R residuals of 1.57, 0.25, 0.24, 0.70, 1.34, 1.62                   
 INPUT CARD>!                                                                               
 INPUT CARD>!    GVB hessian takes 1168 s.conds and 630 MB of disk, on same Power4+.        
 INPUT CARD>!                                                                               
  100000000 WORDS OF MEMORY AVAILABLE

     BASIS OPTIONS
     -------------
     GBASIS=N31          IGAUSS=       6      POLAR=POPN31  
     NDFUNC=       1     NFFUNC=       0     DIFFSP=       F
     NPFUNC=       0      DIFFS=       F     BASNAM=        


     RUN TITLE
     ---------
 the famous Si9H12 cluster (modeling one dimer of the Si(100) surface)           

 THE POINT GROUP OF THE MOLECULE IS CNV     
 THE ORDER OF THE PRINCIPAL AXIS IS     2

 ATOM      ATOMIC                      COORDINATES (BOHR)
           CHARGE         X                   Y                   Z
 SI         14.0    -2.1705568572        0.0000000000        2.9452144289
 SI         14.0     2.1705568572        0.0000000000        2.9452144289
 SI         14.0    -3.3894112700       -3.7350227319        0.8318439643
 SI         14.0     3.3894112700       -3.7350227319        0.8318439643
 SI         14.0    -3.3894112700        3.7350227319        0.8318439643
 SI         14.0     3.3894112700        3.7350227319        0.8318439643
 SI         14.0    -0.0000000000       -3.8435033164       -2.1197324936
 SI         14.0     0.0000000000        3.8435033164       -2.1197324936
 SI         14.0     0.0000000000        0.0000000000       -4.5022133431
 H           1.0    -3.3598202152       -5.9884925534        2.4979025735
 H           1.0     3.3598202152       -5.9884925534        2.4979025735
 H           1.0    -3.3598202152        5.9884925534        2.4979025735
 H           1.0     3.3598202152        5.9884925534        2.4979025735
 H           1.0    -5.9371403045       -3.4962901609       -0.3124709907
 H           1.0     5.9371403045       -3.4962901609       -0.3124709907
 H           1.0    -5.9371403045        3.4962901609       -0.3124709907
 H           1.0     5.9371403045        3.4962901609       -0.3124709907
 H           1.0    -0.0000000000       -6.0132133488       -3.9143495887
 H           1.0     0.0000000000        6.0132133488       -3.9143495887
 H           1.0    -2.2618678524        0.0000000000       -6.1702153044
 H           1.0     2.2618678524        0.0000000000       -6.1702153044

          INTERNUCLEAR DISTANCES (ANGS.)
          ------------------------------

                1 SI         2 SI         3 SI         4 SI         5 SI    

   1 SI      0.0000000    2.2972186 *  2.3607673 *  3.7166923    2.3607673 *
   2 SI      2.2972186 *  0.0000000    3.7166923    2.3607673 *  3.7166923  
   3 SI      2.3607673 *  3.7166923    0.0000000    3.5871987    3.9529781  
   4 SI      3.7166923    2.3607673 *  3.5871987    0.0000000    5.3379800  
   5 SI      2.3607673 *  3.7166923    3.9529781    5.3379800    0.0000000  
   6 SI      3.7166923    2.3607673 *  5.3379800    3.9529781    3.5871987  
   7 SI      3.5552490    3.5552490    2.3790435 *  2.3790435 *  4.6625882  
   8 SI      3.5552490    3.5552490    4.6625882    4.6625882    2.3790435 *
   9 SI      4.1049797    4.1049797    3.8847042    3.8847042    3.8847042  
  10 H       3.2395191    4.3200833    1.4830898 *  3.8671962    5.2204717  
  11 H       4.3200833    3.2395191    3.8671962    1.4830898 *  6.3252649  
  12 H       3.2395191    4.3200833    5.2204717    6.3252649    1.4830898 *
  13 H       4.3200833    3.2395191    6.3252649    5.2204717    3.8671962  
  14 H       3.2198907    4.9802106    1.4833371 *  4.9740132    4.1021398  
  15 H       4.9802106    3.2198907    4.9740132    1.4833371 *  6.2743979  
  16 H       3.2198907    4.9802106    4.1021398    6.2743979    1.4833371 *
  17 H       4.9802106    3.2198907    6.2743979    4.1021398    4.9740132  
  18 H       4.9619693    4.9619693    3.3133686    3.3133686    6.0112898  
  19 H       4.9619693    4.9619693    6.0112898    6.0112898    3.3133686  
  20 H       4.8239200    5.3637132    4.2416976    5.1555060    4.2416976  
  21 H       5.3637132    4.8239200    5.1555060    4.2416976    5.1555060  

                6 SI         7 SI         8 SI         9 SI        10 H     

   1 SI      3.7166923    3.5552490    3.5552490    4.1049797    3.2395191  
   2 SI      2.3607673 *  3.5552490    3.5552490    4.1049797    4.3200833  
   3 SI      5.3379800    2.3790435 *  4.6625882    3.8847042    1.4830898 *
   4 SI      3.9529781    2.3790435 *  4.6625882    3.8847042    3.8671962  
   5 SI      3.5871987    4.6625882    2.3790435 *  3.8847042    5.2204717  
   6 SI      0.0000000    4.6625882    2.3790435 *  3.8847042    6.3252649  
   7 SI      4.6625882    0.0000000    4.0677890    2.3929541 *  3.2280647  
   8 SI      2.3790435 *  4.0677890    0.0000000    2.3929541 *  6.0167962  
   9 SI      3.8847042    2.3929541 *  2.3929541 *  0.0000000    5.1889616  
  10 H       6.3252649    3.2280647    6.0167962    5.1889616    0.0000000  
  11 H       5.2204717    3.2280647    6.0167962    5.1889616    3.5558808  
  12 H       3.8671962    6.0167962    3.2280647    5.1889616    6.3379480  
  13 H       1.4830898 *  6.0167962    3.2280647    5.1889616    7.2673154  
  14 H       6.2743979    3.2892692    5.0863926    4.2672697    2.4106246 *
  15 H       4.1021398    3.2892692    5.0863926    4.2672697    5.3061135  
  16 H       4.9740132    5.0863926    3.2892692    4.2672697    5.4095759  
  17 H       1.4833371 *  5.0863926    3.2892692    4.2672697    7.1838180  
  18 H       6.0112898    1.4900162 *  5.3016989    3.1972256    3.8308186  
  19 H       3.3133686    5.3016989    1.4900162 *  3.1972256    7.4169117  
  20 H       5.1555060    3.1880448    3.1880448    1.4871930 *  5.6053788  
  21 H       4.2416976    3.1880448    3.1880448    1.4871930 *  6.3192203  

               11 H         12 H         13 H         14 H         15 H     

   1 SI      4.3200833    3.2395191    4.3200833    3.2198907    4.9802106  
   2 SI      3.2395191    4.3200833    3.2395191    4.9802106    3.2198907  
   3 SI      3.8671962    5.2204717    6.3252649    1.4833371 *  4.9740132  
   4 SI      1.4830898 *  6.3252649    5.2204717    4.9740132    1.4833371 *
   5 SI      6.3252649    1.4830898 *  3.8671962    4.1021398    6.2743979  
   6 SI      5.2204717    3.8671962    1.4830898 *  6.2743979    4.1021398  
   7 SI      3.2280647    6.0167962    6.0167962    3.2892692    3.2892692  
   8 SI      6.0167962    3.2280647    3.2280647    5.0863926    5.0863926  
   9 SI      5.1889616    5.1889616    5.1889616    4.2672697    4.2672697  
  10 H       3.5558808    6.3379480    7.2673154    2.4106246 *  5.3061135  
  11 H       0.0000000    7.2673154    6.3379480    5.3061135    2.4106246 *
  12 H       7.2673154    0.0000000    3.5558808    5.4095759    7.1838180  
  13 H       6.3379480    3.5558808    0.0000000    7.1838180    5.4095759  
  14 H       5.3061135    5.4095759    7.1838180    0.0000000    6.2835991  
  15 H       2.4106246 *  7.1838180    5.4095759    6.2835991    0.0000000  
  16 H       7.1838180    2.4106246 *  5.3061135    3.7003144    7.2921838  
  17 H       5.4095759    5.3061135    2.4106246 *  7.2921838    3.7003144  
  18 H       3.8308186    7.4169117    7.4169117    3.9086848    3.9086848  
  19 H       7.4169117    3.8308186    3.8308186    6.2311339    6.2311339  
  20 H       6.3192203    5.6053788    6.3192203    4.1005207    5.6441398  
  21 H       5.6053788    6.3192203    5.6053788    5.6441398    4.1005207  

               16 H         17 H         18 H         19 H         20 H     

   1 SI      3.2198907    4.9802106    4.9619693    4.9619693    4.8239200  
   2 SI      4.9802106    3.2198907    4.9619693    4.9619693    5.3637132  
   3 SI      4.1021398    6.2743979    3.3133686    6.0112898    4.2416976  
   4 SI      6.2743979    4.1021398    3.3133686    6.0112898    5.1555060  
   5 SI      1.4833371 *  4.9740132    6.0112898    3.3133686    4.2416976  
   6 SI      4.9740132    1.4833371 *  6.0112898    3.3133686    5.1555060  
   7 SI      5.0863926    5.0863926    1.4900162 *  5.3016989    3.1880448  
   8 SI      3.2892692    3.2892692    5.3016989    1.4900162 *  3.1880448  
   9 SI      4.2672697    4.2672697    3.1972256    3.1972256    1.4871930 *
  10 H       5.4095759    7.1838180    3.8308186    7.4169117    5.6053788  
  11 H       7.1838180    5.4095759    3.8308186    7.4169117    6.3192203  
  12 H       2.4106246 *  5.3061135    7.4169117    3.8308186    5.6053788  
  13 H       5.3061135    2.4106246 *  7.4169117    3.8308186    6.3192203  
  14 H       3.7003144    7.2921838    3.9086848    6.2311339    4.1005207  
  15 H       7.2921838    3.7003144    3.9086848    6.2311339    5.6441398  
  16 H       0.0000000    6.2835991    6.2311339    3.9086848    4.1005207  
  17 H       6.2835991    0.0000000    6.2311339    3.9086848    5.6441398  
  18 H       6.2311339    6.2311339    0.0000000    6.3641114    3.6032157  
  19 H       3.9086848    3.9086848    6.3641114    0.0000000    3.6032157  
  20 H       4.1005207    5.6441398    3.6032157    3.6032157    0.0000000  
  21 H       5.6441398    4.1005207    3.6032157    3.6032157    2.3938580 *

               21 H     

   1 SI      5.3637132  
   2 SI      4.8239200  
   3 SI      5.1555060  
   4 SI      4.2416976  
   5 SI      5.1555060  
   6 SI      4.2416976  
   7 SI      3.1880448  
   8 SI      3.1880448  
   9 SI      1.4871930 *
  10 H       6.3192203  
  11 H       5.6053788  
  12 H       6.3192203  
  13 H       5.6053788  
  14 H       5.6441398  
  15 H       4.1005207  
  16 H       5.6441398  
  17 H       4.1005207  
  18 H       3.6032157  
  19 H       3.6032157  
  20 H       2.3938580 *
  21 H       0.0000000  

  * ... LESS THAN  3.000


     ATOMIC BASIS SET
     ----------------
 THE CONTRACTED PRIMITIVE FUNCTIONS HAVE BEEN UNNORMALIZED
 THE CONTRACTED BASIS FUNCTIONS ARE NOW NORMALIZED TO UNITY

  SHELL TYPE  PRIMITIVE        EXPONENT          CONTRACTION COEFFICIENT(S)

 SI        

      6   S       1         16192.1000000    0.001949239405
      6   S       2          2436.0900000    0.014855895466
      6   S       3           556.0010000    0.072568877851
      6   S       4           156.8130000    0.245654925022
      6   S       5            50.1692000    0.486059851646
      6   S       6            17.0300000    0.325719900585

      7   L       7           293.3500000   -0.002829912441    0.004433341604
      7   L       8            70.1173000   -0.036073731114    0.032440211739
      7   L       9            22.4301000   -0.116808100749    0.133719048387
      7   L      10             8.1942500    0.093576880711    0.326780118247
      7   L      11             3.1476800    0.601705518979    0.451139163247
      7   L      12             1.2151500    0.422072364043    0.264105095568

      8   L      13             1.6537000   -0.240599186106   -0.015177406538
      8   L      14             0.5407600    0.073795050368    0.275139118516
      8   L      15             0.2044060    1.040936478740    0.783008337279

      9   L      16             0.0723837    1.000000000000    1.000000000000

     10   D      17             0.3950000    1.000000000000

 SI        

     26   S      18         16192.1000000    0.001949239405
     26   S      19          2436.0900000    0.014855895466
     26   S      20           556.0010000    0.072568877851
     26   S      21           156.8130000    0.245654925022
     26   S      22            50.1692000    0.486059851646
     26   S      23            17.0300000    0.325719900585

     27   L      24           293.3500000   -0.002829912441    0.004433341604
     27   L      25            70.1173000   -0.036073731114    0.032440211739
     27   L      26            22.4301000   -0.116808100749    0.133719048387
     27   L      27             8.1942500    0.093576880711    0.326780118247
     27   L      28             3.1476800    0.601705518979    0.451139163247
     27   L      29             1.2151500    0.422072364043    0.264105095568

     28   L      30             1.6537000   -0.240599186106   -0.015177406538
     28   L      31             0.5407600    0.073795050368    0.275139118516
     28   L      32             0.2044060    1.040936478740    0.783008337279

     29   L      33             0.0723837    1.000000000000    1.000000000000

     30   D      34             0.3950000    1.000000000000

 SI        

     36   S      35         16192.1000000    0.001949239405
     36   S      36          2436.0900000    0.014855895466
     36   S      37           556.0010000    0.072568877851
     36   S      38           156.8130000    0.245654925022
     36   S      39            50.1692000    0.486059851646
     36   S      40            17.0300000    0.325719900585

     37   L      41           293.3500000   -0.002829912441    0.004433341604
     37   L      42            70.1173000   -0.036073731114    0.032440211739
     37   L      43            22.4301000   -0.116808100749    0.133719048387
     37   L      44             8.1942500    0.093576880711    0.326780118247
     37   L      45             3.1476800    0.601705518979    0.451139163247
     37   L      46             1.2151500    0.422072364043    0.264105095568

     38   L      47             1.6537000   -0.240599186106   -0.015177406538
     38   L      48             0.5407600    0.073795050368    0.275139118516
     38   L      49             0.2044060    1.040936478740    0.783008337279

     39   L      50             0.0723837    1.000000000000    1.000000000000

     40   D      51             0.3950000    1.000000000000

 SI        

     41   S      52         16192.1000000    0.001949239405
     41   S      53          2436.0900000    0.014855895466
     41   S      54           556.0010000    0.072568877851
     41   S      55           156.8130000    0.245654925022
     41   S      56            50.1692000    0.486059851646
     41   S      57            17.0300000    0.325719900585

     42   L      58           293.3500000   -0.002829912441    0.004433341604
     42   L      59            70.1173000   -0.036073731114    0.032440211739
     42   L      60            22.4301000   -0.116808100749    0.133719048387
     42   L      61             8.1942500    0.093576880711    0.326780118247
     42   L      62             3.1476800    0.601705518979    0.451139163247
     42   L      63             1.2151500    0.422072364043    0.264105095568

     43   L      64             1.6537000   -0.240599186106   -0.015177406538
     43   L      65             0.5407600    0.073795050368    0.275139118516
     43   L      66             0.2044060    1.040936478740    0.783008337279

     44   L      67             0.0723837    1.000000000000    1.000000000000

     45   D      68             0.3950000    1.000000000000

 H         

     52   S      69            18.7311370    0.033494604338
     52   S      70             2.8253944    0.234726953484
     52   S      71             0.6401217    0.813757326146

     53   S      72             0.1612778    1.000000000000

 H         

     60   S      73            18.7311370    0.033494604338
     60   S      74             2.8253944    0.234726953484
     60   S      75             0.6401217    0.813757326146

     61   S      76             0.1612778    1.000000000000

 H         

     64   S      77            18.7311370    0.033494604338
     64   S      78             2.8253944    0.234726953484
     64   S      79             0.6401217    0.813757326146

     65   S      80             0.1612778    1.000000000000

 H         

     68   S      81            18.7311370    0.033494604338
     68   S      82             2.8253944    0.234726953484
     68   S      83             0.6401217    0.813757326146

     69   S      84             0.1612778    1.000000000000

 TOTAL NUMBER OF BASIS SET SHELLS             =   69
 NUMBER OF CARTESIAN GAUSSIAN BASIS FUNCTIONS =  195
 NUMBER OF ELECTRONS                          =  138
 CHARGE OF MOLECULE                           =    0
 SPIN MULTIPLICITY                            =    1
 NUMBER OF OCCUPIED ORBITALS (ALPHA)          =   69
 NUMBER OF OCCUPIED ORBITALS (BETA )          =   69
 TOTAL NUMBER OF ATOMS                        =   21
 THE NUCLEAR REPULSION ENERGY IS     1362.3292482330

     $CONTRL OPTIONS
     ---------------
 SCFTYP=MCSCF        RUNTYP=GRADIENT     EXETYP=RUN     
 MPLEVL=       0     CITYP =NONE         CCTYP =NONE         VBTYP =NONE    
 DFTTYP=NONE         TDDFT =NONE    
 MULT  =       1     ICHARG=       0     NZVAR =       0     COORD =UNIQUE  
 PP    =NONE         RELWFN=NONE         LOCAL =RUEDNBRG     NUMGRD=       F
 ISPHER=      -1     NOSYM =       0     MAXIT =      30     UNITS =ANGS    
 PLTORB=       F     MOLPLT=       F     AIMPAC=       F     FRIEND=        
 NPRINT=       7     IREST =       0     GEOM  =INPUT   
 NORMF =       0     NORMP =       0     ITOL  =      20     ICUT  =       9
 INTTYP=BEST         GRDTYP=BEST         QMTTOL= 1.0E-06

     $SYSTEM OPTIONS
     ---------------
  REPLICATED MEMORY=   100000000 WORDS (ON EVERY NODE).
 DISTRIBUTED MEMDDI=           0 MILLION WORDS IN AGGREGATE,
 MEMDDI DISTRIBUTED OVER   1 PROCESSORS IS           0 WORDS/PROCESSOR.
 TOTAL MEMORY REQUESTED ON EACH PROCESSOR=   100000000 WORDS.
 TIMLIM=      525600.00 MINUTES, OR     365.0 DAYS.
 PARALL= F  BALTYP=  DLB     KDIAG=    0  COREFL= F
 MXSEQ2=     300 MXSEQ3=     150  mem10=         0

          ----------------
          PROPERTIES INPUT
          ----------------

     MOMENTS            FIELD           POTENTIAL          DENSITY
 IEMOM =       1   IEFLD =       0   IEPOT =       0   IEDEN =       0
 WHERE =COMASS     WHERE =NUCLEI     WHERE =NUCLEI     WHERE =NUCLEI  
 OUTPUT=BOTH       OUTPUT=BOTH       OUTPUT=BOTH       OUTPUT=BOTH    
 IEMINT=       0   IEFINT=       0                     IEDINT=       0
                                                       MORB  =       0

     -------------------------------
     INTEGRAL TRANSFORMATION OPTIONS
     -------------------------------
     NWORD  =            0
     CUTOFF = 1.0E-09     MPTRAN =       0
     DIRTRF =       F     AOINTS =DUP     

          ----------------------
          MCSCF INPUT PARAMETERS
          ----------------------
 CONVERGER SELECTION: FOCAS = F  SOSCF = T  FULLNR = F  QUD = F  JACOBI = F
 SECULAR EQUATION METHOD CISTEP = ALDET   
 --- GENERAL INPUT OPTIONS:
 MAXIT =      60  MICIT =       5  ACURCY= 1.000E-05
 DAMP  =   0.000  CANONC=       T  ENGTOL= 1.000E-10
 EKT   =       F  NPUNCH=       2  NWORD =         0
 REGENERATE CI AFTER CONVERGENCE = NONE    
 DIABATIZATION AFTER CONVERGENCE =        F
 --- INPUT FOR SOSCF CONVERGER:
 FORS  =       T  NOFO  =       1

          -----------------------------
          LOCALIZATION INPUT PARAMETERS
          -----------------------------
           LOCAL=RUEDNBRG      NOUTA=      45
          PRTLOC=       F      NOUTB=       0
          MAXLOC=     250     CVGLOC=1.00E-06
           FCORE=       T     SYMLOC=       F
          MOIDON=       F     EDCOMP=       F
          DIPDCM=       F      NPROT=       0
          QADDCM=       F     DEPRNT=       F
          POLNUM=       F     ORIENT=       T
          POLDYN=       F      VMTOL=1.50E-01
          NPRDTL=       2
          MOOUTA =      1    2    3    4    5    6    7    8    9   10   11   12
                       13   14   15   16   17   18   19   20   21   22   23   24
                       25   26   27   28   29   30   31   32   33   34   35   36
                       37   38   39   40   41   42   43   44   45

          ----------------------
          INTEGRAL INPUT OPTIONS
          ----------------------
 NOPK  =       1 NORDER=       0 SCHWRZ=       T

     ------------------------------------------
     THE POINT GROUP IS CNV, NAXIS= 2, ORDER= 4
     ------------------------------------------

     DIMENSIONS OF THE SYMMETRY SUBSPACES ARE
 A1  =   65     A2  =   34     B1  =   48     B2  =   48

 ..... DONE SETTING UP THE RUN .....
 STEP CPU TIME =     0.47 TOTAL CPU TIME =        0.5 (    0.0 MIN)
 TOTAL WALL CLOCK TIME=        5.7 SECONDS, CPU UTILIZATION IS   8.27%

                    --------------------------------
                    SINGLE POINT ENERGY AND GRADIENT
                    --------------------------------

          ********************
          1 ELECTRON INTEGRALS
          ********************
 TIME TO DO   DIPOLE INTEGRALS=      0.05
 ...... END OF ONE-ELECTRON INTEGRALS ......
 STEP CPU TIME =     0.05 TOTAL CPU TIME =        0.5 (    0.0 MIN)
 TOTAL WALL CLOCK TIME=        5.7 SECONDS, CPU UTILIZATION IS   9.08%

          -------------
          GUESS OPTIONS
          -------------
          GUESS =MOREAD            NORB  =     195          NORDER=       0
          MIX   =       F          PRTMO =       F          PUNMO =       F
          TOLZ  = 1.0E-08          TOLE  = 1.0E-05
          SYMDEN=       F          PURIFY=       F

 INITIAL GUESS ORBITALS GENERATED BY MOREAD   ROUTINE.

 SYMMETRIES FOR INITIAL GUESS ORBITALS FOLLOW.   BOTH SET(S).
    69 ORBITALS ARE OCCUPIED (   45 CORE ORBITALS).
     1=A2       2=B1       3=B2       4=A1       5=A1       6=B2       7=A1  
     8=B1       9=A1      10=B2      11=A2      12=A1      13=B1      14=A1  
    15=B2      16=A1      17=A1      18=B1      19=A2      20=B1      21=B2  
    22=A1      23=B1      24=A2      25=B2      26=A1      27=A2      28=B2  
    29=B1      30=A1      31=B1      32=A1      33=B2      34=A1      35=B2  
    36=A2      37=B1      38=A1      39=B2      40=A1      41=B1      42=A1  
    43=B2      44=A2      45=B1      46=A1      47=B2      48=B1      49=A1  
    50=A2      51=B2      52=A1      53=A1      54=B1      55=A1      56=B2  
    57=B1      58=A2      59=B1      60=B2      61=A1      62=A2      63=A1  
    64=B2      65=B1      66=B2      67=A2      68=A1      69=A1      70=B1  
    71=B1      72=A1      73=B2      74=A1      75=B1      76=A1      77=A2  
    78=B2      79=B1      80=A1      81=B2      82=B2      83=A2      84=B1  
    85=A1      86=A1      87=A2      88=B2      89=A1      90=B1      91=B2  
    92=A1      93=A2      94=B1      95=A1      96=B2      97=A1      98=B1  
    99=A2     100=B2     101=A1     102=B2     103=B1     104=A1     105=B1  
   106=A2     107=B2     108=B1     109=A1     110=A2     111=B1     112=A1  
   113=B2     114=A2     115=B1     116=A1     117=B2     118=A1     119=B1  
   120=A2     121=B2     122=A1     123=B1     124=A1     125=B2     126=A2  
   127=B1     128=B2     129=A1     130=A2     131=B1     132=B2     133=A1  
   134=A2     135=B2     136=A1     137=B1     138=A2     139=B2     140=A1  
   141=B2     142=A2     143=A1     144=A2     145=A1     146=B1     147=A1  
   148=B1     149=B2     150=A1     151=B2     152=B1     153=A2     154=A1  
   155=B1     156=A1     157=B2     158=A2     159=B2     160=B1     161=A1  
   162=A1     163=B2     164=B1     165=B1     166=A1     167=A2     168=A2  
   169=A1     170=B2     171=B1     172=B2     173=A2     174=B1     175=A1  
   176=A2     177=B1     178=B2     179=A1     180=B1     181=A1     182=B2  
   183=B2     184=A1     185=A2     186=B1     187=A1     188=B1     189=B2  
   190=A1     191=A2     192=A1     193=A1     194=B1     195=B2  
 ...... END OF INITIAL ORBITAL SELECTION ......
 STEP CPU TIME =     0.11 TOTAL CPU TIME =        0.6 (    0.0 MIN)
 TOTAL WALL CLOCK TIME=        5.8 SECONDS, CPU UTILIZATION IS  10.79%

                    ----------------------
                    AO INTEGRAL TECHNOLOGY
                    ----------------------
     S,P,L SHELL ROTATED AXIS INTEGRALS, REPROGRAMMED BY
        KAZUYA ISHIMURA (IMS) AND JOSE SIERRA (SYNSTAR).
     S,P,D,L SHELL ROTATED AXIS INTEGRALS PROGRAMMED BY
        KAZUYA ISHIMURA (INSTITUTE FOR MOLECULAR SCIENCE).
     S,P,D,F,G SHELL TO TOTAL QUARTET ANGULAR MOMENTUM SUM 5,
        ERIC PROGRAM BY GRAHAM FLETCHER (ELORET AND NASA ADVANCED
        SUPERCOMPUTING DIVISION, AMES RESEARCH CENTER).
     S,P,D,F,G,L SHELL GENERAL RYS QUADRATURE PROGRAMMED BY
        MICHEL DUPUIS (PACIFIC NORTHWEST NATIONAL LABORATORY).

          --------------------
          2 ELECTRON INTEGRALS
          --------------------

 THE -PK- OPTION IS OFF, THE INTEGRALS ARE NOT IN SUPERMATRIX FORM.
 STORING   15000 INTEGRALS/RECORD ON DISK, USING 12 BYTES/INTEGRAL.
 TWO ELECTRON INTEGRAL EVALUATION REQUIRES   92811 WORDS OF MEMORY.
 SCHWARZ INEQUALITY OVERHEAD:     18487 INTEGRALS, T=        0.02
 II,JST,KST,LST =  1  1  1  1 NREC =         1 INTLOC =    1
 II,JST,KST,LST =  2  1  1  1 NREC =         1 INTLOC =    1
 II,JST,KST,LST =  3  1  1  1 NREC =         1 INTLOC =    1
 II,JST,KST,LST =  4  1  1  1 NREC =         1 INTLOC =    1
 II,JST,KST,LST =  5  1  1  1 NREC =         1 INTLOC =    1
 II,JST,KST,LST =  6  1  1  1 NREC =         1 INTLOC =    1
 II,JST,KST,LST =  7  1  1  1 NREC =         1 INTLOC =    3
 II,JST,KST,LST =  8  1  1  1 NREC =         1 INTLOC =  171
 II,JST,KST,LST =  9  1  1  1 NREC =         1 INTLOC = 2031
 II,JST,KST,LST = 10  1  1  1 NREC =         1 INTLOC = 8602
 II,JST,KST,LST = 11  1  1  1 NREC =         3 INTLOC = 6176
 II,JST,KST,LST = 12  1  1  1 NREC =         3 INTLOC = 6176
 II,JST,KST,LST = 13  1  1  1 NREC =         3 INTLOC = 6176
 II,JST,KST,LST = 14  1  1  1 NREC =         3 INTLOC = 6176
 II,JST,KST,LST = 15  1  1  1 NREC =         3 INTLOC = 6176
 II,JST,KST,LST = 16  1  1  1 NREC =         3 INTLOC = 6176
 II,JST,KST,LST = 17  1  1  1 NREC =         3 INTLOC = 6176
 II,JST,KST,LST = 18  1  1  1 NREC =         3 INTLOC = 6176
 II,JST,KST,LST = 19  1  1  1 NREC =         3 INTLOC = 6176
 II,JST,KST,LST = 20  1  1  1 NREC =         3 INTLOC = 6176
 II,JST,KST,LST = 21  1  1  1 NREC =         3 INTLOC = 6176
 II,JST,KST,LST = 22  1  1  1 NREC =         3 INTLOC = 6176
 II,JST,KST,LST = 23  1  1  1 NREC =         3 INTLOC = 6176
 II,JST,KST,LST = 24  1  1  1 NREC =         3 INTLOC = 6176
 II,JST,KST,LST = 25  1  1  1 NREC =         3 INTLOC = 6176
 II,JST,KST,LST = 26  1  1  1 NREC =         3 INTLOC = 6176
 II,JST,KST,LST = 27  1  1  1 NREC =         4 INTLOC = 9054
 II,JST,KST,LST = 28  1  1  1 NREC =        14 INTLOC = 2057
 II,JST,KST,LST = 29  1  1  1 NREC =        42 INTLOC = 4855
 II,JST,KST,LST = 30  1  1  1 NREC =       102 INTLOC =12531
 II,JST,KST,LST = 31  1  1  1 NREC =       242 INTLOC = 7998
 II,JST,KST,LST = 32  1  1  1 NREC =       242 INTLOC = 7998
 II,JST,KST,LST = 33  1  1  1 NREC =       242 INTLOC = 7998
 II,JST,KST,LST = 34  1  1  1 NREC =       242 INTLOC = 7998
 II,JST,KST,LST = 35  1  1  1 NREC =       242 INTLOC = 7998
 II,JST,KST,LST = 36  1  1  1 NREC =       242 INTLOC = 7998
 II,JST,KST,LST = 37  1  1  1 NREC =       252 INTLOC = 9075
 II,JST,KST,LST = 38  1  1  1 NREC =       311 INTLOC =10092
 II,JST,KST,LST = 39  1  1  1 NREC =       422 INTLOC = 2378
 II,JST,KST,LST = 40  1  1  1 NREC =       567 INTLOC =13106
 II,JST,KST,LST = 41  1  1  1 NREC =       798 INTLOC = 9322
 II,JST,KST,LST = 42  1  1  1 NREC =       808 INTLOC =14209
 II,JST,KST,LST = 43  1  1  1 NREC =       873 INTLOC =13191
 II,JST,KST,LST = 44  1  1  1 NREC =       984 INTLOC =13281
 II,JST,KST,LST = 45  1  1  1 NREC =      1112 INTLOC = 5680
 II,JST,KST,LST = 46  1  1  1 NREC =      1292 INTLOC = 6290
 II,JST,KST,LST = 47  1  1  1 NREC =      1292 INTLOC = 6290
 II,JST,KST,LST = 48  1  1  1 NREC =      1292 INTLOC = 6290
 II,JST,KST,LST = 49  1  1  1 NREC =      1292 INTLOC = 6290
 II,JST,KST,LST = 50  1  1  1 NREC =      1292 INTLOC = 6290
 II,JST,KST,LST = 51  1  1  1 NREC =      1292 INTLOC = 6290
 II,JST,KST,LST = 52  1  1  1 NREC =      1292 INTLOC = 6290
 II,JST,KST,LST = 53  1  1  1 NREC =      1370 INTLOC =  812
 II,JST,KST,LST = 54  1  1  1 NREC =      1501 INTLOC =11456
 II,JST,KST,LST = 55  1  1  1 NREC =      1501 INTLOC =11456
 II,JST,KST,LST = 56  1  1  1 NREC =      1501 INTLOC =11456
 II,JST,KST,LST = 57  1  1  1 NREC =      1501 INTLOC =11456
 II,JST,KST,LST = 58  1  1  1 NREC =      1501 INTLOC =11456
 II,JST,KST,LST = 59  1  1  1 NREC =      1501 INTLOC =11456
 II,JST,KST,LST = 60  1  1  1 NREC =      1501 INTLOC =11456
 II,JST,KST,LST = 61  1  1  1 NREC =      1592 INTLOC = 7085
 II,JST,KST,LST = 62  1  1  1 NREC =      1745 INTLOC =14526
 II,JST,KST,LST = 63  1  1  1 NREC =      1745 INTLOC =14526
 II,JST,KST,LST = 64  1  1  1 NREC =      1745 INTLOC =14526
 II,JST,KST,LST = 65  1  1  1 NREC =      1792 INTLOC = 8614
 II,JST,KST,LST = 66  1  1  1 NREC =      1872 INTLOC = 6260
 II,JST,KST,LST = 67  1  1  1 NREC =      1872 INTLOC = 6260
 II,JST,KST,LST = 68  1  1  1 NREC =      1872 INTLOC = 6260
 II,JST,KST,LST = 69  1  1  1 NREC =      1925 INTLOC = 8404
 SCHWARZ INEQUALITY TEST SKIPPED      320789 INTEGRAL BLOCKS.
 TOTAL NUMBER OF NONZERO TWO-ELECTRON INTEGRALS =            30220916
       2015 INTEGRAL RECORDS WERE STORED ON DISK FILE  8.
  ...... END OF TWO-ELECTRON INTEGRALS .....
 STEP CPU TIME =     1.98 TOTAL CPU TIME =        2.6 (    0.0 MIN)
 TOTAL WALL CLOCK TIME=        8.0 SECONDS, CPU UTILIZATION IS  32.67%

          -----------------
          MCSCF CALCULATION
          -----------------

 ----- NUCLEAR ENERGY ----- =      1362.3292482330

     --------------------------------------------------
          AMES LABORATORY DETERMINANTAL FULL CI
     PROGRAM WRITTEN BY JOE IVANIC AND KLAUS RUEDENBERG
     --------------------------------------------------

 THE POINT GROUP                  =   C2V     
 THE STATE SYMMETRY               =   A1      
 NUMBER OF CORE ORBITALS          =   67
 NUMBER OF ACTIVE ORBITALS        =    4
 NUMBER OF ALPHA ELECTRONS        =   69 (   2 ACTIVE)
 NUMBER OF BETA ELECTRONS         =   69 (   2 ACTIVE)
 NUMBER OF OCCUPIED ORBITALS      =   71
 NUMBER OF CI STATES REQUESTED    =    1
 NUMBER OF CI STARTING VECTORS    =    1
 MAX. NO. OF CI EXPANSION VECTORS =   10
 SIZE OF INITIAL CI GUESS MATRIX  =  300
 MAX. NO. OF CI ITERS/STATE       =  100
 CI DIAGONALIZATION CRITERION     = 1.00E-06
 PURE SPIN STATE AVERAGED 1E- AND 2E- DENSITY MATRIX OPTION=.T.
 STATE=   1 DM2 WEIGHT=   1.00000

 CORRELATION ENERGY ANALYSIS      =    F

 SYMMETRIES FOR THE  67 CORE,   4 ACTIVE ARE

     CORE= A2    B1    B2    A1    A1    B2    A1    B1    A1    B2  
           A2    A1    B1    A1    B2    A1    A1    B1    A2    B1  
           B2    A1    B1    A2    B2    A1    A2    B2    B1    A1  
           B1    A1    B2    A1    B2    A2    B1    A1    B2    A1  
           B1    A1    B2    A2    B1    A1    B2    B1    A1    A2  
           B2    A1    A1    B1    A1    B2    B1    A2    B1    B2  
           A1    A2    A1    B2    B1    B2    A2  

   ACTIVE= A1    A1    B1    B1  
 OPENING FILE DAFL30 WITH      81 LOGICAL RECORDS OF   38025 WORDS
 WITH A MAXIMUM OF        1539 PHYSICAL RECORDS OF    2048 WORDS

          ------------------------------
          CASSCF INTEGRAL TRANSFORMATION
          ------------------------------
 AO INTEGRALS WILL BE READ IN FROM DISK...

 NUMBER OF CORE MOLECULAR ORBITALS     =    67
 NUMBER OF OCCUPIED MOLECULAR ORBITALS =    71
 TOTAL NUMBER OF MOLECULAR ORBITALS    =   195
 TOTAL NUMBER OF ATOMIC ORBITALS       =   195

 ----- CHOOSING THREE STEPS TRANSFORMATION -----
 NUMBER OF WORDS USED      =   15260671
 NUMBER OF WORDS AVAILABLE =  100000000
 NUMBER OF PASSES          =          1

 ----- NUCLEAR REPULSION ENERGY =   1362.32924823
 ----- FROZEN CORE ENERGY       =  -3966.30417464

 ... SYMMETRY ...           CPU =    0.06
 ... (PQ|RS) -> (PQ|KL) ... CPU =    1.36
 ... (PQ|KL) -> (IJ|KL) ... CPU =    0.02

 NUMBER OF (PQ|KL) INTEGRALS WRITTEN     156771
 NUMBER OF (IJ|KL) INTEGRALS WRITTEN         31
 ..... END OF CAS INTEGRAL TRANSFORMATION .....
 STEP CPU TIME =     1.47 TOTAL CPU TIME =        4.1 (    0.1 MIN)
 TOTAL WALL CLOCK TIME=       23.7 SECONDS, CPU UTILIZATION IS  17.21%

     --------------------------------------------------
          AMES LABORATORY DETERMINANTAL FULL CI
     PROGRAM WRITTEN BY JOE IVANIC AND KLAUS RUEDENBERG
     --------------------------------------------------

 THE NUMBER OF DETERMINANTS HAVING SPACE SYMMETRY A1 
 IN POINT GROUP C2V  WITH SZ=  0.0 IS             20
 THE DETERMINANT FULL CI REQUIRES          209361 WORDS
 SMALL CI MATRIX, JUST USING INCORE DIAGONALIZATION...

 CI EIGENVECTORS WILL BE LABELED IN GROUP=C2V     
 PRINTING ALL NON-ZERO CI COEFFICIENTS

 STATE   1  ENERGY=     -2607.2434939540  S=  0.00  SZ=  0.00  SPACE SYM=A1  

ALPHA |BETA  | CI COEFFICIENT
------|------|---------------
 1100 | 1100 |                                                                                                       0.9258842947
 1010 | 1010 |                                                                                                      -0.3555923877
 0101 | 0101 |                                                                                                      -0.0702374899
 1010 | 0101 |                                                                                                       0.0554802752
 0101 | 1010 |                                                                                                       0.0554802752
 0011 | 0011 |                                                                                                       0.0375947040
 0110 | 1001 |                                                                                                       0.0313730826
 1001 | 0110 |                                                                                                       0.0313730826
 1100 | 0011 |                                                                                                       0.0241071926
 0011 | 1100 |                                                                                                       0.0241071926
 1001 | 1001 |                                                                                                      -0.0156767742
 0101 | 0110 |                                                                                                      -0.0130223503
 0110 | 0101 |                                                                                                      -0.0130223503
 1001 | 0101 |                                                                                                      -0.0046881852
 0101 | 1001 |                                                                                                      -0.0046881852
 0110 | 0110 |                                                                                                      -0.0045996164
 1010 | 0110 |                                                                                                      -0.0017527522
 0110 | 1010 |                                                                                                      -0.0017527522
 1010 | 1001 |                                                                                                       0.0011181311
 1001 | 1010 |                                                                                                       0.0011181311
 ..... DONE WITH DETERMINANT CI COMPUTATION .....
 STEP CPU TIME =     0.02 TOTAL CPU TIME =        4.1 (    0.1 MIN)
 TOTAL WALL CLOCK TIME=       24.0 SECONDS, CPU UTILIZATION IS  17.05%

     --------------------------------------------------
      ONE AND TWO PARTICLE DENSITY MATRIX COMPUTATION
     PROGRAM WRITTEN BY JOE IVANIC AND KLAUS RUEDENBERG
     --------------------------------------------------

      33203 WORDS WILL BE USED TO FORM THE DENSITIES
 THE DENSITIES ARE STATE AVERAGED OVER   1 ROOT(S)
 STATE=   1   ENERGY=    -2607.2434939540   WEIGHT= 1.00000   S=  0.00
 SIEVING THE A1   SYMMETRY NONZERO DENSITY ELEMENTS IN GROUP C2V     
         31 NONZERO DM2 ELEMENTS WRITTEN IN       1 RECORDS TO FILE 15
 ..... DONE WITH 1 AND 2 PARTICLE DENSITY MATRIX .....
 STEP CPU TIME =     0.00 TOTAL CPU TIME =        4.1 (    0.1 MIN)
 TOTAL WALL CLOCK TIME=       24.2 SECONDS, CPU UTILIZATION IS  16.94%

          --------------------------------------
          APPROXIMATE SECOND-ORDER MCSCF PROGRAM
          --------------------------------------
          PROGRAM WRITTEN BY G.CHABAN, A.MARQUEZ, AND M.DUPUIS

  NUMBER OF WORDS NEEDED     =     467840
  NUMBER AVAILABLE           =  100000000

 ----- GAMMA(IJKL)*(PQ|KL) PRODUCTS ----- CPU TIME =      0.000
 ----- ORBITAL SYMMETRY             ----- CPU TIME =      0.020
 ----- FOCK OPERATORS CONSTRUCTION  ----- CPU TIME =      0.360
 ----- WARNING : CORE-ACTIVE GAP    =    0.14263
     MICIT =   1 ASYMM =    0.000001 ROTMAX =    0.000000
 ----- EFFECTIVE FOCK + ROTATE ORBS ----- CPU TIME =      0.020
 ..... DONE WITH CASSCF ORBITAL UPDATE .....
 STEP CPU TIME =     0.40 TOTAL CPU TIME =        4.5 (    0.1 MIN)
 TOTAL WALL CLOCK TIME=       24.7 SECONDS, CPU UTILIZATION IS  18.23%

 ITER     TOTAL ENERGY      DEL(E)  LAGRANGIAN ASYMMETRY   SQCDF  MICIT   DAMP
   1    -2607.243493954 -0.243493954  0.000001  179   63 2.878E-07  1   0.0000
       ----------START APPROXIMATE SECOND ORDER MCSCF----------
   2    -2607.243493954 -0.000000000  0.000001   80   61 1.577E-11  1   0.0000

          --------------------
          LAGRANGIAN CONVERGED
          --------------------

 FINAL MCSCF ENERGY IS    -2607.2434939540 AFTER   2 ITERATIONS

 -MCCI- BASED ON OPTIMIZED ORBITALS
 ----------------------------------

 PLEASE NOTE: IF THE ACTIVE ORBITALS ARE CANONICALIZED BELOW,
 THE FOLLOWING CI EXPANSION COEFFICIENTS AND THE DENSITY DO NOT
 CORRESPOND TO THE PRINTED ORBITALS.  THE PRINTED EXPANSIONS MATCH
 THE ORBITALS USED DURING THE LAST ITERATION.  IF YOU WISH TO SEE
 CI EXPANSIONS BASED ON THE CANONICAL (OR NATURAL) ORBITALS, YOU
 MUST RUN A CI CALCULATION WITH THAT ORBITAL CHOICE READ IN $VEC.

 CI EIGENVECTORS WILL BE LABELED IN GROUP=C2V     
 PRINTING ALL NON-ZERO CI COEFFICIENTS

 STATE   1  ENERGY=     -2607.2434939540  S=  0.00  SZ=  0.00  SPACE SYM=A1  

ALPHA |BETA  | CI COEFFICIENT
------|------|---------------
 1100 | 1100 |                                                                                                       0.9258842992
 1010 | 1010 |                                                                                                      -0.3555923699
 0101 | 0101 |                                                                                                      -0.0702374859
 1010 | 0101 |                                                                                                       0.0554802893
 0101 | 1010 |                                                                                                       0.0554802893
 0011 | 0011 |                                                                                                       0.0375947084
 1001 | 0110 |                                                                                                       0.0313730875
 0110 | 1001 |                                                                                                       0.0313730875
 0011 | 1100 |                                                                                                       0.0241072018
 1100 | 0011 |                                                                                                       0.0241072018
 1001 | 1001 |                                                                                                      -0.0156767798
 0101 | 0110 |                                                                                                      -0.0130223500
 0110 | 0101 |                                                                                                      -0.0130223500
 1001 | 0101 |                                                                                                      -0.0046881782
 0101 | 1001 |                                                                                                      -0.0046881782
 0110 | 0110 |                                                                                                      -0.0045996246
 1010 | 0110 |                                                                                                      -0.0017527493
 0110 | 1010 |                                                                                                      -0.0017527493
 1001 | 1010 |                                                                                                       0.0011181207
 1010 | 1001 |                                                                                                       0.0011181207

 DENSITY MATRIX OVER ACTIVE MO-S

             1           2           3           4

    1    1.9772489
    2    0.0000004   1.7344478
    3    0.0000000   0.0000000   0.2654018
    4    0.0000000   0.0000000   0.0000000   0.0229014

 FORMING THE "STANDARD FOCK OPERATOR" USING INTEGRALS FROM DISK...
 ONLY THE   67 CORE AND  124 VIRTUAL ORBITALS WILL BE CANONICALIZED

          ----------------------
          MCSCF NATURAL ORBITALS
          ----------------------

                      1          2          3          4          5
                  -68.7762   -68.7762   -68.7762   -68.7762   -68.7718
                     A2         B1         B2         A1         A1  
    1  SI 1  S    0.000000  -0.000028   0.000000  -0.000108   0.000001
    2  SI 1  S    0.000000  -0.000019   0.000000  -0.000008   0.000002
    3  SI 1  X    0.000000  -0.000007   0.000000   0.000003   0.000003
    4  SI 1  Y   -0.000008   0.000000  -0.000009  -0.000000   0.000000
    5  SI 1  Z    0.000000  -0.000007   0.000000  -0.000010  -0.000005
    6  SI 1  S    0.000000   0.000029   0.000000   0.000187   0.000032
    7  SI 1  X    0.000000   0.000008   0.000000  -0.000076  -0.000014
    8  SI 1  Y   -0.000089   0.000000  -0.000071  -0.000000   0.000000
    9  SI 1  Z    0.000000  -0.000021   0.000000  -0.000002   0.000024
   10  SI 1  S    0.000000   0.000396   0.000000  -0.000167   0.000056
   11  SI 1  X    0.000000   0.000116   0.000000   0.000024  -0.000033
   12  SI 1  Y    0.000313   0.000000   0.000205  -0.000000   0.000000
   13  SI 1  Z    0.000000  -0.000251   0.000000  -0.000034  -0.000025
   14  SI 1 XX    0.000000  -0.000010   0.000000  -0.000062  -0.000002
   15  SI 1 YY    0.000000  -0.000048   0.000000  -0.000068   0.000001
   16  SI 1 ZZ    0.000000  -0.000055   0.000000  -0.000079  -0.000030
   17  SI 1 XY   -0.000016   0.000000   0.000007  -0.000000   0.000000
   18  SI 1 XZ    0.000000  -0.000007   0.000000   0.000018   0.000023
   19  SI 1 YZ   -0.000023   0.000000  -0.000027  -0.000000   0.000000
   20  SI 2  S    0.000000   0.000028   0.000000  -0.000108   0.000001
   21  SI 2  S    0.000000   0.000019   0.000000  -0.000008   0.000002
   22  SI 2  X    0.000000  -0.000007   0.000000  -0.000003  -0.000003
   23  SI 2  Y    0.000008   0.000000  -0.000009  -0.000000   0.000000
   24  SI 2  Z    0.000000   0.000007   0.000000  -0.000010  -0.000005
   25  SI 2  S    0.000000  -0.000029   0.000000   0.000187   0.000032
   26  SI 2  X    0.000000   0.000008   0.000000   0.000076   0.000014
   27  SI 2  Y    0.000089   0.000000  -0.000071  -0.000000   0.000000
   28  SI 2  Z    0.000000   0.000021   0.000000  -0.000002   0.000024
   29  SI 2  S    0.000000  -0.000396   0.000000  -0.000167   0.000056
   30  SI 2  X    0.000000   0.000116   0.000000  -0.000024   0.000033
   31  SI 2  Y   -0.000313   0.000000   0.000205  -0.000000   0.000000
   32  SI 2  Z    0.000000   0.000251   0.000000  -0.000034  -0.000025
   33  SI 2 XX    0.000000   0.000010   0.000000  -0.000062  -0.000002
   34  SI 2 YY    0.000000   0.000048   0.000000  -0.000068   0.000001
   35  SI 2 ZZ    0.000000   0.000055   0.000000  -0.000079  -0.000030
   36  SI 2 XY   -0.000016   0.000000  -0.000007  -0.000000   0.000000
   37  SI 2 XZ    0.000000  -0.000007   0.000000  -0.000018  -0.000023
   38  SI 2 YZ    0.000023   0.000000  -0.000027  -0.000000   0.000000
   39  SI 3  S    0.498429   0.498430   0.498430   0.498431   0.000132
   40  SI 3  S    0.006212   0.006226   0.006216   0.006224   0.000007
   41  SI 3  X    0.000006   0.000008   0.000009   0.000009   0.000003
   42  SI 3  Y    0.000005   0.000012   0.000008   0.000010   0.000003
   43  SI 3  Z    0.000000   0.000001  -0.000002  -0.000002  -0.000003
   44  SI 3  S   -0.008582  -0.008480  -0.008512  -0.008430   0.000074
   45  SI 3  X   -0.000031  -0.000042  -0.000066  -0.000068  -0.000021
   46  SI 3  Y   -0.000025  -0.000065  -0.000044  -0.000052  -0.000015
   47  SI 3  Z    0.000009  -0.000003   0.000023   0.000023   0.000018
   48  SI 3  S    0.001662   0.001027   0.001282   0.001050  -0.000305
   49  SI 3  X    0.000258   0.000221   0.000070   0.000089  -0.000051
   50  SI 3  Y    0.000204  -0.000026   0.000231   0.000057  -0.000069
   51  SI 3  Z   -0.000024   0.000047  -0.000028  -0.000020   0.000115
   52  SI 3 XX    0.002941   0.002939   0.002921   0.002922  -0.000017
   53  SI 3 YY    0.002953   0.002920   0.002939   0.002914  -0.000006
   54  SI 3 ZZ    0.002936   0.002949   0.002925   0.002931  -0.000019
   55  SI 3 XY    0.000002  -0.000003   0.000000   0.000000  -0.000011
   56  SI 3 XZ   -0.000003  -0.000005   0.000005   0.000003   0.000012
   57  SI 3 YZ    0.000002   0.000000   0.000010   0.000004   0.000014
   58  SI 4  S   -0.498429  -0.498430   0.498430   0.498431   0.000132
   59  SI 4  S   -0.006212  -0.006226   0.006216   0.006224   0.000007
   60  SI 4  X    0.000006   0.000008  -0.000009  -0.000009  -0.000003
   61  SI 4  Y   -0.000005  -0.000012   0.000008   0.000010   0.000003
   62  SI 4  Z   -0.000000  -0.000001  -0.000002  -0.000002  -0.000003
   63  SI 4  S    0.008582   0.008480  -0.008512  -0.008430   0.000074
   64  SI 4  X   -0.000031  -0.000042   0.000066   0.000068   0.000021
   65  SI 4  Y    0.000025   0.000065  -0.000044  -0.000052  -0.000015
   66  SI 4  Z   -0.000009   0.000003   0.000023   0.000023   0.000018
   67  SI 4  S   -0.001662  -0.001027   0.001282   0.001050  -0.000305
   68  SI 4  X    0.000258   0.000221  -0.000070  -0.000089   0.000051
   69  SI 4  Y   -0.000204   0.000026   0.000231   0.000057  -0.000069
   70  SI 4  Z    0.000024  -0.000047  -0.000028  -0.000020   0.000115
   71  SI 4 XX   -0.002941  -0.002939   0.002921   0.002922  -0.000017
   72  SI 4 YY   -0.002953  -0.002920   0.002939   0.002914  -0.000006
   73  SI 4 ZZ   -0.002936  -0.002949   0.002925   0.002931  -0.000019
   74  SI 4 XY    0.000002  -0.000003  -0.000000  -0.000000   0.000011
   75  SI 4 XZ   -0.000003  -0.000005  -0.000005  -0.000003  -0.000012
   76  SI 4 YZ   -0.000002  -0.000000   0.000010   0.000004   0.000014
   77  SI 5  S   -0.498429   0.498430  -0.498430   0.498431   0.000132
   78  SI 5  S   -0.006212   0.006226  -0.006216   0.006224   0.000007
   79  SI 5  X   -0.000006   0.000008  -0.000009   0.000009   0.000003
   80  SI 5  Y    0.000005  -0.000012   0.000008  -0.000010  -0.000003
   81  SI 5  Z   -0.000000   0.000001   0.000002  -0.000002  -0.000003
   82  SI 5  S    0.008582  -0.008480   0.008512  -0.008430   0.000074
   83  SI 5  X    0.000031  -0.000042   0.000066  -0.000068  -0.000021
   84  SI 5  Y   -0.000025   0.000065  -0.000044   0.000052   0.000015
   85  SI 5  Z   -0.000009  -0.000003  -0.000023   0.000023   0.000018
   86  SI 5  S   -0.001662   0.001027  -0.001282   0.001050  -0.000305
   87  SI 5  X   -0.000258   0.000221  -0.000070   0.000089  -0.000051
   88  SI 5  Y    0.000204   0.000026   0.000231  -0.000057   0.000069
   89  SI 5  Z    0.000024   0.000047   0.000028  -0.000020   0.000115
   90  SI 5 XX   -0.002941   0.002939  -0.002921   0.002922  -0.000017
   91  SI 5 YY   -0.002953   0.002920  -0.002939   0.002914  -0.000006
   92  SI 5 ZZ   -0.002936   0.002949  -0.002925   0.002931  -0.000019
   93  SI 5 XY    0.000002   0.000003   0.000000  -0.000000   0.000011
   94  SI 5 XZ    0.000003  -0.000005  -0.000005   0.000003   0.000012
   95  SI 5 YZ    0.000002  -0.000000   0.000010  -0.000004  -0.000014
   96  SI 6  S    0.498429  -0.498430  -0.498430   0.498431   0.000132
   97  SI 6  S    0.006212  -0.006226  -0.006216   0.006224   0.000007
   98  SI 6  X   -0.000006   0.000008   0.000009  -0.000009  -0.000003
   99  SI 6  Y   -0.000005   0.000012   0.000008  -0.000010  -0.000003
  100  SI 6  Z    0.000000  -0.000001   0.000002  -0.000002  -0.000003
  101  SI 6  S   -0.008582   0.008480   0.008512  -0.008430   0.000074
  102  SI 6  X    0.000031  -0.000042  -0.000066   0.000068   0.000021
  103  SI 6  Y    0.000025  -0.000065  -0.000044   0.000052   0.000015
  104  SI 6  Z    0.000009   0.000003  -0.000023   0.000023   0.000018
  105  SI 6  S    0.001662  -0.001027  -0.001282   0.001050  -0.000305
  106  SI 6  X   -0.000258   0.000221   0.000070  -0.000089   0.000051
  107  SI 6  Y   -0.000204  -0.000026   0.000231  -0.000057   0.000069
  108  SI 6  Z   -0.000024  -0.000047   0.000028  -0.000020   0.000115
  109  SI 6 XX    0.002941  -0.002939  -0.002921   0.002922  -0.000017
  110  SI 6 YY    0.002953  -0.002920  -0.002939   0.002914  -0.000006
  111  SI 6 ZZ    0.002936  -0.002949  -0.002925   0.002931  -0.000019
  112  SI 6 XY    0.000002   0.000003  -0.000000   0.000000  -0.000011
  113  SI 6 XZ    0.000003  -0.000005   0.000005  -0.000003  -0.000012
  114  SI 6 YZ   -0.000002   0.000000   0.000010  -0.000004  -0.000014
  115  SI 7  S    0.000000   0.000000  -0.000148  -0.000126  -0.000282
  116  SI 7  S    0.000000   0.000000  -0.000020  -0.000014  -0.000020
  117  SI 7  X   -0.000006  -0.000006   0.000000  -0.000000   0.000000
  118  SI 7  Y    0.000000   0.000000   0.000003   0.000003   0.000010
  119  SI 7  Z    0.000000   0.000000   0.000009   0.000009  -0.000000
  120  SI 7  S    0.000000   0.000000   0.000104   0.000105   0.000091
  121  SI 7  X   -0.000073  -0.000081   0.000000  -0.000000   0.000000
  122  SI 7  Y    0.000000   0.000000  -0.000030  -0.000013   0.000063
  123  SI 7  Z    0.000000   0.000000   0.000033   0.000041  -0.000083
  124  SI 7  S    0.000000   0.000000  -0.000028   0.000241   0.000229
  125  SI 7  X    0.000228   0.000028   0.000000  -0.000000   0.000000
  126  SI 7  Y    0.000000   0.000000   0.000093   0.000204  -0.000009
  127  SI 7  Z    0.000000   0.000000   0.000094  -0.000084   0.000199
  128  SI 7 XX    0.000000   0.000000  -0.000068  -0.000046  -0.000038
  129  SI 7 YY    0.000000   0.000000  -0.000061  -0.000039  -0.000068
  130  SI 7 ZZ    0.000000   0.000000  -0.000057  -0.000050  -0.000040
  131  SI 7 XY    0.000006   0.000001   0.000000  -0.000000   0.000000
  132  SI 7 XZ    0.000018   0.000015   0.000000  -0.000000   0.000000
  133  SI 7 YZ    0.000000   0.000000  -0.000011  -0.000020   0.000000
  134  SI 8  S    0.000000   0.000000   0.000148  -0.000126  -0.000282
  135  SI 8  S    0.000000   0.000000   0.000020  -0.000014  -0.000020
  136  SI 8  X    0.000006  -0.000006   0.000000  -0.000000   0.000000
  137  SI 8  Y    0.000000   0.000000   0.000003  -0.000003  -0.000010
  138  SI 8  Z    0.000000   0.000000  -0.000009   0.000009  -0.000000
  139  SI 8  S    0.000000   0.000000  -0.000104   0.000105   0.000091
  140  SI 8  X    0.000073  -0.000081   0.000000  -0.000000   0.000000
  141  SI 8  Y    0.000000   0.000000  -0.000030   0.000013  -0.000063
  142  SI 8  Z    0.000000   0.000000  -0.000033   0.000041  -0.000083
  143  SI 8  S    0.000000   0.000000   0.000028   0.000241   0.000229
  144  SI 8  X   -0.000228   0.000028   0.000000  -0.000000   0.000000
  145  SI 8  Y    0.000000   0.000000   0.000093  -0.000204   0.000009
  146  SI 8  Z    0.000000   0.000000  -0.000094  -0.000084   0.000199
  147  SI 8 XX    0.000000   0.000000   0.000068  -0.000046  -0.000038
  148  SI 8 YY    0.000000   0.000000   0.000061  -0.000039  -0.000068
  149  SI 8 ZZ    0.000000   0.000000   0.000057  -0.000050  -0.000040
  150  SI 8 XY    0.000006  -0.000001   0.000000  -0.000000   0.000000
  151  SI 8 XZ   -0.000018   0.000015   0.000000  -0.000000   0.000000
  152  SI 8 YZ    0.000000   0.000000  -0.000011   0.000020  -0.000000
  153  SI 9  S    0.000000   0.000000   0.000000  -0.000260   0.996859
  154  SI 9  S    0.000000   0.000000   0.000000   0.000022   0.012450
  155  SI 9  X    0.000000  -0.000004   0.000000  -0.000000   0.000000
  156  SI 9  Y    0.000000   0.000000  -0.000004  -0.000000   0.000000
  157  SI 9  Z    0.000000   0.000000   0.000000   0.000007   0.000026
  158  SI 9  S    0.000000   0.000000   0.000000   0.000209  -0.016966
  159  SI 9  X    0.000000   0.000024   0.000000  -0.000000   0.000000
  160  SI 9  Y    0.000000   0.000000   0.000035  -0.000000   0.000000
  161  SI 9  Z    0.000000   0.000000   0.000000  -0.000030  -0.000130
  162  SI 9  S    0.000000   0.000000   0.000000  -0.000894   0.002285
  163  SI 9  X    0.000000   0.000131   0.000000  -0.000000   0.000000
  164  SI 9  Y    0.000000   0.000000   0.000024  -0.000000   0.000000
  165  SI 9  Z    0.000000   0.000000   0.000000  -0.000279   0.000305
  166  SI 9 XX    0.000000   0.000000   0.000000   0.000005   0.005878
  167  SI 9 YY    0.000000   0.000000   0.000000  -0.000008   0.005873
  168  SI 9 ZZ    0.000000   0.000000   0.000000  -0.000035   0.005874
  169  SI 9 XY   -0.000015   0.000000   0.000000  -0.000000   0.000000
  170  SI 9 XZ    0.000000   0.000018   0.000000  -0.000000   0.000000
  171  SI 9 YZ    0.000000   0.000000   0.000033  -0.000000   0.000000
  172  H 10  S   -0.000031  -0.000025  -0.000024  -0.000016   0.000006
  173  H 10  S    0.000052   0.000035   0.000086   0.000044  -0.000023
  174  H 11  S    0.000031   0.000025  -0.000024  -0.000016   0.000006
  175  H 11  S   -0.000052  -0.000035   0.000086   0.000044  -0.000023
  176  H 12  S    0.000031  -0.000025   0.000024  -0.000016   0.000006
  177  H 12  S   -0.000052   0.000035  -0.000086   0.000044  -0.000023
  178  H 13  S   -0.000031   0.000025   0.000024  -0.000016   0.000006
  179  H 13  S    0.000052  -0.000035  -0.000086   0.000044  -0.000023
  180  H 14  S   -0.000029  -0.000034  -0.000022  -0.000016  -0.000002
  181  H 14  S    0.000056   0.000159   0.000018   0.000046   0.000055
  182  H 15  S    0.000029   0.000034  -0.000022  -0.000016  -0.000002
  183  H 15  S   -0.000056  -0.000159   0.000018   0.000046   0.000055
  184  H 16  S    0.000029  -0.000034   0.000022  -0.000016  -0.000002
  185  H 16  S   -0.000056   0.000159  -0.000018   0.000046   0.000055
  186  H 17  S   -0.000029   0.000034   0.000022  -0.000016  -0.000002
  187  H 17  S    0.000056  -0.000159  -0.000018   0.000046   0.000055
  188  H 18  S    0.000000   0.000000  -0.000015   0.000002  -0.000012
  189  H 18  S    0.000000   0.000000   0.000043  -0.000049  -0.000031
  190  H 19  S    0.000000   0.000000   0.000015   0.000002  -0.000012
  191  H 19  S    0.000000   0.000000  -0.000043  -0.000049  -0.000031
  192  H 20  S    0.000000  -0.000002   0.000000   0.000002  -0.000051
  193  H 20  S    0.000000   0.000052   0.000000   0.000055   0.000147
  194  H 21  S    0.000000   0.000002   0.000000   0.000002  -0.000051
  195  H 21  S    0.000000  -0.000052   0.000000   0.000055   0.000147

                      6          7          8          9         10
                  -68.7674   -68.7674   -68.7608   -68.7608    -6.1334
                     B2         A1         B1         A1         B2  
    1  SI 1  S   -0.000000  -0.000116   0.704884   0.704888  -0.000000
    2  SI 1  S   -0.000000  -0.000002   0.008784   0.008776  -0.000000
    3  SI 1  X   -0.000000   0.000001  -0.000009   0.000005  -0.000000
    4  SI 1  Y   -0.000002   0.000000  -0.000000   0.000000   0.000007
    5  SI 1  Z   -0.000000  -0.000003   0.000000  -0.000010  -0.000000
    6  SI 1  S   -0.000000   0.000050  -0.012204  -0.011959  -0.000000
    7  SI 1  X   -0.000000  -0.000018  -0.000076   0.000034  -0.000000
    8  SI 1  Y    0.000029   0.000000  -0.000000   0.000000  -0.000074
    9  SI 1  Z   -0.000000   0.000040   0.000052   0.000115  -0.000000
   10  SI 1  S   -0.000000  -0.000111   0.002444   0.002184  -0.000000
   11  SI 1  X   -0.000000  -0.000002   0.000243  -0.000032  -0.000000
   12  SI 1  Y    0.000039   0.000000  -0.000000   0.000000  -0.000563
   13  SI 1  Z   -0.000000   0.000036  -0.000163  -0.000333  -0.000000
   14  SI 1 XX   -0.000000  -0.000009   0.004218   0.004069  -0.000000
   15  SI 1 YY   -0.000000  -0.000021   0.004145   0.004116  -0.000000
   16  SI 1 ZZ   -0.000000  -0.000030   0.004166   0.004095  -0.000000
   17  SI 1 XY    0.000007   0.000000  -0.000000   0.000000  -0.000053
   18  SI 1 XZ   -0.000000   0.000008  -0.000005   0.000015  -0.000000
   19  SI 1 YZ   -0.000012   0.000000  -0.000000   0.000000  -0.000021
   20  SI 2  S   -0.000000  -0.000116  -0.704884   0.704888  -0.000000
   21  SI 2  S   -0.000000  -0.000002  -0.008784   0.008776  -0.000000
   22  SI 2  X   -0.000000  -0.000001  -0.000009  -0.000005  -0.000000
   23  SI 2  Y   -0.000002   0.000000  -0.000000   0.000000   0.000007
   24  SI 2  Z   -0.000000  -0.000003  -0.000000  -0.000010  -0.000000
   25  SI 2  S   -0.000000   0.000050   0.012204  -0.011959  -0.000000
   26  SI 2  X   -0.000000   0.000018  -0.000076  -0.000034  -0.000000
   27  SI 2  Y    0.000029   0.000000  -0.000000   0.000000  -0.000074
   28  SI 2  Z   -0.000000   0.000040  -0.000052   0.000115  -0.000000
   29  SI 2  S   -0.000000  -0.000111  -0.002444   0.002184  -0.000000
   30  SI 2  X   -0.000000   0.000002   0.000243   0.000032  -0.000000
   31  SI 2  Y    0.000039   0.000000  -0.000000   0.000000  -0.000563
   32  SI 2  Z   -0.000000   0.000036   0.000163  -0.000333  -0.000000
   33  SI 2 XX   -0.000000  -0.000009  -0.004218   0.004069  -0.000000
   34  SI 2 YY   -0.000000  -0.000021  -0.004145   0.004116  -0.000000
   35  SI 2 ZZ   -0.000000  -0.000030  -0.004166   0.004095  -0.000000
   36  SI 2 XY   -0.000007   0.000000  -0.000000   0.000000   0.000053
   37  SI 2 XZ   -0.000000  -0.000008  -0.000005  -0.000015  -0.000000
   38  SI 2 YZ   -0.000012   0.000000  -0.000000   0.000000  -0.000021
   39  SI 3  S    0.000108   0.000092   0.000021   0.000080  -0.134092
   40  SI 3  S   -0.000003   0.000005  -0.000001   0.000004   0.515279
   41  SI 3  X    0.000009   0.000007   0.000003   0.000007  -0.000039
   42  SI 3  Y    0.000003   0.000002   0.000006   0.000012   0.000172
   43  SI 3  Z   -0.000005  -0.000005   0.000001   0.000004   0.000174
   44  SI 3  S    0.000111   0.000127   0.000079   0.000159   0.003885
   45  SI 3  X    0.000017   0.000035   0.000013  -0.000020   0.000168
   46  SI 3  Y   -0.000028  -0.000013   0.000055   0.000015   0.000175
   47  SI 3  Z   -0.000034  -0.000039   0.000050   0.000035   0.000001
   48  SI 3  S   -0.000246  -0.000312  -0.000100  -0.000351  -0.002686
   49  SI 3  X   -0.000125  -0.000109   0.000047  -0.000020  -0.000266
   50  SI 3  Y    0.000019  -0.000014  -0.000104  -0.000167  -0.000669
   51  SI 3  Z    0.000091   0.000131  -0.000060  -0.000098   0.000215
   52  SI 3 XX   -0.000049  -0.000030  -0.000008  -0.000039   0.000946
   53  SI 3 YY   -0.000028  -0.000011  -0.000028  -0.000064   0.000910
   54  SI 3 ZZ   -0.000037  -0.000020  -0.000017  -0.000034   0.000893
   55  SI 3 XY   -0.000005  -0.000005   0.000002  -0.000018   0.000003
   56  SI 3 XZ    0.000011   0.000013  -0.000001  -0.000012   0.000026
   57  SI 3 YZ    0.000007   0.000007  -0.000009  -0.000011  -0.000023
   58  SI 4  S    0.000108   0.000092  -0.000021   0.000080  -0.134092
   59  SI 4  S   -0.000003   0.000005   0.000001   0.000004   0.515279
   60  SI 4  X   -0.000009  -0.000007   0.000003  -0.000007   0.000039
   61  SI 4  Y    0.000003   0.000002  -0.000006   0.000012   0.000172
   62  SI 4  Z   -0.000005  -0.000005  -0.000001   0.000004   0.000174
   63  SI 4  S    0.000111   0.000127  -0.000079   0.000159   0.003885
   64  SI 4  X   -0.000017  -0.000035   0.000013   0.000020  -0.000168
   65  SI 4  Y   -0.000028  -0.000013  -0.000055   0.000015   0.000175
   66  SI 4  Z   -0.000034  -0.000039  -0.000050   0.000035   0.000001
   67  SI 4  S   -0.000246  -0.000312   0.000100  -0.000351  -0.002686
   68  SI 4  X    0.000125   0.000109   0.000047   0.000020   0.000266
   69  SI 4  Y    0.000019  -0.000014   0.000104  -0.000167  -0.000669
   70  SI 4  Z    0.000091   0.000131   0.000060  -0.000098   0.000215
   71  SI 4 XX   -0.000049  -0.000030   0.000008  -0.000039   0.000946
   72  SI 4 YY   -0.000028  -0.000011   0.000028  -0.000064   0.000910
   73  SI 4 ZZ   -0.000037  -0.000020   0.000017  -0.000034   0.000893
   74  SI 4 XY    0.000005   0.000005   0.000002   0.000018  -0.000003
   75  SI 4 XZ   -0.000011  -0.000013  -0.000001   0.000012  -0.000026
   76  SI 4 YZ    0.000007   0.000007   0.000009  -0.000011  -0.000023
   77  SI 5  S   -0.000108   0.000092   0.000021   0.000080   0.134092
   78  SI 5  S    0.000003   0.000005  -0.000001   0.000004  -0.515279
   79  SI 5  X   -0.000009   0.000007   0.000003   0.000007   0.000039
   80  SI 5  Y    0.000003  -0.000002  -0.000006  -0.000012   0.000172
   81  SI 5  Z    0.000005  -0.000005   0.000001   0.000004  -0.000174
   82  SI 5  S   -0.000111   0.000127   0.000079   0.000159  -0.003885
   83  SI 5  X   -0.000017   0.000035   0.000013  -0.000020  -0.000168
   84  SI 5  Y   -0.000028   0.000013  -0.000055  -0.000015   0.000175
   85  SI 5  Z    0.000034  -0.000039   0.000050   0.000035  -0.000001
   86  SI 5  S    0.000246  -0.000312  -0.000100  -0.000351   0.002686
   87  SI 5  X    0.000125  -0.000109   0.000047  -0.000020   0.000266
   88  SI 5  Y    0.000019   0.000014   0.000104   0.000167  -0.000669
   89  SI 5  Z   -0.000091   0.000131  -0.000060  -0.000098  -0.000215
   90  SI 5 XX    0.000049  -0.000030  -0.000008  -0.000039  -0.000946
   91  SI 5 YY    0.000028  -0.000011  -0.000028  -0.000064  -0.000910
   92  SI 5 ZZ    0.000037  -0.000020  -0.000017  -0.000034  -0.000893
   93  SI 5 XY   -0.000005   0.000005  -0.000002   0.000018   0.000003
   94  SI 5 XZ   -0.000011   0.000013  -0.000001  -0.000012  -0.000026
   95  SI 5 YZ    0.000007  -0.000007   0.000009   0.000011  -0.000023
   96  SI 6  S   -0.000108   0.000092  -0.000021   0.000080   0.134092
   97  SI 6  S    0.000003   0.000005   0.000001   0.000004  -0.515279
   98  SI 6  X    0.000009  -0.000007   0.000003  -0.000007  -0.000039
   99  SI 6  Y    0.000003  -0.000002   0.000006  -0.000012   0.000172
  100  SI 6  Z    0.000005  -0.000005  -0.000001   0.000004  -0.000174
  101  SI 6  S   -0.000111   0.000127  -0.000079   0.000159  -0.003885
  102  SI 6  X    0.000017  -0.000035   0.000013   0.000020   0.000168
  103  SI 6  Y   -0.000028   0.000013   0.000055  -0.000015   0.000175
  104  SI 6  Z    0.000034  -0.000039  -0.000050   0.000035  -0.000001
  105  SI 6  S    0.000246  -0.000312   0.000100  -0.000351   0.002686
  106  SI 6  X   -0.000125   0.000109   0.000047   0.000020  -0.000266
  107  SI 6  Y    0.000019   0.000014  -0.000104   0.000167  -0.000669
  108  SI 6  Z   -0.000091   0.000131   0.000060  -0.000098  -0.000215
  109  SI 6 XX    0.000049  -0.000030   0.000008  -0.000039  -0.000946
  110  SI 6 YY    0.000028  -0.000011   0.000028  -0.000064  -0.000910
  111  SI 6 ZZ    0.000037  -0.000020   0.000017  -0.000034  -0.000893
  112  SI 6 XY    0.000005  -0.000005  -0.000002  -0.000018  -0.000003
  113  SI 6 XZ    0.000011  -0.000013  -0.000001   0.000012   0.000026
  114  SI 6 YZ    0.000007  -0.000007  -0.000009   0.000011  -0.000023
  115  SI 7  S    0.704884   0.704885  -0.000000   0.000117  -0.002039
  116  SI 7  S    0.008779   0.008787  -0.000000  -0.000004   0.007836
  117  SI 7  X   -0.000000   0.000000  -0.000001   0.000000  -0.000000
  118  SI 7  Y    0.000010   0.000013  -0.000000   0.000002  -0.000004
  119  SI 7  Z    0.000005   0.000006  -0.000000   0.000003  -0.000012
  120  SI 7  S   -0.012130  -0.012062  -0.000000   0.000020   0.000156
  121  SI 7  X   -0.000000   0.000000   0.000019   0.000000  -0.000000
  122  SI 7  Y   -0.000065  -0.000075  -0.000000  -0.000025   0.000037
  123  SI 7  Z   -0.000058  -0.000056  -0.000000  -0.000043   0.000101
  124  SI 7  S    0.002308   0.002302  -0.000000   0.000057   0.001338
  125  SI 7  X   -0.000000   0.000000   0.000051   0.000000  -0.000000
  126  SI 7  Y    0.000387   0.000295  -0.000000   0.000053   0.000025
  127  SI 7  Z    0.000353   0.000266  -0.000000  -0.000079  -0.000102
  128  SI 7 XX    0.004134   0.004142  -0.000000  -0.000018  -0.000002
  129  SI 7 YY    0.004136   0.004110  -0.000000  -0.000020   0.000060
  130  SI 7 ZZ    0.004124   0.004133  -0.000000  -0.000021  -0.000027
  131  SI 7 XY   -0.000000   0.000000   0.000001   0.000000  -0.000000
  132  SI 7 XZ   -0.000000   0.000000   0.000011   0.000000  -0.000000
  133  SI 7 YZ   -0.000007  -0.000010  -0.000000  -0.000014   0.000023
  134  SI 8  S   -0.704884   0.704885  -0.000000   0.000117   0.002039
  135  SI 8  S   -0.008779   0.008787  -0.000000  -0.000004  -0.007836
  136  SI 8  X   -0.000000   0.000000  -0.000001   0.000000  -0.000000
  137  SI 8  Y    0.000010  -0.000013  -0.000000  -0.000002  -0.000004
  138  SI 8  Z   -0.000005   0.000006  -0.000000   0.000003   0.000012
  139  SI 8  S    0.012130  -0.012062  -0.000000   0.000020  -0.000156
  140  SI 8  X   -0.000000   0.000000   0.000019   0.000000  -0.000000
  141  SI 8  Y   -0.000065   0.000075  -0.000000   0.000025   0.000037
  142  SI 8  Z    0.000058  -0.000056  -0.000000  -0.000043  -0.000101
  143  SI 8  S   -0.002308   0.002302  -0.000000   0.000057  -0.001338
  144  SI 8  X   -0.000000   0.000000   0.000051   0.000000  -0.000000
  145  SI 8  Y    0.000387  -0.000295  -0.000000  -0.000053   0.000025
  146  SI 8  Z   -0.000353   0.000266  -0.000000  -0.000079   0.000102
  147  SI 8 XX   -0.004134   0.004142  -0.000000  -0.000018   0.000002
  148  SI 8 YY   -0.004136   0.004110  -0.000000  -0.000020  -0.000060
  149  SI 8 ZZ   -0.004124   0.004133  -0.000000  -0.000021   0.000027
  150  SI 8 XY   -0.000000   0.000000  -0.000001   0.000000  -0.000000
  151  SI 8 XZ   -0.000000   0.000000   0.000011   0.000000  -0.000000
  152  SI 8 YZ   -0.000007   0.000010  -0.000000   0.000014   0.000023
  153  SI 9  S   -0.000000   0.000404  -0.000000  -0.000000  -0.000000
  154  SI 9  S   -0.000000   0.000009  -0.000000   0.000018  -0.000000
  155  SI 9  X   -0.000000   0.000000  -0.000001   0.000000  -0.000000
  156  SI 9  Y   -0.000011   0.000000  -0.000000   0.000000  -0.000006
  157  SI 9  Z   -0.000000   0.000015  -0.000000   0.000005  -0.000000
  158  SI 9  S   -0.000000   0.000241  -0.000000   0.000098  -0.000000
  159  SI 9  X   -0.000000   0.000000   0.000008   0.000000  -0.000000
  160  SI 9  Y   -0.000105   0.000000  -0.000000   0.000000   0.000048
  161  SI 9  Z   -0.000000   0.000015  -0.000000  -0.000010  -0.000000
  162  SI 9  S   -0.000000  -0.000589  -0.000000  -0.000472  -0.000000
  163  SI 9  X   -0.000000   0.000000   0.000054   0.000000  -0.000000
  164  SI 9  Y    0.000184   0.000000  -0.000000   0.000000   0.000240
  165  SI 9  Z   -0.000000  -0.000202  -0.000000  -0.000134  -0.000000
  166  SI 9 XX   -0.000000  -0.000027  -0.000000   0.000024  -0.000000
  167  SI 9 YY   -0.000000  -0.000040  -0.000000   0.000023  -0.000000
  168  SI 9 ZZ   -0.000000  -0.000060  -0.000000  -0.000027  -0.000000
  169  SI 9 XY   -0.000000   0.000000  -0.000000   0.000000  -0.000000
  170  SI 9 XZ   -0.000000   0.000000   0.000010   0.000000  -0.000000
  171  SI 9 YZ    0.000029   0.000000  -0.000000   0.000000  -0.000024
  172  H 10  S   -0.000005  -0.000000  -0.000004   0.000000   0.000174
  173  H 10  S   -0.000023  -0.000040  -0.000050  -0.000021  -0.000019
  174  H 11  S   -0.000005  -0.000000   0.000004   0.000000   0.000174
  175  H 11  S   -0.000023  -0.000040   0.000050  -0.000021  -0.000019
  176  H 12  S    0.000005  -0.000000  -0.000004   0.000000  -0.000174
  177  H 12  S    0.000023  -0.000040  -0.000050  -0.000021   0.000019
  178  H 13  S    0.000005  -0.000000   0.000004   0.000000  -0.000174
  179  H 13  S    0.000023  -0.000040   0.000050  -0.000021   0.000019
  180  H 14  S    0.000005  -0.000007  -0.000008  -0.000003   0.000144
  181  H 14  S   -0.000053   0.000006  -0.000004  -0.000010   0.000289
  182  H 15  S    0.000005  -0.000007   0.000008  -0.000003   0.000144
  183  H 15  S   -0.000053   0.000006   0.000004  -0.000010   0.000289
  184  H 16  S   -0.000005  -0.000007  -0.000008  -0.000003  -0.000144
  185  H 16  S    0.000053   0.000006  -0.000004  -0.000010  -0.000289
  186  H 17  S   -0.000005  -0.000007   0.000008  -0.000003  -0.000144
  187  H 17  S    0.000053   0.000006   0.000004  -0.000010  -0.000289
  188  H 18  S   -0.000056  -0.000039  -0.000000   0.000003   0.000014
  189  H 18  S    0.000206   0.000110  -0.000000  -0.000031  -0.000273
  190  H 19  S    0.000056  -0.000039  -0.000000   0.000003  -0.000014
  191  H 19  S   -0.000206   0.000110  -0.000000  -0.000031   0.000273
  192  H 20  S   -0.000000  -0.000012  -0.000008  -0.000010  -0.000000
  193  H 20  S   -0.000000  -0.000045   0.000039   0.000065  -0.000000
  194  H 21  S   -0.000000  -0.000012   0.000008  -0.000010  -0.000000
  195  H 21  S   -0.000000  -0.000045  -0.000039   0.000065  -0.000000

                     11         12         13         14         15
                   -6.1334    -6.1334    -6.1334    -6.1290    -6.1252
                     A2         A1         B1         A1         B2  
    1  SI 1  S    0.000000  -0.001194  -0.001253   0.000001   0.000000
    2  SI 1  S    0.000000   0.004570   0.004848  -0.000012   0.000000
    3  SI 1  X    0.000000  -0.000041   0.000000  -0.000004   0.000000
    4  SI 1  Y   -0.000001  -0.000000  -0.000000  -0.000000   0.000005
    5  SI 1  Z    0.000000   0.000001   0.000003   0.000002   0.000000
    6  SI 1  S    0.000000   0.000140   0.000334  -0.000025   0.000000
    7  SI 1  X    0.000000   0.000095  -0.000018   0.000017   0.000000
    8  SI 1  Y   -0.000042  -0.000000  -0.000000  -0.000000  -0.000019
    9  SI 1  Z    0.000000  -0.000027  -0.000028   0.000009   0.000000
   10  SI 1  S    0.000000   0.000788   0.000360  -0.000244   0.000000
   11  SI 1  X    0.000000  -0.000010  -0.000190   0.000090   0.000000
   12  SI 1  Y   -0.001300  -0.000000  -0.000000  -0.000000   0.000128
   13  SI 1  Z    0.000000  -0.000119   0.000141   0.000088   0.000000
   14  SI 1 XX    0.000000   0.000032  -0.000002  -0.000023   0.000000
   15  SI 1 YY    0.000000  -0.000067  -0.000047  -0.000024   0.000000
   16  SI 1 ZZ    0.000000   0.000004   0.000015   0.000013   0.000000
   17  SI 1 XY    0.000007  -0.000000  -0.000000  -0.000000  -0.000057
[...]
   11  SI 1  X   -0.001439   0.001387   0.001439  -0.001387   0.000748
   12  SI 1  Y   -0.011562   0.007259  -0.011562   0.007259   0.000000
   13  SI 1  Z   -0.016849   0.007657   0.016849  -0.007657  -0.001164
   14  SI 1 XX    0.001276   0.000439  -0.001276  -0.000439   0.000029
   15  SI 1 YY   -0.000064   0.002659   0.000064  -0.002659  -0.001272
   16  SI 1 ZZ   -0.002860  -0.001898   0.002860   0.001898   0.001005
   17  SI 1 XY    0.001843  -0.001553   0.001843  -0.001553  -0.000000
   18  SI 1 XZ    0.001805   0.000717  -0.001805  -0.000717  -0.000543
   19  SI 1 YZ   -0.001440   0.001288  -0.001440   0.001288  -0.000000
   20  SI 2  S    0.001461   0.000419  -0.001461  -0.000419  -0.000341
   21  SI 2  S   -0.008335  -0.000995   0.008335   0.000995   0.000372
   22  SI 2  X   -0.001986  -0.000473   0.001986   0.000473   0.000911
   23  SI 2  Y    0.004348   0.000919   0.004348   0.000919  -0.000000
   24  SI 2  Z   -0.001150  -0.000592   0.001150   0.000592   0.001328
   25  SI 2  S    0.012791   0.008888  -0.012790  -0.008888  -0.008565
   26  SI 2  X    0.006228   0.000144  -0.006228  -0.000144  -0.002075
   27  SI 2  Y   -0.012797  -0.002294  -0.012797  -0.002294   0.000000
   28  SI 2  Z    0.002458   0.000272  -0.002458  -0.000272  -0.002332
   29  SI 2  S    0.033622  -0.023590  -0.033622   0.023590   0.018524
   30  SI 2  X    0.001439  -0.001387  -0.001439   0.001387   0.002124
   31  SI 2  Y   -0.011562   0.007259  -0.011561   0.007259   0.000000
   32  SI 2  Z   -0.016849   0.007657   0.016849  -0.007657  -0.012337
   33  SI 2 XX    0.001276   0.000439  -0.001276  -0.000439  -0.001210
   34  SI 2 YY   -0.000064   0.002659   0.000064  -0.002659  -0.001774
   35  SI 2 ZZ   -0.002860  -0.001898   0.002860   0.001898   0.000768
   36  SI 2 XY   -0.001843   0.001553  -0.001843   0.001553   0.000000
   37  SI 2 XZ   -0.001805  -0.000717   0.001805   0.000717   0.000401
   38  SI 2 YZ   -0.001440   0.001288  -0.001440   0.001288  -0.000000
   39  SI 3  S   -0.002319   0.002696   0.000203  -0.000244  -0.001205
   40  SI 3  S    0.011255  -0.014091  -0.001578   0.001418   0.006519
   41  SI 3  X    0.008734  -0.010471  -0.000574   0.000337   0.004351
   42  SI 3  Y    0.000510   0.004415  -0.000449   0.001603  -0.000618
   43  SI 3  Z   -0.007359   0.004939  -0.000663   0.000462  -0.003100
   44  SI 3  S   -0.029259   0.029160   0.000351  -0.001851  -0.011842
   45  SI 3  X   -0.021315   0.033466   0.001444  -0.000738  -0.012947
   46  SI 3  Y    0.001375  -0.010191   0.001309  -0.005184   0.002032
   47  SI 3  Z    0.020320  -0.017544   0.002188  -0.002295   0.009427
   48  SI 3  S    0.004403   0.089188   0.018690  -0.004143  -0.038266
   49  SI 3  X   -0.004350   0.036608   0.002496   0.001985  -0.018439
   50  SI 3  Y    0.002378   0.015134   0.009718  -0.001735  -0.003057
   51  SI 3  Z    0.002697  -0.025794  -0.003405  -0.001209   0.008765
   52  SI 3 XX   -0.001842   0.008407   0.000424   0.000432  -0.002278
   53  SI 3 YY    0.002558  -0.001917  -0.000781   0.000631   0.001152
   54  SI 3 ZZ    0.004206  -0.005788  -0.000383  -0.000939   0.001202
   55  SI 3 XY   -0.002647  -0.005781   0.000080  -0.000614   0.001461
   56  SI 3 XZ   -0.000577   0.001953   0.000652   0.000377   0.000536
   57  SI 3 YZ    0.005827   0.010191   0.000908  -0.000059  -0.003340
   58  SI 4  S   -0.002319   0.002696   0.000203  -0.000244   0.000185
   59  SI 4  S    0.011255  -0.014091  -0.001578   0.001418  -0.000645
   60  SI 4  X   -0.008734   0.010471   0.000574  -0.000337  -0.000249
   61  SI 4  Y    0.000510   0.004415  -0.000449   0.001603  -0.000416
   62  SI 4  Z   -0.007360   0.004939  -0.000663   0.000462   0.001537
   63  SI 4  S   -0.029259   0.029159   0.000351  -0.001851   0.003031
   64  SI 4  X    0.021315  -0.033466  -0.001444   0.000738   0.001582
   65  SI 4  Y    0.001375  -0.010191   0.001309  -0.005183   0.000781
   66  SI 4  Z    0.020320  -0.017544   0.002188  -0.002295  -0.005169
   67  SI 4  S    0.004403   0.089188   0.018690  -0.004143  -0.012245
   68  SI 4  X    0.004350  -0.036608  -0.002496  -0.001985  -0.000302
   69  SI 4  Y    0.002378   0.015134   0.009718  -0.001735  -0.008215
   70  SI 4  Z    0.002697  -0.025794  -0.003405  -0.001209   0.002418
   71  SI 4 XX   -0.001842   0.008407   0.000424   0.000432  -0.000881
   72  SI 4 YY    0.002558  -0.001918  -0.000781   0.000631  -0.000100
   73  SI 4 ZZ    0.004206  -0.005788  -0.000383  -0.000939   0.000800
   74  SI 4 XY    0.002647   0.005781  -0.000080   0.000614  -0.001155
   75  SI 4 XZ    0.000577  -0.001953  -0.000652  -0.000377   0.001209
   76  SI 4 YZ    0.005827   0.010191   0.000908  -0.000059  -0.001142
   77  SI 5  S   -0.000203   0.000244   0.002319  -0.002696  -0.001205
   78  SI 5  S    0.001578  -0.001418  -0.011255   0.014091   0.006519
   79  SI 5  X    0.000574  -0.000337  -0.008734   0.010471   0.004351
   80  SI 5  Y   -0.000449   0.001603   0.000510   0.004415   0.000618
   81  SI 5  Z    0.000663  -0.000462   0.007359  -0.004939  -0.003100
   82  SI 5  S   -0.000351   0.001851   0.029258  -0.029160  -0.011842
   83  SI 5  X   -0.001444   0.000738   0.021315  -0.033466  -0.012947
   84  SI 5  Y    0.001309  -0.005183   0.001375  -0.010192  -0.002032
   85  SI 5  Z   -0.002188   0.002296  -0.020320   0.017544   0.009428
   86  SI 5  S   -0.018690   0.004143  -0.004403  -0.089188  -0.038266
   87  SI 5  X   -0.002496  -0.001985   0.004350  -0.036608  -0.018440
   88  SI 5  Y    0.009718  -0.001735   0.002378   0.015134   0.003057
   89  SI 5  Z    0.003405   0.001209  -0.002697   0.025794   0.008765
   90  SI 5 XX   -0.000424  -0.000432   0.001842  -0.008407  -0.002278
   91  SI 5 YY    0.000781  -0.000631  -0.002558   0.001918   0.001152
   92  SI 5 ZZ    0.000383   0.000939  -0.004206   0.005788   0.001202
   93  SI 5 XY    0.000080  -0.000614  -0.002647  -0.005781  -0.001461
   94  SI 5 XZ   -0.000652  -0.000377   0.000577  -0.001953   0.000536
   95  SI 5 YZ    0.000908  -0.000059   0.005827   0.010191   0.003340
   96  SI 6  S   -0.000203   0.000244   0.002319  -0.002696   0.000185
   97  SI 6  S    0.001577  -0.001418  -0.011255   0.014091  -0.000645
   98  SI 6  X   -0.000574   0.000337   0.008734  -0.010471  -0.000249
   99  SI 6  Y   -0.000449   0.001603   0.000510   0.004415   0.000416
  100  SI 6  Z    0.000663  -0.000461   0.007359  -0.004939   0.001537
  101  SI 6  S   -0.000351   0.001851   0.029258  -0.029159   0.003030
  102  SI 6  X    0.001444  -0.000738  -0.021315   0.033466   0.001582
  103  SI 6  Y    0.001309  -0.005183   0.001375  -0.010192  -0.000781
  104  SI 6  Z   -0.002188   0.002295  -0.020320   0.017544  -0.005169
  105  SI 6  S   -0.018690   0.004143  -0.004403  -0.089188  -0.012245
  106  SI 6  X    0.002496   0.001985  -0.004350   0.036608  -0.000302
  107  SI 6  Y    0.009718  -0.001735   0.002378   0.015134   0.008215
  108  SI 6  Z    0.003405   0.001209  -0.002697   0.025794   0.002418
  109  SI 6 XX   -0.000424  -0.000432   0.001842  -0.008407  -0.000881
  110  SI 6 YY    0.000781  -0.000631  -0.002558   0.001917  -0.000100
  111  SI 6 ZZ    0.000383   0.000939  -0.004206   0.005788   0.000800
  112  SI 6 XY   -0.000080   0.000614   0.002647   0.005781   0.001155
  113  SI 6 XZ    0.000652   0.000377  -0.000577   0.001953   0.001209
  114  SI 6 YZ    0.000908  -0.000059   0.005827   0.010191   0.001142
  115  SI 7  S    0.027076  -0.026444  -0.001132  -0.002857   0.002329
  116  SI 7  S   -0.130155   0.131094   0.005769   0.015212  -0.011513
  117  SI 7  X    0.000000   0.000000  -0.000000  -0.000000   0.001379
  118  SI 7  Y    0.109483   0.119985   0.004566   0.009645  -0.009816
  119  SI 7  Z    0.089713  -0.073064  -0.003069  -0.009501   0.004491
  120  SI 7  S    0.267068  -0.250384  -0.011937  -0.028705   0.028679
  121  SI 7  X   -0.000000  -0.000000   0.000000   0.000000  -0.000043
  122  SI 7  Y   -0.279137  -0.320518  -0.013098  -0.030689   0.028369
  123  SI 7  Z   -0.228805   0.202527   0.008528   0.026179  -0.015768
  124  SI 7  S   -0.027500  -0.175142  -0.027734  -0.073140   0.026585
  125  SI 7  X   -0.000000   0.000000   0.000000   0.000000  -0.004143
  126  SI 7  Y   -0.079980  -0.108582  -0.013982  -0.047675   0.015776
  127  SI 7  Z   -0.059698   0.009341   0.007308   0.018687   0.001839
  128  SI 7 XX   -0.029794   0.014684  -0.000953  -0.002293  -0.001296
  129  SI 7 YY    0.043732  -0.047513   0.001233   0.007788   0.003237
  130  SI 7 ZZ    0.020719   0.002889  -0.001152  -0.005842  -0.004699
  131  SI 7 XY   -0.000000   0.000000  -0.000000   0.000000  -0.004623
  132  SI 7 XZ   -0.000000  -0.000000   0.000000   0.000000   0.006288
  133  SI 7 YZ    0.071774   0.046322   0.002706   0.007210   0.003239
  134  SI 8  S    0.001132   0.002857  -0.027076   0.026444   0.002329
  135  SI 8  S   -0.005769  -0.015212   0.130155  -0.131094  -0.011513
  136  SI 8  X   -0.000000  -0.000000   0.000000  -0.000000   0.001379
  137  SI 8  Y    0.004566   0.009645   0.109483   0.119985   0.009816
  138  SI 8  Z    0.003069   0.009500  -0.089712   0.073064   0.004491
  139  SI 8  S    0.011937   0.028706  -0.267068   0.250384   0.028679
  140  SI 8  X    0.000000   0.000000  -0.000000   0.000000  -0.000044
  141  SI 8  Y   -0.013098  -0.030689  -0.279137  -0.320518  -0.028370
  142  SI 8  Z   -0.008527  -0.026179   0.228805  -0.202527  -0.015768
  143  SI 8  S    0.027734   0.073140   0.027500   0.175142   0.026585
  144  SI 8  X    0.000000   0.000000  -0.000000   0.000000  -0.004143
  145  SI 8  Y   -0.013982  -0.047675  -0.079980  -0.108582  -0.015776
  146  SI 8  Z   -0.007308  -0.018687   0.059697  -0.009341   0.001839
  147  SI 8 XX    0.000953   0.002293   0.029794  -0.014684  -0.001296
  148  SI 8 YY   -0.001233  -0.007788  -0.043732   0.047513   0.003237
  149  SI 8 ZZ    0.001152   0.005842  -0.020719  -0.002889  -0.004699
  150  SI 8 XY   -0.000000  -0.000000   0.000000  -0.000000   0.004623
  151  SI 8 XZ    0.000000   0.000000  -0.000000   0.000000   0.006288
  152  SI 8 YZ    0.002706   0.007210   0.071774   0.046322  -0.003239
  153  SI 9  S   -0.002470  -0.027055   0.002470   0.027055  -0.026122
  154  SI 9  S    0.011524   0.131942  -0.011524  -0.131942   0.128024
  155  SI 9  X   -0.000000  -0.000000   0.000000  -0.000000   0.116181
  156  SI 9  Y   -0.007435  -0.114543  -0.007435  -0.114544  -0.000000
  157  SI 9  Z    0.007986   0.079507  -0.007986  -0.079507  -0.082976
  158  SI 9  S   -0.033187  -0.265889   0.033188   0.265889  -0.248052
  159  SI 9  X    0.000000   0.000000  -0.000000   0.000000  -0.297104
  160  SI 9  Y    0.023784   0.309850   0.023784   0.309850   0.000000
  161  SI 9  Z   -0.019316  -0.209019   0.019316   0.209019   0.213085
  162  SI 9  S    0.006664  -0.142596  -0.006664   0.142596  -0.028772
  163  SI 9  X    0.000000   0.000000  -0.000000   0.000000  -0.050583
  164  SI 9  Y   -0.000565   0.057871  -0.000565   0.057871   0.000000
  165  SI 9  Z   -0.002394  -0.074857   0.002394   0.074857   0.039621
  166  SI 9 XX   -0.001835   0.021702   0.001836  -0.021702  -0.052259
  167  SI 9 YY    0.008724  -0.043325  -0.008724   0.043325   0.031299
  168  SI 9 ZZ   -0.003730  -0.010658   0.003730   0.010658  -0.009201
  169  SI 9 XY    0.000000   0.000000  -0.000000  -0.000000   0.000000
  170  SI 9 XZ   -0.000000  -0.000000   0.000000  -0.000000   0.071561
  171  SI 9 YZ    0.004055   0.047603   0.004055   0.047603   0.000000
  172  H 10  S   -0.000559  -0.010034  -0.001328   0.000210   0.003656
  173  H 10  S   -0.000538  -0.035150  -0.003203  -0.001249   0.014159
  174  H 11  S   -0.000558  -0.010034  -0.001328   0.000210   0.000714
  175  H 11  S   -0.000538  -0.035150  -0.003203  -0.001249   0.000982
  176  H 12  S    0.001328  -0.000210   0.000558   0.010034   0.003656
  177  H 12  S    0.003203   0.001249   0.000538   0.035150   0.014159
  178  H 13  S    0.001328  -0.000210   0.000558   0.010034   0.000714
  179  H 13  S    0.003203   0.001249   0.000538   0.035150   0.000982
  180  H 14  S    0.000323   0.001687   0.000652   0.000590   0.000037
  181  H 14  S   -0.001687  -0.001477  -0.002671   0.003769   0.002179
  182  H 15  S    0.000323   0.001687   0.000652   0.000590   0.000264
  183  H 15  S   -0.001687  -0.001477  -0.002671   0.003768   0.001991
  184  H 16  S   -0.000652  -0.000590  -0.000323  -0.001687   0.000037
  185  H 16  S    0.002671  -0.003769   0.001687   0.001477   0.002179
  186  H 17  S   -0.000652  -0.000590  -0.000323  -0.001687   0.000264
  187  H 17  S    0.002671  -0.003769   0.001687   0.001477   0.001991
  188  H 18  S    0.308111   0.019288   0.003245   0.009392   0.001438
  189  H 18  S    0.338414   0.048754   0.010971   0.029648   0.003977
  190  H 19  S   -0.003245  -0.009392  -0.308111  -0.019288   0.001438
  191  H 19  S   -0.010971  -0.029648  -0.338414  -0.048754   0.003977
  192  H 20  S   -0.001418   0.018233   0.001418  -0.018233   0.015523
  193  H 20  S   -0.003488   0.062780   0.003489  -0.062780   0.038458
  194  H 21  S   -0.001418   0.018233   0.001418  -0.018233  -0.309334
  195  H 21  S   -0.003488   0.062780   0.003489  -0.062780  -0.349925

                     71

    1  SI 1  S   -0.000341
    2  SI 1  S    0.000372
    3  SI 1  X   -0.000911
    4  SI 1  Y    0.000000
    5  SI 1  Z    0.001328
    6  SI 1  S   -0.008565
    7  SI 1  X    0.002075
    8  SI 1  Y   -0.000000
    9  SI 1  Z   -0.002331
   10  SI 1  S    0.018524
   11  SI 1  X   -0.002124
   12  SI 1  Y   -0.000000
   13  SI 1  Z   -0.012337
   14  SI 1 XX   -0.001210
   15  SI 1 YY   -0.001774
   16  SI 1 ZZ    0.000768
   17  SI 1 XY    0.000000
   18  SI 1 XZ   -0.000401
   19  SI 1 YZ   -0.000000
   20  SI 2  S   -0.000010
   21  SI 2  S   -0.000547
   22  SI 2  X   -0.000443
   23  SI 2  Y   -0.000000
   24  SI 2  Z   -0.000367
   25  SI 2  S   -0.002504
   26  SI 2  X    0.002345
   27  SI 2  Y    0.000000
   28  SI 2  Z    0.000674
   29  SI 2  S    0.018647
   30  SI 2  X   -0.000748
   31  SI 2  Y    0.000000
   32  SI 2  Z   -0.001164
   33  SI 2 XX    0.000029
   34  SI 2 YY   -0.001272
   35  SI 2 ZZ    0.001005
   36  SI 2 XY    0.000000
   37  SI 2 XZ    0.000543
   38  SI 2 YZ   -0.000000
   39  SI 3  S    0.000185
   40  SI 3  S   -0.000645
   41  SI 3  X    0.000249
   42  SI 3  Y   -0.000416
   43  SI 3  Z    0.001537
   44  SI 3  S    0.003030
   45  SI 3  X   -0.001582
   46  SI 3  Y    0.000781
   47  SI 3  Z   -0.005169
   48  SI 3  S   -0.012245
   49  SI 3  X    0.000302
   50  SI 3  Y   -0.008215
   51  SI 3  Z    0.002418
   52  SI 3 XX   -0.000881
   53  SI 3 YY   -0.000100
   54  SI 3 ZZ    0.000800
   55  SI 3 XY    0.001155
   56  SI 3 XZ   -0.001209
   57  SI 3 YZ   -0.001142
   58  SI 4  S   -0.001205
   59  SI 4  S    0.006519
   60  SI 4  X   -0.004351
   61  SI 4  Y   -0.000617
   62  SI 4  Z   -0.003100
   63  SI 4  S   -0.011842
   64  SI 4  X    0.012947
   65  SI 4  Y    0.002032
   66  SI 4  Z    0.009427
   67  SI 4  S   -0.038266
   68  SI 4  X    0.018440
   69  SI 4  Y   -0.003057
   70  SI 4  Z    0.008765
   71  SI 4 XX   -0.002278
   72  SI 4 YY    0.001152
   73  SI 4 ZZ    0.001202
   74  SI 4 XY   -0.001461
   75  SI 4 XZ   -0.000536
   76  SI 4 YZ   -0.003340
   77  SI 5  S    0.000185
   78  SI 5  S   -0.000645
   79  SI 5  X    0.000249
   80  SI 5  Y    0.000416
   81  SI 5  Z    0.001537
   82  SI 5  S    0.003030
   83  SI 5  X   -0.001582
   84  SI 5  Y   -0.000781
   85  SI 5  Z   -0.005169
   86  SI 5  S   -0.012245
   87  SI 5  X    0.000302
   88  SI 5  Y    0.008215
   89  SI 5  Z    0.002418
   90  SI 5 XX   -0.000881
   91  SI 5 YY   -0.000100
   92  SI 5 ZZ    0.000800
   93  SI 5 XY   -0.001155
   94  SI 5 XZ   -0.001209
   95  SI 5 YZ    0.001142
   96  SI 6  S   -0.001205
   97  SI 6  S    0.006519
   98  SI 6  X   -0.004351
   99  SI 6  Y    0.000618
  100  SI 6  Z   -0.003100
  101  SI 6  S   -0.011842
  102  SI 6  X    0.012947
  103  SI 6  Y   -0.002032
  104  SI 6  Z    0.009428
  105  SI 6  S   -0.038266
  106  SI 6  X    0.018440
  107  SI 6  Y    0.003057
  108  SI 6  Z    0.008765
  109  SI 6 XX   -0.002278
  110  SI 6 YY    0.001152
  111  SI 6 ZZ    0.001202
  112  SI 6 XY    0.001461
  113  SI 6 XZ   -0.000536
  114  SI 6 YZ    0.003340
  115  SI 7  S    0.002329
  116  SI 7  S   -0.011513
  117  SI 7  X   -0.001379
  118  SI 7  Y   -0.009816
  119  SI 7  Z    0.004491
  120  SI 7  S    0.028679
  121  SI 7  X    0.000044
  122  SI 7  Y    0.028369
  123  SI 7  Z   -0.015768
  124  SI 7  S    0.026585
  125  SI 7  X    0.004143
  126  SI 7  Y    0.015776
  127  SI 7  Z    0.001839
  128  SI 7 XX   -0.001296
  129  SI 7 YY    0.003237
  130  SI 7 ZZ   -0.004699
  131  SI 7 XY    0.004623
  132  SI 7 XZ   -0.006288
  133  SI 7 YZ    0.003239
  134  SI 8  S    0.002329
  135  SI 8  S   -0.011512
  136  SI 8  X   -0.001379
  137  SI 8  Y    0.009816
  138  SI 8  Z    0.004491
  139  SI 8  S    0.028678
  140  SI 8  X    0.000043
  141  SI 8  Y   -0.028370
  142  SI 8  Z   -0.015768
  143  SI 8  S    0.026585
  144  SI 8  X    0.004143
  145  SI 8  Y   -0.015776
  146  SI 8  Z    0.001839
  147  SI 8 XX   -0.001296
  148  SI 8 YY    0.003237
  149  SI 8 ZZ   -0.004699
  150  SI 8 XY   -0.004623
  151  SI 8 XZ   -0.006288
  152  SI 8 YZ   -0.003239
  153  SI 9  S   -0.026122
  154  SI 9  S    0.128024
  155  SI 9  X   -0.116181
  156  SI 9  Y    0.000000
  157  SI 9  Z   -0.082976
  158  SI 9  S   -0.248052
  159  SI 9  X    0.297104
  160  SI 9  Y   -0.000000
  161  SI 9  Z    0.213085
  162  SI 9  S   -0.028772
  163  SI 9  X    0.050583
  164  SI 9  Y    0.000000
  165  SI 9  Z    0.039621
  166  SI 9 XX   -0.052259
  167  SI 9 YY    0.031299
  168  SI 9 ZZ   -0.009201
  169  SI 9 XY   -0.000000
  170  SI 9 XZ   -0.071561
  171  SI 9 YZ   -0.000000
  172  H 10  S    0.000714
  173  H 10  S    0.000982
  174  H 11  S    0.003656
  175  H 11  S    0.014159
  176  H 12  S    0.000714
  177  H 12  S    0.000982
  178  H 13  S    0.003656
  179  H 13  S    0.014159
  180  H 14  S    0.000264
  181  H 14  S    0.001991
  182  H 15  S    0.000037
  183  H 15  S    0.002179
  184  H 16  S    0.000264
  185  H 16  S    0.001991
  186  H 17  S    0.000037
  187  H 17  S    0.002179
  188  H 18  S    0.001438
  189  H 18  S    0.003977
  190  H 19  S    0.001438
  191  H 19  S    0.003977
  192  H 20  S   -0.309334
  193  H 20  S   -0.349925
  194  H 21  S    0.015523
  195  H 21  S    0.038458
 ... DONE WITH ORIENTATION ...
 STEP CPU TIME =     0.03 TOTAL CPU TIME =       18.9 (    0.3 MIN)
 TOTAL WALL CLOCK TIME=       47.3 SECONDS, CPU UTILIZATION IS  39.90%
             97217395  WORDS OF DYNAMIC MEMORY USED
 EXECUTION OF GAMESS TERMINATED NORMALLY Mon Nov 28 21:29:17 2016
 DDI: 263640 bytes (0.3 MB / 0 MWords) used by master data server.

 ----------------------------------------
 CPU timing information for all processes
 ========================================
 0: 17.932 + 0.955 = 18.888
 ----------------------------------------
 ddikick.x: exited gracefully.
unset echo
----- accounting info -----
Files used on the master node compute-3-0 were:
-rw-rw-r-- 1 sarom sarom   1294507 Nov 29  2016 .//mc-psi-si09h12.dat
-rw-rw-r-- 1 sarom sarom    624582 Nov 29  2016 .//mc-psi-si09h12.F05
-rw-rw-r-- 1 sarom sarom 362732240 Nov 29  2016 .//mc-psi-si09h12.F08
-rw-rw-r-- 1 sarom sarom    362848 Nov 29  2016 .//mc-psi-si09h12.F09
-rw-rw-r-- 1 sarom sarom   6969360 Nov 29  2016 .//mc-psi-si09h12.F10
-rw-rw-r-- 1 sarom sarom       192 Nov 29  2016 .//mc-psi-si09h12.F12
-rw-rw-r-- 1 sarom sarom   1568096 Nov 29  2016 .//mc-psi-si09h12.F13
-rw-rw-r-- 1 sarom sarom    200472 Nov 29  2016 .//mc-psi-si09h12.F15
-rw-rw-r-- 1 sarom sarom         0 Nov 29  2016 .//mc-psi-si09h12.F23
-rw-rw-r-- 1 sarom sarom    624582 Nov 27 05:47 .//mc-psi-si09h12.inp
-rw-rw-r-- 1 sarom sarom   1279555 Nov 29  2016 .//mc-psi-si09h12.log
Mon Nov 28 21:29:20 CST 2016
0.179u 0.125s 1:02.91 0.4%	0+0k 0+1352io 0pf+0w
