-catch_rsh /opt/gridengine/default/spool/compute-0-8/active_jobs/23927.1/pe_hostfile
compute-0-8
The primary node assigned by SGE to this run is compute-0-8
Warning: no access to tty (Bad file descriptor).
Thus no job control in this shell.
Deleting shmid=2785280.
Deleting shmid=2818049.
source /home/sarom/gamess.github.2017-05-31.14.06/install.info
setenv GMS_PATH /home/sarom/gamess.github.2017-05-31.14.06
setenv GMS_BUILD_DIR /home/sarom/gamess.github.2017-05-31.14.06
setenv GMS_TARGET linux64
setenv GMS_FORTRAN gfortran
setenv GMS_GFORTRAN_VERNO 4.4
setenv GMS_MATHLIB mkl-so
setenv GMS_MATHLIB_PATH /share/apps/intel/compilers_and_libraries_2017.1.132/linux/mkl/lib/intel64
setenv GMS_MKL_VERNO 12
setenv GMS_DDI_COMM sockets
setenv GMS_LIBCCHEM false
setenv GMS_EIGEN_PATH
setenv GMS_PHI false
setenv GMS_SHMTYPE sysv
setenv GMS_OPENMP false
unset echo
mc-psi-hno-freeze
tests/mcscf/psi
----- GAMESS execution script 'rungms' -----
This job is running on host compute-0-8.local
under operating system Linux at Fri Jun 2 04:08:12 CDT 2017
Available scratch disk space (Kbyte units) at beginning of the job is
Filesystem           1K-blocks      Used Available Use% Mounted on
/dev/sda1             16126920   3867344  11440376  26% /
GAMESS temporary binary files will be written to /scratch
GAMESS supplementary output files will be written to /home/sarom/restart
Copying input file mc-psi-hno-freeze.inp to your run's scratch directory...
cp tests/mcscf/psi/mc-psi-hno-freeze.inp /scratch/mc-psi-hno-freeze.F05
unset echo
The generated host list is
compute-0-8.local
/home/sarom/gamess.github.2017-05-31.14.06/ddikick.x /home/sarom/gamess.github.2017-05-31.14.06/gamess.00.x mc-psi-hno-freeze -ddi 1 1 compute-0-8.local -scr /scratch

 Distributed Data Interface kickoff program.
 Initiating 1 compute processes on 1 nodes to run the following command:
 /home/sarom/gamess.github.2017-05-31.14.06/gamess.00.x mc-psi-hno-freeze 

          ******************************************************
          *         GAMESS VERSION = 20 APR 2017 (R1)          *
          *             FROM IOWA STATE UNIVERSITY             *
          * M.W.SCHMIDT, K.K.BALDRIDGE, J.A.BOATZ, S.T.ELBERT, *
          *   M.S.GORDON, J.H.JENSEN, S.KOSEKI, N.MATSUNAGA,   *
          *          K.A.NGUYEN, S.J.SU, T.L.WINDUS,           *
          *       TOGETHER WITH M.DUPUIS, J.A.MONTGOMERY       *
          *         J.COMPUT.CHEM.  14, 1347-1363(1993)        *
          **************** 64 BIT LINUX VERSION ****************

  SINCE 1993, STUDENTS AND POSTDOCS WORKING AT IOWA STATE UNIVERSITY
  AND ALSO IN THEIR VARIOUS JOBS AFTER LEAVING ISU HAVE MADE IMPORTANT
  CONTRIBUTIONS TO THE CODE:
     IVANA ADAMOVIC, CHRISTINE AIKENS, YURI ALEXEEV, POOJA ARORA,
     ANDREY ASADCHEV, ROB BELL, PRADIPTA BANDYOPADHYAY, JONATHAN BENTZ,
     BRETT BODE, KURT BRORSEN, CALEB CARLIN, GALINA CHABAN, WEI CHEN,
     CHEOL HO CHOI, PAUL DAY, ALBERT DEFUSCO, NUWAN DESILVA, TIM DUDLEY,
     DMITRI FEDOROV, GRAHAM FLETCHER, MARK FREITAG, KURT GLAESEMANN,
     DAN KEMP, GRANT MERRILL, NORIYUKI MINEZAWA, JONATHAN MULLIN,
     TAKESHI NAGATA, SEAN NEDD, HEATHER NETZLOFF, BOSILJKA NJEGIC, RYAN OLSON,
     MIKE PAK, SPENCER PRUITT, LUKE ROSKOP, JIM SHOEMAKER, LYUDMILA SLIPCHENKO,
     TONY SMITH, SAROM SOK LEANG, JIE SONG, TETSUYA TAKETSUGU, SIMON WEBB,
     PENG XU, SOOHAENG YOO, FEDERICO ZAHARIEV

  ADDITIONAL CODE HAS BEEN PROVIDED BY COLLABORATORS IN OTHER GROUPS:
     IOWA STATE UNIVERSITY:
          JOE IVANIC, AARON WEST, LAIMUTIS BYTAUTAS, KLAUS RUEDENBERG
     UNIVERSITY OF TOKYO: KIMIHIKO HIRAO, TAKAHITO NAKAJIMA,
          TAKAO TSUNEDA, MUNEAKI KAMIYA, SUSUMU YANAGISAWA,
          KIYOSHI YAGI, MAHITO CHIBA, SEIKEN TOKURA, NAOAKI KAWAKAMI
     UNIVERSITY OF AARHUS: FRANK JENSEN
     UNIVERSITY OF IOWA: VISVALDAS KAIRYS, HUI LI
     NATIONAL INST. OF STANDARDS AND TECHNOLOGY: WALT STEVENS, DAVID GARMER
     UNIVERSITY OF PISA: BENEDETTA MENNUCCI, JACOPO TOMASI
     UNIVERSITY OF MEMPHIS: HENRY KURTZ, PRAKASHAN KORAMBATH
     UNIVERSITY OF ALBERTA: TOBY ZENG, MARIUSZ KLOBUKOWSKI
     UNIVERSITY OF NEW ENGLAND: MARK SPACKMAN
     MIE UNIVERSITY: HIROAKI UMEDA
     NAT. INST. OF ADVANCED INDUSTRIAL SCIENCE AND TECHNOLOGY: KAZUO KITAURA
     MICHIGAN STATE UNIVERSITY:
          KAROL KOWALSKI, MARTA WLOCH, JEFFREY GOUR, JESSE LUTZ,
          WEI LI, PIOTR PIECUCH
     UNIVERSITY OF SILESIA: MONIKA MUSIAL, STANISLAW KUCHARSKI
     FACULTES UNIVERSITAIRES NOTRE-DAME DE LA PAIX:
          OLIVIER QUINET, BENOIT CHAMPAGNE
     UNIVERSITY OF CALIFORNIA - SANTA BARBARA: BERNARD KIRTMAN
     INSTITUTE FOR MOLECULAR SCIENCE:
          KAZUYA ISHIMURA, MICHIO KATOUDA, AND SHIGERU NAGASE
     UNIVERSITY OF NOTRE DAME: ANNA POMOGAEVA, DAN CHIPMAN
     KYUSHU UNIVERSITY:
          HARUYUKI NAKANO,
          FENG LONG GU, JACEK KORCHOWIEC, MARCIN MAKOWSKI, AND YURIKO AOKI,
          HIROTOSHI MORI AND EISAKU MIYOSHI
     PENNSYLVANIA STATE UNIVERSITY:
          TZVETELIN IORDANOV, CHET SWALINA, JONATHAN SKONE,
          SHARON HAMMES-SCHIFFER
     WASEDA UNIVERSITY:
          MASATO KOBAYASHI, TOMOKO AKAMA, TSUGUKI TOUMA,
          TAKESHI YOSHIKAWA, YASUHIRO IKABATA, JUNJI SEINO,
          YUYA NAKAJIMA, HIROMI NAKAI
     NANJING UNIVERSITY: SHUHUA LI
     UNIVERSITY OF NEBRASKA:
          PEIFENG SU, DEJUN SI, NANDUN THELLAMUREGE, YALI WANG, HUI LI
     UNIVERSITY OF ZURICH: ROBERTO PEVERATI, KIM BALDRIDGE
     N. COPERNICUS UNIVERSITY AND JACKSON STATE UNIVERSITY:
          MARIA BARYSZ
     UNIVERSITY OF COPENHAGEN: Jimmy Kromann, CASPER STEINMANN
     TOKYO INSTITUTE OF TECHNOLOGY: HIROYA NAKATA
     NAGOYA UNIVERSITY: YOSHIO NISHIMOTO, STEPHAN IRLE
     MOSCOW STATE UNIVERSITY: VLADIMIR MIRONOV

 EXECUTION OF GAMESS BEGUN Fri Jun  2 04:08:12 2017

            ECHO OF THE FIRST FEW INPUT CARDS -
 INPUT CARD>!   test frozen orbital option.  HNO has 35 AOs and 33 MOs in CCD.              
 INPUT CARD>!   all 8 orbitals occupied in the RHF are kept unchanged,                      
 INPUT CARD>!   using FCORE to freeze the inert chemical core,                              
 INPUT CARD>!   and MOFRZ to freeze the six lowest active orbitals.                         
 INPUT CARD>!   Using both ensures both keywords are tested by this run.                    
 INPUT CARD>!                                                                               
 INPUT CARD>!   FINAL MCSCF ENERGY=  -129.9253385413 after 14 iterations                    
 INPUT CARD>!   full optimization is -129.9281402479                                        
 INPUT CARD>!                                                                               
 INPUT CARD>!   this run takes 4 seconds on 2.66 GHz Cloverton (22 May 2013)                
 INPUT CARD>!                                                                               
 INPUT CARD> $contrl scftyp=mcscf runtyp=energy ispher=1 nzvar=3 $end                       
 INPUT CARD> $system parall=.true. mwords=5 memddi=20 $end                                  
 INPUT CARD> $basis  gbasis=ccd $end                                                        
 INPUT CARD> $guess  guess=moread norb=33 $end                                              
 INPUT CARD>                                                                                
 INPUT CARD> $mcscf  cistep=aldet fullnr=.true.                                             
 INPUT CARD>         fcore=.true. mofrz(1)=3,4,5,6,7,8 canonc=.f. $end                      
 INPUT CARD> $det    ncore=2 nact=9 nels=12 $end                                            
 INPUT CARD> $trans  dirtrf=.true. $end                                                     
 INPUT CARD>                                                                                
 INPUT CARD> $zmat   izmat(1)=1,1,2,  1,2,3,  2,1,2,3 $end                                  
 INPUT CARD> $data                                                                          
 INPUT CARD>HNO ... RHF/ACCQ geometry                                                       
 INPUT CARD>Cs                                                                              
 INPUT CARD>                                                                                
 INPUT CARD>H   1.0  -0.3169451268   0.9735396853   0.0000000000                            
 INPUT CARD>N   7.0   0.0244778456   0.0017981386   0.0000000000                            
 INPUT CARD>O   8.0   1.1891773268   0.0005641944   0.0000000000                            
 INPUT CARD> $end                                                                           
 INPUT CARD>                                                                                
 INPUT CARD>VVOs for HNO ... RHF/ACCQ geometry ... E(RHF)= -129.8011836287                  
 INPUT CARD> $VEC                                                                           
 INPUT CARD> 1  1-3.62481337E-04 2.21457411E-04-5.35715635E-05 1.41766781E-06 0.00000000E+00
 INPUT CARD> 1  2 8.19501818E-06-2.32742455E-04 2.70073297E-03-1.73151616E-04 4.43740674E-05
 INPUT CARD> 1  3 0.00000000E+00 1.49189052E-03 1.30560566E-04 0.00000000E+00-5.36186597E-04
 INPUT CARD> 1  4 2.93239757E-04 2.42946840E-04-1.88900875E-05 0.00000000E+00 0.00000000E+00
 INPUT CARD> 1  5 1.00111764E+00 1.50533144E-03-5.50419091E-03-1.96868877E-03 7.68114985E-05
 INPUT CARD> 1  6 0.00000000E+00 2.08488275E-03-8.64431422E-05 0.00000000E+00 2.03284161E-04
 INPUT CARD> 1  7 1.56858177E-04-3.60142338E-04 1.41143068E-05 0.00000000E+00 0.00000000E+00
 INPUT CARD> 2  1-3.69195070E-04 8.98637830E-04-2.58856221E-04 7.95515780E-04 0.00000000E+00
 INPUT CARD> 2  2 1.00104475E+00 1.49735842E-03-2.53933418E-03 1.91731823E-03 1.87768755E-03
 INPUT CARD> 2  3 0.00000000E+00 1.10392683E-05-8.28059322E-04 0.00000000E+00 6.20201322E-04
 INPUT CARD> 2  4 1.78698703E-04-7.98900025E-04-1.10374638E-04 0.00000000E+00 0.00000000E+00
 INPUT CARD> 2  5-1.69015089E-04 1.63529833E-04-8.48207259E-04 1.89032666E-04-4.55605175E-05
 INPUT CARD> 2  6 0.00000000E+00 9.27559851E-04 1.32724526E-04 0.00000000E+00-5.57157604E-04
 INPUT CARD> 2  7 2.02958093E-04 3.54199511E-04 3.62091117E-05 0.00000000E+00 0.00000000E+00
 INPUT CARD> 3  1 6.80273643E-02-6.28781298E-03 7.61077771E-03-1.52786407E-02 0.00000000E+00
 INPUT CARD> 3  2-3.44854405E-03 2.80277879E-01 1.27884287E-01 1.85573354E-01 2.01391463E-02
 INPUT CARD> 3  3 0.00000000E+00 1.78852961E-02-2.77425325E-03 0.00000000E+00 3.21432286E-02
    5000000 WORDS OF MEMORY AVAILABLE

     BASIS OPTIONS
     -------------
     GBASIS=CCD          IGAUSS=       0      POLAR=NONE    
     NDFUNC=       0     NFFUNC=       0     DIFFSP=       F
     NPFUNC=       0      DIFFS=       F     BASNAM=        


     RUN TITLE
     ---------
 HNO ... RHF/ACCQ geometry                                                       

 THE POINT GROUP OF THE MOLECULE IS CS      
 THE ORDER OF THE PRINCIPAL AXIS IS     0

 ATOM      ATOMIC                      COORDINATES (BOHR)
           CHARGE         X                   Y                   Z
 H           1.0    -0.5989394428        1.8397232434        0.0000000000
 N           7.0     0.0462564210        0.0033979892        0.0000000000
 O           8.0     2.2472192985        0.0010661728        0.0000000000

          INTERNUCLEAR DISTANCES (ANGS.)
          ------------------------------

                1 H          2 N          3 O     

   1 H       0.0000000    1.0299763 *  1.7930661 *
   2 N       1.0299763 *  0.0000000    1.1647001 *
   3 O       1.7930661 *  1.1647001 *  0.0000000  

  * ... LESS THAN  3.000


     ATOMIC BASIS SET
     ----------------
 THE CONTRACTED PRIMITIVE FUNCTIONS HAVE BEEN UNNORMALIZED
 THE CONTRACTED BASIS FUNCTIONS ARE NOW NORMALIZED TO UNITY

  SHELL TYPE  PRIMITIVE        EXPONENT          CONTRACTION COEFFICIENT(S)

 H         

      1   S       1            13.0100000    0.033498726390
      1   S       2             1.9620000    0.234800801174
      1   S       3             0.4446000    0.813682957883

      2   S       4             0.1220000    1.000000000000

      3   P       5             0.7270000    1.000000000000

 N         

      4   S       6          9046.0000000    0.000699617413
      4   S       7          1357.0000000    0.005386054630
      4   S       8           309.3000000    0.027391021189
      4   S       9            87.7300000    0.103150591982
      4   S      10            28.5600000    0.278570663317
      4   S      11            10.2100000    0.448294849454
      4   S      12             3.8380000    0.278085928395
      4   S      13             0.7466000    0.015431561233

      5   S      14          9046.0000000   -0.000304990096
      5   S      15          1357.0000000   -0.002408026379
      5   S      16           309.3000000   -0.011944448725
      5   S      17            87.7300000   -0.048925992909
      5   S      18            28.5600000   -0.134472724725
      5   S      19            10.2100000   -0.315112577700
      5   S      20             3.8380000   -0.242857832550
      5   S      21             0.7466000    1.094382206854

      6   S      22             0.2248000    1.000000000000

      7   P      23            13.5500000    0.058905676772
      7   P      24             2.9170000    0.320461106714
      7   P      25             0.7973000    0.753042061792

      8   P      26             0.2185000    1.000000000000

      9   D      27             0.8170000    1.000000000000

 O         

     10   S      28         11720.0000000    0.000709645947
     10   S      29          1759.0000000    0.005467272292
     10   S      30           400.8000000    0.027823118610
     10   S      31           113.7000000    0.104747739711
     10   S      32            37.0300000    0.282920846357
     10   S      33            13.2700000    0.448495238698
     10   S      34             5.0250000    0.270816885213
     10   S      35             1.0130000    0.015450291607

     11   S      36         11720.0000000   -0.000314443412
     11   S      37          1759.0000000   -0.002482137681
     11   S      38           400.8000000   -0.012316355382
     11   S      39           113.7000000   -0.050538917344
     11   S      40            37.0300000   -0.139384903316
     11   S      41            13.2700000   -0.325077494818
     11   S      42             5.0250000   -0.229848307588
     11   S      43             1.0130000    1.095379346788

     12   S      44             0.3023000    1.000000000000

     13   P      45            17.7000000    0.062679166282
     13   P      46             3.8540000    0.333536565879
     13   P      47             1.0460000    0.741239641640

     14   P      48             0.2753000    1.000000000000

     15   D      49             1.1850000    1.000000000000

 TOTAL NUMBER OF BASIS SET SHELLS             =   15
 NUMBER OF CARTESIAN GAUSSIAN BASIS FUNCTIONS =   35
 NOTE: THIS RUN WILL RESTRICT THE MO VARIATION SPACE TO SPHERICAL HARMONICS.
 THE NUMBER OF ORBITALS KEPT IN THE VARIATIONAL SPACE WILL BE PRINTED LATER.
 NUMBER OF ELECTRONS                          =   16
 CHARGE OF MOLECULE                           =    0
 SPIN MULTIPLICITY                            =    1
 NUMBER OF OCCUPIED ORBITALS (ALPHA)          =    8
 NUMBER OF OCCUPIED ORBITALS (BETA )          =    8
 TOTAL NUMBER OF ATOMS                        =    3
 THE NUCLEAR REPULSION ENERGY IS       31.4008219226

     $CONTRL OPTIONS
     ---------------
 SCFTYP=MCSCF        RUNTYP=ENERGY       EXETYP=RUN     
 MPLEVL=       0     CITYP =NONE         CCTYP =NONE         VBTYP =NONE    
 DFTTYP=NONE         TDDFT =NONE    
 MULT  =       1     ICHARG=       0     NZVAR =       3     COORD =UNIQUE  
 PP    =NONE         RELWFN=NONE         LOCAL =NONE         NUMGRD=       F
 ISPHER=       1     NOSYM =       0     MAXIT =      30     UNITS =ANGS    
 PLTORB=       F     MOLPLT=       F     AIMPAC=       F     FRIEND=        
 NPRINT=       7     IREST =       0     GEOM  =INPUT   
 NORMF =       0     NORMP =       0     ITOL  =      20     ICUT  =       9
 INTTYP=BEST         GRDTYP=BEST         QMTTOL= 1.0E-06

     $SYSTEM OPTIONS
     ---------------
  REPLICATED MEMORY=     5000000 WORDS (ON EVERY NODE).
 DISTRIBUTED MEMDDI=          20 MILLION WORDS IN AGGREGATE,
 MEMDDI DISTRIBUTED OVER   1 PROCESSORS IS    20000000 WORDS/PROCESSOR.
 TOTAL MEMORY REQUESTED ON EACH PROCESSOR=    25000000 WORDS.
 TIMLIM=      525600.00 MINUTES, OR     365.0 DAYS.
 PARALL= T  BALTYP=  DLB     KDIAG=    0  COREFL= F
 MXSEQ2=     300 MXSEQ3=     150  mem10=         0

          ----------------
          PROPERTIES INPUT
          ----------------

     MOMENTS            FIELD           POTENTIAL          DENSITY
 IEMOM =       1   IEFLD =       0   IEPOT =       0   IEDEN =       0
 WHERE =COMASS     WHERE =NUCLEI     WHERE =NUCLEI     WHERE =NUCLEI  
 OUTPUT=BOTH       OUTPUT=BOTH       OUTPUT=BOTH       OUTPUT=BOTH    
 IEMINT=       0   IEFINT=       0                     IEDINT=       0
                                                       MORB  =       0

     -------------------------------
     INTEGRAL TRANSFORMATION OPTIONS
     -------------------------------
     NWORD  =            0
     CUTOFF = 1.0E-09     MPTRAN =       0
     DIRTRF =       T     AOINTS =DUP     

          ----------------------
          MCSCF INPUT PARAMETERS
          ----------------------
 CONVERGER SELECTION: FOCAS = F  SOSCF = F  FULLNR = T  QUD = F  JACOBI = F
 SECULAR EQUATION METHOD CISTEP = ALDET   
 --- GENERAL INPUT OPTIONS:
 MAXIT =      30  MICIT =       1  ACURCY= 1.000E-05
 DAMP  =   0.000  CANONC=       F  ENGTOL= 1.000E-10
 EKT   =       F  NPUNCH=       2  NWORD =         0
 REGENERATE CI AFTER CONVERGENCE = NONE    
 DIABATIZATION AFTER CONVERGENCE =        F
 --- INPUT FOR FULLNR CONVERGER:
 METHOD=DM2       FORS  =       F  DROPC =       T
 LINSER=       F  FCORE =       T  NORB  =      35
 FROZEN ORBITALS ARE:   3   4   5   6   7   8

          ----------------------
          INTEGRAL INPUT OPTIONS
          ----------------------
 NOPK  =       1 NORDER=       0 SCHWRZ=       T

   --- ENCODED Z MATRIX ---
 COORD  TYPE   I   J   K   L   M   N
    1      1    1   2
    2      1    2   3
    3      2    1   2   3

 THE DETERMINANT OF THE G MATRIX IS 10**(    -2)


                     --------------------
                     INTERNAL COORDINATES
                     --------------------

                 - - ATOMS - -         COORDINATE      COORDINATE
 NO.   TYPE    I  J  K  L  M  N        (BOHR,RAD)       (ANG,DEG)
 ----------------------------------------------------------------
   1 STRETCH   1  2                     1.9463731       1.0299763
   2 STRETCH   2  3                     2.2009641       1.1647001
   3 BEND      1  2  3                  1.9097342     109.4197103

     ------------------------------------------
     THE POINT GROUP IS CS , NAXIS= 0, ORDER= 2
     ------------------------------------------

 -- VARIATIONAL SPACE WILL BE RESTRICTED TO PURE SPHERICAL HARMONICS ONLY --
 AFTER EXCLUDING CONTAMINANT COMBINATIONS FROM THE CARTESIAN GAUSSIAN BASIS
 SET, THE NUMBER OF SPHERICAL HARMONICS KEPT IN THE VARIATION SPACE IS   33

     DIMENSIONS OF THE SYMMETRY SUBSPACES ARE
 A'  =   24     A'' =    9

 ..... DONE SETTING UP THE RUN .....
 CPU     0: STEP CPU TIME=     0.03 TOTAL CPU TIME=        0.0 (    0.0 MIN)
 TOTAL WALL CLOCK TIME=        0.0 SECONDS, CPU UTILIZATION IS 100.00%

          ********************
          1 ELECTRON INTEGRALS
          ********************
 TIME TO DO   DIPOLE INTEGRALS=      0.00
 ...... END OF ONE-ELECTRON INTEGRALS ......
 CPU     0: STEP CPU TIME=     0.00 TOTAL CPU TIME=        0.0 (    0.0 MIN)
 TOTAL WALL CLOCK TIME=        0.0 SECONDS, CPU UTILIZATION IS  75.00%

          -------------
          GUESS OPTIONS
          -------------
          GUESS =MOREAD            NORB  =      33          NORDER=       0
          MIX   =       F          PRTMO =       F          PUNMO =       F
          TOLZ  = 1.0E-08          TOLE  = 1.0E-05
          SYMDEN=       F          PURIFY=       F

 INITIAL GUESS ORBITALS GENERATED BY MOREAD   ROUTINE.

 STATISTICS FOR GENERATION OF SYMMETRY ORBITAL -Q- MATRIX
 NUMBER OF CARTESIAN ATOMIC ORBITALS=         35
 NUMBER OF SPHERICAL CONTAMINANTS DROPPED=     2
 NUMBER OF LINEARLY DEPENDENT MOS DROPPED=     0
 TOTAL NUMBER OF MOS IN VARIATION SPACE=      33

 SYMMETRIES FOR INITIAL GUESS ORBITALS FOLLOW.   BOTH SET(S).
     8 ORBITALS ARE OCCUPIED (    2 CORE ORBITALS).
     1=A'       2=A'       3=A'       4=A'       5=A'       6=A'       7=A'' 
     8=A'       9=A''     10=A'      11=A'      12=A'      13=A'      14=A'' 
    15=A'      16=A'      17=A'      18=A''     19=A'      20=A''     21=A'  
    22=A'      23=A''     24=A'      25=A'      26=A''     27=A'      28=A'  
    29=A''     30=A'      31=A''     32=A'      33=A'  
 ...... END OF INITIAL ORBITAL SELECTION ......
 CPU     0: STEP CPU TIME=     0.00 TOTAL CPU TIME=        0.0 (    0.0 MIN)
 TOTAL WALL CLOCK TIME=        0.0 SECONDS, CPU UTILIZATION IS  75.00%

                    ----------------------
                    AO INTEGRAL TECHNOLOGY
                    ----------------------
     S,P,L SHELL ROTATED AXIS INTEGRALS, REPROGRAMMED BY
        KAZUYA ISHIMURA (IMS) AND JOSE SIERRA (SYNSTAR).
     S,P,D,L SHELL ROTATED AXIS INTEGRALS PROGRAMMED BY
        KAZUYA ISHIMURA (INSTITUTE FOR MOLECULAR SCIENCE).
     S,P,D,F,G SHELL TO TOTAL QUARTET ANGULAR MOMENTUM SUM 5,
        ERIC PROGRAM BY GRAHAM FLETCHER (ELORET AND NASA ADVANCED
        SUPERCOMPUTING DIVISION, AMES RESEARCH CENTER).
     S,P,D,F,G,L SHELL GENERAL RYS QUADRATURE PROGRAMMED BY
        MICHEL DUPUIS (PACIFIC NORTHWEST NATIONAL LABORATORY).

          --------------------
          2 ELECTRON INTEGRALS
          --------------------

 DIRECT SCF METHOD SKIPS INTEGRAL STORAGE ON DISK.
 DIRECT TRANSFORMATION SKIPS AO INTEGRAL STORAGE ON DISK.
  ...... END OF TWO-ELECTRON INTEGRALS .....
 STEP CPU TIME =     0.01 TOTAL CPU TIME =        0.0 (    0.0 MIN)
 TOTAL WALL CLOCK TIME=        0.1 SECONDS, CPU UTILIZATION IS  80.00%
 DDI: Creating Array [0] - 1225 x 66 = 80850 words.
 DDI: Creating Array [1] - 22 x 726 = 15972 words.
 DDI: Creating Array [2] - 66 x 66 = 4356 words.
 DDI: Creating Array [3] - 630 x 66 = 41580 words.

          -----------------
          MCSCF CALCULATION
          -----------------

 ----- NUCLEAR ENERGY ----- =        31.4008219226

     --------------------------------------------------
          AMES LABORATORY DETERMINANTAL FULL CI
     PROGRAM WRITTEN BY JOE IVANIC AND KLAUS RUEDENBERG
     --------------------------------------------------

 THE POINT GROUP                  =   CS      
 THE STATE SYMMETRY               =   A'      
 NUMBER OF CORE ORBITALS          =    2
 NUMBER OF ACTIVE ORBITALS        =    9
 NUMBER OF ALPHA ELECTRONS        =    8 (   6 ACTIVE)
 NUMBER OF BETA ELECTRONS         =    8 (   6 ACTIVE)
 NUMBER OF OCCUPIED ORBITALS      =   11
 NUMBER OF CI STATES REQUESTED    =    1
 NUMBER OF CI STARTING VECTORS    =    1
 MAX. NO. OF CI EXPANSION VECTORS =   10
 SIZE OF INITIAL CI GUESS MATRIX  =  300
 MAX. NO. OF CI ITERS/STATE       =  100
 CI DIAGONALIZATION CRITERION     = 1.00E-05
 PURE SPIN STATE AVERAGED 1E- AND 2E- DENSITY MATRIX OPTION=.T.
 STATE=   1 DM2 WEIGHT=   1.00000

 CORRELATION ENERGY ANALYSIS      =    F

 SYMMETRIES FOR THE   2 CORE,   9 ACTIVE ARE

     CORE= A'    A'  

   ACTIVE= A'    A'    A'    A'    A''   A'    A''   A'    A'  

 EVALUATING EXCHANGE INTEGRALS FOR DIRECT INTEGRAL TRANSFORMATION
 SCHWARZ INEQUALITY OVERHEAD:       630 INTEGRALS, T=        0.00

     --------------------------------------------
     PARTIAL TWO ELECTRON INTEGRAL TRANSFORMATION
     --------------------------------------------

 NUMBER OF CORE MOLECULAR ORBITALS     =    2
 NUMBER OF OCCUPIED MOLECULAR ORBITALS =   11
 TOTAL NUMBER OF MOLECULAR ORBITALS    =   33
 TOTAL NUMBER OF ATOMIC ORBITALS       =   35
 THRESHOLD FOR KEEPING TRANSFORMED 2E- INTEGRALS = 1.000E-09

 -------------------------------     ------------------------------
 DISTRIBUTED DATA TRANSFORMATION     PROGRAM WRITTEN BY G. FLETCHER
 -------------------------------     ------------------------------

 THE DISTRIBUTED MEMORY REQUIRED FOR THIS STEP IS MEMDDI=         1 MWORDS
 CREATING DISTRIBUTED STORAGE FOR [VIR OCC|VIR OCC] INTEGRALS
 CREATING DISTRIBUTED STORAGE FOR [VIR OCC|OCC OCC] INTEGRALS
 CREATING DISTRIBUTED STORAGE FOR [OCC OCC|OCC OCC] INTEGRALS
 CREATING DISTRIBUTED STORAGE FOR [VIR VIR|OCC OCC] INTEGRALS
 FOR    1 PROCESSORS, THE REPLICATED MEMORY NEEDED IS       93147 WORDS.
 SCHWARZ INEQUALITY OVERHEAD:       630 INTEGRALS, T=        0.00

      DIRECT 4-INDEX TRANSFORMATION 
      SCHWARZ INEQUALITY TEST SKIPPED          0 INTEGRAL BLOCKS
 ----- FROZEN CORE ENERGY =      -117.2692546095
 ... END OF INTEGRAL TRANSFORMATION ...
 CPU     0: STEP CPU TIME=     0.13 TOTAL CPU TIME=        0.2 (    0.0 MIN)
 TOTAL WALL CLOCK TIME=        0.2 SECONDS, CPU UTILIZATION IS 100.00%

     --------------------------------------------------
          AMES LABORATORY DETERMINANTAL FULL CI
     PROGRAM WRITTEN BY JOE IVANIC AND KLAUS RUEDENBERG
     --------------------------------------------------

 THE NUMBER OF DETERMINANTS HAVING SPACE SYMMETRY A' 
 IN POINT GROUP CS   WITH SZ=  0.0 IS           3528
 THE DETERMINANT FULL CI REQUIRES          220307 WORDS
 INITIAL CI VECTOR GUESS TIME  :          0.1
 INITIAL FULL CI ITERATION TIME:          0.0

 ITERATION      ENERGY           GRADIENT
     0     -129.8781263984     0.30042127
     1     -129.9120882822     0.07004153
     2     -129.9135740550     0.02076591
     3     -129.9137245093     0.00791556
     4     -129.9137440822     0.00276902
     5     -129.9137464487     0.00115401
     6     -129.9137468512     0.00045756
     7     -129.9137469192     0.00017996
     8     -129.9137469297     0.00006941
     9     -129.9137469313     0.00002438
    10     -129.9137469314     0.00000999

 CONVERGED STATE    1 ENERGY=     -129.9137469314 IN   10 ITERS

 ALL STATES CONVERGED.

 CI EIGENVECTORS WILL BE LABELED IN GROUP=CS      
 PRINTING CI COEFFICIENTS LARGER THAN 5.000E-02

 STATE   1  ENERGY=      -129.9137469314  S=  0.00  SZ=  0.00  SPACE SYM=A'  

  ALPHA    |  BETA     | CI COEFFICIENT
-----------|-----------|---------------
 111111000 | 111111000 |   0.9632740360
 111101100 | 111101100 |  -0.1750807525
 111110100 | 111110100 |  -0.0545085221
 ..... DONE WITH DETERMINANT CI COMPUTATION .....
 CPU     0: STEP CPU TIME=     0.09 TOTAL CPU TIME=        0.3 (    0.0 MIN)
 TOTAL WALL CLOCK TIME=        0.3 SECONDS, CPU UTILIZATION IS 100.00%

     --------------------------------------------------
      ONE AND TWO PARTICLE DENSITY MATRIX COMPUTATION
     PROGRAM WRITTEN BY JOE IVANIC AND KLAUS RUEDENBERG
     --------------------------------------------------

      39086 WORDS WILL BE USED TO FORM THE DENSITIES
 THE DENSITIES ARE STATE AVERAGED OVER   1 ROOT(S)
 STATE=   1   ENERGY=     -129.9137469314   WEIGHT= 1.00000   S=  0.00
 SIEVING THE A'   SYMMETRY NONZERO DENSITY ELEMENTS IN GROUP CS      
        601 NONZERO DM2 ELEMENTS WRITTEN IN       1 RECORDS TO FILE 15
 ..... DONE WITH 1 AND 2 PARTICLE DENSITY MATRIX .....
 CPU     0: STEP CPU TIME=     0.01 TOTAL CPU TIME=        0.3 (    0.0 MIN)
 TOTAL WALL CLOCK TIME=        0.3 SECONDS, CPU UTILIZATION IS 100.00%

     --------------------------------     -----------------------------
     MCHF NEWTON-RAPHSON OPTIMIZATION     CODE WRITTEN BY MICHEL DUPUIS
     --------------------------------     -----------------------------
     PARALLEL VERSION WRITTEN BY G. FLETCHER (ELORET)
     NASA ADVANCED SUPERCOMPUTING DIVISION, AMES RESEARCH CENTER

 GRAD=  7.768888E-08 FOR ORB. ROTATION I,J=    5    3 EXCEEDS TOLERANCE.
 GRAD=  1.359993E-07 FOR ORB. ROTATION I,J=    5    4 EXCEEDS TOLERANCE.
 GRAD=  2.002292E-08 FOR ORB. ROTATION I,J=    6    3 EXCEEDS TOLERANCE.
 GRAD=  2.298527E-08 FOR ORB. ROTATION I,J=    6    5 EXCEEDS TOLERANCE.
 GRAD=  7.103877E-08 FOR ORB. ROTATION I,J=    8    3 EXCEEDS TOLERANCE.
 GRAD=  2.156042E-07 FOR ORB. ROTATION I,J=    8    4 EXCEEDS TOLERANCE.
 GRAD=  4.413134E-08 FOR ORB. ROTATION I,J=    8    5 EXCEEDS TOLERANCE.
 GRAD=  3.413041E-08 FOR ORB. ROTATION I,J=    8    6 EXCEEDS TOLERANCE.
 GRAD=  1.825179E-07 FOR ORB. ROTATION I,J=    9    7 EXCEEDS TOLERANCE.
 GRAD=  5.040257E-07 FOR ORB. ROTATION I,J=   10    3 EXCEEDS TOLERANCE.
 GRAD=  6.791025E-07 FOR ORB. ROTATION I,J=   10    4 EXCEEDS TOLERANCE.
 GRAD=  4.225030E-07 FOR ORB. ROTATION I,J=   10    5 EXCEEDS TOLERANCE.
 GRAD=  1.599075E-07 FOR ORB. ROTATION I,J=   10    6 EXCEEDS TOLERANCE.
 GRAD=  1.590160E-07 FOR ORB. ROTATION I,J=   10    8 EXCEEDS TOLERANCE.
 GRAD=  6.693050E-07 FOR ORB. ROTATION I,J=   11    3 EXCEEDS TOLERANCE.
 GRAD=  2.092743E-07 FOR ORB. ROTATION I,J=   11    4 EXCEEDS TOLERANCE.
 GRAD=  3.026341E-07 FOR ORB. ROTATION I,J=   11    5 EXCEEDS TOLERANCE.
 GRAD=  1.701432E-07 FOR ORB. ROTATION I,J=   11    8 EXCEEDS TOLERANCE.
 GRAD=  1.231308E-04 FOR ORB. ROTATION I,J=   12    3 EXCEEDS TOLERANCE.
 GRAD=  8.990602E-03 FOR ORB. ROTATION I,J=   12    4 EXCEEDS TOLERANCE.
 GRAD=  2.767707E-03 FOR ORB. ROTATION I,J=   12    5 EXCEEDS TOLERANCE.
 GRAD=  4.638828E-03 FOR ORB. ROTATION I,J=   12    6 EXCEEDS TOLERANCE.
 GRAD=  9.556266E-03 FOR ORB. ROTATION I,J=   12    8 EXCEEDS TOLERANCE.
 GRAD=  3.439539E-03 FOR ORB. ROTATION I,J=   13    3 EXCEEDS TOLERANCE.
 GRAD=  4.651698E-03 FOR ORB. ROTATION I,J=   13    4 EXCEEDS TOLERANCE.
 GRAD=  2.662870E-04 FOR ORB. ROTATION I,J=   13    5 EXCEEDS TOLERANCE.
 GRAD=  2.647598E-03 FOR ORB. ROTATION I,J=   13    6 EXCEEDS TOLERANCE.
 GRAD=  1.815298E-03 FOR ORB. ROTATION I,J=   13    8 EXCEEDS TOLERANCE.
 GRAD=  3.892293E-02 FOR ORB. ROTATION I,J=   14    7 EXCEEDS TOLERANCE.
 GRAD=  8.552459E-04 FOR ORB. ROTATION I,J=   15    3 EXCEEDS TOLERANCE.
 GRAD=  2.000138E-03 FOR ORB. ROTATION I,J=   15    4 EXCEEDS TOLERANCE.
 GRAD=  1.653377E-03 FOR ORB. ROTATION I,J=   15    5 EXCEEDS TOLERANCE.
 GRAD=  2.820214E-04 FOR ORB. ROTATION I,J=   15    6 EXCEEDS TOLERANCE.
 GRAD=  2.389105E-03 FOR ORB. ROTATION I,J=   15    8 EXCEEDS TOLERANCE.
 GRAD=  3.483171E-03 FOR ORB. ROTATION I,J=   16    3 EXCEEDS TOLERANCE.
 GRAD=  2.586788E-03 FOR ORB. ROTATION I,J=   16    4 EXCEEDS TOLERANCE.
 GRAD=  7.268650E-03 FOR ORB. ROTATION I,J=   16    5 EXCEEDS TOLERANCE.
 GRAD=  8.705176E-03 FOR ORB. ROTATION I,J=   16    6 EXCEEDS TOLERANCE.
 GRAD=  2.131998E-03 FOR ORB. ROTATION I,J=   16    8 EXCEEDS TOLERANCE.
 GRAD=  2.617873E-03 FOR ORB. ROTATION I,J=   17    3 EXCEEDS TOLERANCE.
 GRAD=  3.072952E-03 FOR ORB. ROTATION I,J=   17    4 EXCEEDS TOLERANCE.
 GRAD=  7.497277E-03 FOR ORB. ROTATION I,J=   17    5 EXCEEDS TOLERANCE.
 GRAD=  4.280304E-03 FOR ORB. ROTATION I,J=   17    6 EXCEEDS TOLERANCE.
 GRAD=  4.604728E-03 FOR ORB. ROTATION I,J=   17    8 EXCEEDS TOLERANCE.
 GRAD=  4.095573E-02 FOR ORB. ROTATION I,J=   18    7 EXCEEDS TOLERANCE.
 GRAD=  6.459474E-03 FOR ORB. ROTATION I,J=   19    3 EXCEEDS TOLERANCE.
 GRAD=  1.337303E-03 FOR ORB. ROTATION I,J=   19    4 EXCEEDS TOLERANCE.
 GRAD=  3.431523E-04 FOR ORB. ROTATION I,J=   19    5 EXCEEDS TOLERANCE.
 GRAD=  2.607355E-03 FOR ORB. ROTATION I,J=   19    6 EXCEEDS TOLERANCE.
 GRAD=  1.150875E-02 FOR ORB. ROTATION I,J=   19    8 EXCEEDS TOLERANCE.
 GRAD=  2.013837E-03 FOR ORB. ROTATION I,J=   20    7 EXCEEDS TOLERANCE.
 GRAD=  1.724636E-03 FOR ORB. ROTATION I,J=   21    3 EXCEEDS TOLERANCE.
 GRAD=  1.147352E-03 FOR ORB. ROTATION I,J=   21    4 EXCEEDS TOLERANCE.
 GRAD=  2.927200E-03 FOR ORB. ROTATION I,J=   21    5 EXCEEDS TOLERANCE.
 GRAD=  1.096798E-03 FOR ORB. ROTATION I,J=   21    6 EXCEEDS TOLERANCE.
 GRAD=  5.529720E-03 FOR ORB. ROTATION I,J=   21    8 EXCEEDS TOLERANCE.
 GRAD=  8.972796E-03 FOR ORB. ROTATION I,J=   22    3 EXCEEDS TOLERANCE.
 GRAD=  3.913913E-03 FOR ORB. ROTATION I,J=   22    4 EXCEEDS TOLERANCE.
 GRAD=  2.362629E-03 FOR ORB. ROTATION I,J=   22    5 EXCEEDS TOLERANCE.
 GRAD=  1.612411E-03 FOR ORB. ROTATION I,J=   22    6 EXCEEDS TOLERANCE.
 GRAD=  3.894445E-03 FOR ORB. ROTATION I,J=   22    8 EXCEEDS TOLERANCE.
 GRAD=  3.625624E-02 FOR ORB. ROTATION I,J=   23    7 EXCEEDS TOLERANCE.
 GRAD=  3.521044E-04 FOR ORB. ROTATION I,J=   24    3 EXCEEDS TOLERANCE.
 GRAD=  1.305230E-02 FOR ORB. ROTATION I,J=   24    4 EXCEEDS TOLERANCE.
 GRAD=  1.031673E-02 FOR ORB. ROTATION I,J=   24    5 EXCEEDS TOLERANCE.
 GRAD=  9.818419E-04 FOR ORB. ROTATION I,J=   24    6 EXCEEDS TOLERANCE.
 GRAD=  1.220099E-02 FOR ORB. ROTATION I,J=   24    8 EXCEEDS TOLERANCE.
 GRAD=  1.403721E-03 FOR ORB. ROTATION I,J=   25    3 EXCEEDS TOLERANCE.
 GRAD=  8.507115E-03 FOR ORB. ROTATION I,J=   25    4 EXCEEDS TOLERANCE.
 GRAD=  2.242720E-03 FOR ORB. ROTATION I,J=   25    5 EXCEEDS TOLERANCE.
 GRAD=  1.048333E-03 FOR ORB. ROTATION I,J=   25    6 EXCEEDS TOLERANCE.
 GRAD=  3.226069E-03 FOR ORB. ROTATION I,J=   25    8 EXCEEDS TOLERANCE.
 GRAD=  9.864749E-03 FOR ORB. ROTATION I,J=   26    7 EXCEEDS TOLERANCE.
 GRAD=  1.159193E-02 FOR ORB. ROTATION I,J=   27    3 EXCEEDS TOLERANCE.
 GRAD=  4.968636E-03 FOR ORB. ROTATION I,J=   27    4 EXCEEDS TOLERANCE.
 GRAD=  1.332694E-02 FOR ORB. ROTATION I,J=   27    5 EXCEEDS TOLERANCE.
 GRAD=  1.124093E-02 FOR ORB. ROTATION I,J=   27    6 EXCEEDS TOLERANCE.
 GRAD=  3.558237E-03 FOR ORB. ROTATION I,J=   27    8 EXCEEDS TOLERANCE.
 GRAD=  8.908378E-03 FOR ORB. ROTATION I,J=   28    3 EXCEEDS TOLERANCE.
 GRAD=  7.435311E-03 FOR ORB. ROTATION I,J=   28    4 EXCEEDS TOLERANCE.
 GRAD=  5.149778E-03 FOR ORB. ROTATION I,J=   28    5 EXCEEDS TOLERANCE.
 GRAD=  4.015557E-03 FOR ORB. ROTATION I,J=   28    6 EXCEEDS TOLERANCE.
 GRAD=  3.112088E-03 FOR ORB. ROTATION I,J=   28    8 EXCEEDS TOLERANCE.
 GRAD=  2.470409E-03 FOR ORB. ROTATION I,J=   29    7 EXCEEDS TOLERANCE.
 GRAD=  7.700413E-03 FOR ORB. ROTATION I,J=   30    3 EXCEEDS TOLERANCE.
 GRAD=  1.928403E-03 FOR ORB. ROTATION I,J=   30    4 EXCEEDS TOLERANCE.
 GRAD=  1.343218E-04 FOR ORB. ROTATION I,J=   30    5 EXCEEDS TOLERANCE.
 GRAD=  1.714338E-03 FOR ORB. ROTATION I,J=   30    6 EXCEEDS TOLERANCE.
 GRAD=  8.179505E-03 FOR ORB. ROTATION I,J=   30    8 EXCEEDS TOLERANCE.
 GRAD=  7.739825E-03 FOR ORB. ROTATION I,J=   31    7 EXCEEDS TOLERANCE.
 GRAD=  1.041161E-03 FOR ORB. ROTATION I,J=   32    3 EXCEEDS TOLERANCE.
 GRAD=  4.154303E-04 FOR ORB. ROTATION I,J=   32    4 EXCEEDS TOLERANCE.
 GRAD=  1.871665E-04 FOR ORB. ROTATION I,J=   32    5 EXCEEDS TOLERANCE.
 GRAD=  5.815321E-04 FOR ORB. ROTATION I,J=   32    6 EXCEEDS TOLERANCE.
 GRAD=  1.875816E-03 FOR ORB. ROTATION I,J=   32    8 EXCEEDS TOLERANCE.
 GRAD=  8.517756E-03 FOR ORB. ROTATION I,J=   33    3 EXCEEDS TOLERANCE.
 GRAD=  1.583574E-03 FOR ORB. ROTATION I,J=   33    4 EXCEEDS TOLERANCE.
 GRAD=  5.419079E-03 FOR ORB. ROTATION I,J=   33    5 EXCEEDS TOLERANCE.
 GRAD=  8.658545E-03 FOR ORB. ROTATION I,J=   33    6 EXCEEDS TOLERANCE.
 GRAD=  3.498334E-03 FOR ORB. ROTATION I,J=   33    8 EXCEEDS TOLERANCE.
 NUMBER OF INDEPENDENT ORBITAL ROTATION PARAMETERS =    38
 ..... DONE SOLVING NEWTON-RAPHSON EQUATIONS .....
 CPU     0: STEP CPU TIME=     0.01 TOTAL CPU TIME=        0.3 (    0.0 MIN)
 TOTAL WALL CLOCK TIME=        0.3 SECONDS, CPU UTILIZATION IS  96.55%
 ..... DONE WITH NTN-RPH ORBITAL ROTATIONS ..... 
 CPU     0: STEP CPU TIME=     0.00 TOTAL CPU TIME=        0.3 (    0.0 MIN)
 TOTAL WALL CLOCK TIME=        0.3 SECONDS, CPU UTILIZATION IS  96.55%
 MAXIMUM MEMORY USED BY NTN-RPH CODE WAS     42820 WORDS.

 ITER     TOTAL ENERGY      DEL(E)  LAGRANGIAN ASYMMETRY   SQCDF  MICIT   DAMP
   1     -129.913746931 -0.913746931  0.040956   18    7 1.265E-01  1   0.0000
   2     -129.924475621 -0.010728690  0.046210   18    7 1.068E-02  1   0.0000
   3     -129.925253418 -0.000777797  0.047028   18    7 6.982E-04  1   0.0000
   4     -129.925319785 -0.000066367  0.047268   18    7 1.365E-04  1   0.0000
   5     -129.925333458 -0.000013673  0.047383   18    7 3.664E-05  1   0.0000
   6     -129.925337075 -0.000003617  0.047444   18    7 1.062E-05  1   0.0000
   7     -129.925338108 -0.000001034  0.047478   18    7 3.156E-06  1   0.0000
   8     -129.925338412 -0.000000304  0.047496   18    7 9.274E-07  1   0.0000
   9     -129.925338503 -0.000000090  0.047506   18    7 2.893E-07  1   0.0000
  10     -129.925338530 -0.000000027  0.047511   18    7 8.757E-08  1   0.0000
  11     -129.925338538 -0.000000008  0.047515   18    7 2.627E-08  1   0.0000
  12     -129.925338541 -0.000000002  0.047516   18    7 4.733E-09  1   0.0000
  13     -129.925338541 -0.000000001  0.047517   18    7 0.000E+00  1   0.0000
  14     -129.925338541 -0.000000000  0.047517   18    7 0.000E+00  1   0.0000

          ----------------
          ENERGY CONVERGED
          ----------------

 FINAL MCSCF ENERGY IS     -129.9253385413 AFTER  14 ITERATIONS

 -MCCI- BASED ON OPTIMIZED ORBITALS
 ----------------------------------

 PLEASE NOTE: IF THE ACTIVE ORBITALS ARE CANONICALIZED BELOW,
 THE FOLLOWING CI EXPANSION COEFFICIENTS AND THE DENSITY DO NOT
 CORRESPOND TO THE PRINTED ORBITALS.  THE PRINTED EXPANSIONS MATCH
 THE ORBITALS USED DURING THE LAST ITERATION.  IF YOU WISH TO SEE
 CI EXPANSIONS BASED ON THE CANONICAL (OR NATURAL) ORBITALS, YOU
 MUST RUN A CI CALCULATION WITH THAT ORBITAL CHOICE READ IN $VEC.

 CI EIGENVECTORS WILL BE LABELED IN GROUP=CS      
 PRINTING CI COEFFICIENTS LARGER THAN 5.000E-02

 STATE   1  ENERGY=      -129.9253385413  S=  0.00  SZ=  0.00  SPACE SYM=A'  

  ALPHA    |  BETA     | CI COEFFICIENT
-----------|-----------|---------------
 111111000 | 111111000 |   0.9658040671
 111101100 | 111101100 |  -0.1647971658
 111110010 | 111110010 |  -0.0508324935

 DENSITY MATRIX OVER ACTIVE MO-S

             1           2           3           4           5

    1    1.9911155
    2    0.0026246   1.9886768
    3    0.0047083   0.0050321   1.9853036
    4   -0.0075954   0.0007133   0.0065553   1.9883325
    5    0.0000000   0.0000000   0.0000000   0.0000000   1.9267633
    6    0.0027265  -0.0035877   0.0039893   0.0015581   0.0000000
    7    0.0000000   0.0000000   0.0000000   0.0000000   0.0134371
    8    0.0020984   0.0027284  -0.0081176  -0.0114917   0.0000000
    9   -0.0046425  -0.0099556  -0.0037072  -0.0100506   0.0000000

             6           7           8           9

    6    1.9835414
    7    0.0000000   0.0814078
    8   -0.0373567   0.0000000   0.0285234
    9    0.0036098   0.0000000  -0.0002560   0.0263357

 NO ORBITALS WILL BE CANONICALIZED

          ----------------------
          MCSCF NATURAL ORBITALS
          ----------------------

                      1          2          3          4          5
                    2.0000     2.0000     1.9979     1.9962     1.9902
                     A'         A'         A'         A'         A'  
    1  H  1  S   -0.000362  -0.000369   0.027661  -0.058425   0.027556
    2  H  1  S    0.000221   0.000899   0.013885  -0.015598  -0.058396
    3  H  1  X   -0.000054  -0.000259  -0.000222   0.001934   0.003974
    4  H  1  Y    0.000001   0.000796  -0.010558   0.006377  -0.022732
    5  H  1  Z    0.000000   0.000000   0.000000   0.000000   0.000000
    6  N  2  S    0.000008   1.001045  -0.010657  -0.006756   0.002148
    7  N  2  S   -0.000233   0.001497   0.179061  -0.234739   0.349832
    8  N  2  S    0.002701  -0.002539   0.168116  -0.253307   0.416474
    9  N  2  X   -0.000173   0.001917  -0.040977   0.125243  -0.156669
   10  N  2  Y    0.000044   0.001878  -0.093582   0.198879  -0.061965
   11  N  2  Z    0.000000   0.000000   0.000000   0.000000   0.000000
   12  N  2  X    0.001492   0.000011  -0.053392   0.074401  -0.110051
   13  N  2  Y    0.000131  -0.000828  -0.071536   0.091661  -0.129122
   14  N  2  Z    0.000000   0.000000   0.000000   0.000000   0.000000
   15  N  2 XX   -0.000536   0.000620   0.015884   0.007094  -0.006074
   16  N  2 YY    0.000293   0.000179  -0.013118  -0.000728  -0.000588
   17  N  2 ZZ    0.000243  -0.000799  -0.002766  -0.006366   0.006661
   18  N  2 XY   -0.000019  -0.000110  -0.007422   0.036239   0.022250
   19  N  2 XZ    0.000000   0.000000   0.000000   0.000000   0.000000
   20  N  2 YZ    0.000000   0.000000   0.000000   0.000000   0.000000
   21  O  3  S    1.001118  -0.000169  -0.007205   0.000013  -0.005363
   22  O  3  S    0.001505   0.000164   0.425650   0.184861  -0.124079
   23  O  3  S   -0.005504  -0.000848   0.482105   0.235755  -0.160599
   24  O  3  X   -0.001969   0.000189   0.134983   0.082347  -0.081503
   25  O  3  Y    0.000077  -0.000046  -0.084176   0.470104   0.443912
   26  O  3  Z    0.000000   0.000000   0.000000   0.000000   0.000000
   27  O  3  X    0.002085   0.000928   0.112659   0.041101  -0.033571
   28  O  3  Y   -0.000086   0.000133  -0.042000   0.310833   0.345913
   29  O  3  Z    0.000000   0.000000   0.000000   0.000000   0.000000
   30  O  3 XX    0.000203  -0.000557   0.000879  -0.006607   0.009180
   31  O  3 YY    0.000157   0.000203  -0.000499   0.005338  -0.005445
   32  O  3 ZZ   -0.000360   0.000354  -0.000381   0.001270  -0.003735
   33  O  3 XY    0.000014   0.000036   0.005322  -0.019782  -0.010959
   34  O  3 XZ    0.000000   0.000000   0.000000   0.000000   0.000000
   35  O  3 YZ    0.000000   0.000000   0.000000   0.000000   0.000000

                      6          7          8          9         10
                    1.9785     1.9751     1.9269     0.0813     0.0277
                     A'         A'         A''        A''        A'  
    1  H  1  S    0.383516   0.259375  -0.000000   0.000000   0.880277
    2  H  1  S    0.084757   0.095167  -0.000000   0.000000   0.234829
    3  H  1  X    0.018185   0.000313  -0.000000   0.000000  -0.012275
    4  H  1  Y   -0.030695  -0.022751  -0.000000   0.000000   0.002686
    5  H  1  Z    0.000000  -0.000000   0.010282  -0.006040  -0.000000
    6  N  2  S    0.002710  -0.009553  -0.000000   0.000000  -0.107512
    7  N  2  S    0.124209  -0.086313  -0.000000   0.000000  -0.434455
    8  N  2  S   -0.140350   0.046639  -0.000000   0.000000  -0.355833
    9  N  2  X    0.201656  -0.406545  -0.000000   0.000000   0.010849
   10  N  2  Y    0.444631   0.194486  -0.000000   0.000000  -0.691938
   11  N  2  Z    0.000000  -0.000000   0.378856  -0.628558  -0.000000
   12  N  2  X    0.102061  -0.094691  -0.000000   0.000000   0.035569
   13  N  2  Y    0.274920   0.081038  -0.000000   0.000000  -0.130072
   14  N  2  Z    0.000000  -0.000000   0.255174  -0.291252  -0.000000
   15  N  2 XX    0.005667  -0.044913  -0.000000   0.000000   0.013716
   16  N  2 YY    0.015683   0.035355  -0.000000   0.000000  -0.008664
   17  N  2 ZZ   -0.021350   0.009558  -0.000000   0.000000  -0.005052
   18  N  2 XY   -0.001626  -0.013676  -0.000000   0.000000  -0.062062
   19  N  2 XZ    0.000000  -0.000000   0.052035  -0.021289  -0.000000
   20  N  2 YZ    0.000000  -0.000000   0.011577  -0.010763  -0.000000
   21  O  3  S    0.001595  -0.000315  -0.000000   0.000000   0.013245
   22  O  3  S    0.029529  -0.071789  -0.000000   0.000000   0.071660
   23  O  3  S   -0.054123   0.039735  -0.000000   0.000000   0.078061
   24  O  3  X   -0.233957   0.442213  -0.000000   0.000000  -0.225560
   25  O  3  Y   -0.150923  -0.045223  -0.000000   0.000000   0.277258
   26  O  3  Z    0.000000  -0.000000   0.455625   0.631685  -0.000000
   27  O  3  X   -0.125167   0.240466  -0.000000   0.000000  -0.050453
   28  O  3  Y   -0.177530  -0.058295  -0.000000   0.000000  -0.086970
   29  O  3  Z    0.000000  -0.000000   0.315570   0.212415  -0.000000
   30  O  3 XX    0.018906  -0.029613  -0.000000   0.000000   0.005885
   31  O  3 YY   -0.009476   0.016128  -0.000000   0.000000  -0.004033
   32  O  3 ZZ   -0.009431   0.013486  -0.000000   0.000000  -0.001851
   33  O  3 XY   -0.010777  -0.004137  -0.000000   0.000000   0.011975
   34  O  3 XZ    0.000000  -0.000000  -0.036630   0.001155  -0.000000
   35  O  3 YZ    0.000000  -0.000000   0.001835  -0.001797  -0.000000

                     11
                    0.0262
                     A'  
    1  H  1  S    0.196629
    2  H  1  S    0.046074
    3  H  1  X    0.000470
    4  H  1  Y    0.009169
    5  H  1  Z   -0.000000
    6  N  2  S    0.091720
    7  N  2  S    0.358554
    8  N  2  S    0.203555
    9  N  2  X    0.824005
   10  N  2  Y   -0.164000
   11  N  2  Z   -0.000000
   12  N  2  X    0.249088
   13  N  2  Y   -0.039075
   14  N  2  Z   -0.000000
   15  N  2 XX    0.018757
   16  N  2 YY   -0.016161
   17  N  2 ZZ   -0.002595
   18  N  2 XY   -0.007337
   19  N  2 XZ   -0.000000
   20  N  2 YZ   -0.000000
   21  O  3  S   -0.062377
   22  O  3  S   -0.314985
   23  O  3  S   -0.397877
   24  O  3  X    0.752738
   25  O  3  Y    0.087149
   26  O  3  Z   -0.000000
   27  O  3  X    0.184110
   28  O  3  Y   -0.045200
   29  O  3  Z   -0.000000
   30  O  3 XX    0.006463
   31  O  3 YY    0.006614
   32  O  3 ZZ   -0.013077
   33  O  3 XY    0.010847
   34  O  3 XZ   -0.000000
   35  O  3 YZ   -0.000000

          ------------------------
          MCSCF OPTIMIZED ORBITALS
          ------------------------

                      1          2          3          4          5
                    0.0000     0.0000     0.0000     0.0000     0.0000
                     A'         A'         A'         A'         A'  
    1  H  1  S   -0.000362  -0.000369   0.068027  -0.266774   0.221284
    2  H  1  S    0.000221   0.000899  -0.006288  -0.020150   0.065149
    3  H  1  X   -0.000054  -0.000259   0.007611  -0.010468   0.005156
    4  H  1  Y    0.000001   0.000796  -0.015279   0.034782  -0.022201
    5  H  1  Z    0.000000   0.000000   0.000000   0.000000   0.000000
    6  N  2  S    0.000008   1.001045  -0.003449  -0.005838  -0.012299
    7  N  2  S   -0.000233   0.001497   0.280278  -0.339094  -0.109762
    8  N  2  S    0.002701  -0.002539   0.127884  -0.301876  -0.066865
    9  N  2  X   -0.000173   0.001917   0.185573   0.144834  -0.194847
   10  N  2  Y    0.000044   0.001878   0.020139  -0.138346   0.314644
   11  N  2  Z    0.000000   0.000000   0.000000   0.000000   0.000000
   12  N  2  X    0.001492   0.000011   0.017885   0.068509  -0.024576
   13  N  2  Y    0.000131  -0.000828  -0.002774  -0.030938   0.131723
   14  N  2  Z    0.000000   0.000000   0.000000   0.000000   0.000000
   15  N  2 XX   -0.000536   0.000620   0.032143   0.017728  -0.023759
   16  N  2 YY    0.000293   0.000179  -0.018759  -0.017562   0.024458
   17  N  2 ZZ    0.000243  -0.000799  -0.013384  -0.000166  -0.000699
   18  N  2 XY   -0.000019  -0.000110   0.005466   0.001453   0.015894
   19  N  2 XZ    0.000000   0.000000   0.000000   0.000000   0.000000
   20  N  2 YZ    0.000000   0.000000   0.000000   0.000000   0.000000
   21  O  3  S    1.001118  -0.000169  -0.006267   0.000940  -0.002089
   22  O  3  S    0.001505   0.000164   0.371153   0.274923   0.129942
   23  O  3  S   -0.005504  -0.000848   0.336390   0.353164   0.230535
   24  O  3  X   -0.001969   0.000189  -0.164813   0.152156   0.333425
   25  O  3  Y    0.000077  -0.000046   0.006864  -0.055254   0.306107
   26  O  3  Z    0.000000   0.000000   0.000000   0.000000   0.000000
   27  O  3  X    0.002085   0.000928  -0.055868   0.081479   0.187310
   28  O  3  Y   -0.000086   0.000133   0.007089  -0.028397   0.178242
   29  O  3  Z    0.000000   0.000000   0.000000   0.000000   0.000000
   30  O  3 XX    0.000203  -0.000557   0.021083  -0.011942  -0.020118
   31  O  3 YY    0.000157   0.000203  -0.011132   0.007229   0.012192
   32  O  3 ZZ   -0.000360   0.000354  -0.009951   0.004713   0.007926
   33  O  3 XY    0.000014   0.000036  -0.001578   0.006458  -0.018442
   34  O  3 XZ    0.000000   0.000000   0.000000   0.000000   0.000000
   35  O  3 YZ    0.000000   0.000000   0.000000   0.000000   0.000000

                      6          7          8          9         10
                    0.0000     0.0000     0.0000     0.0000     0.0000
                     A'         A''        A'         A''        A'  
    1  H  1  S   -0.048831   0.000000  -0.288878   0.000000   0.904964
    2  H  1  S   -0.042937   0.000000  -0.111925   0.000000   0.241277
    3  H  1  X    0.007578   0.000000  -0.010092   0.000000  -0.011932
    4  H  1  Y    0.008503   0.000000   0.011108   0.000000   0.003945
    5  H  1  Z    0.000000   0.010238   0.000000   0.006115   0.000000
    6  N  2  S    0.007611   0.000000  -0.002939   0.000000  -0.091855
    7  N  2  S   -0.101552   0.000000   0.117268   0.000000  -0.374632
    8  N  2  S   -0.261527   0.000000   0.320467   0.000000  -0.324379
    9  N  2  X    0.368706   0.000000  -0.150903   0.000000   0.141228
   10  N  2  Y    0.197936   0.000000  -0.368530   0.000000  -0.704775
   11  N  2  Z    0.000000   0.374270   0.000000   0.631300   0.000000
   12  N  2  X    0.145614   0.000000  -0.115946   0.000000   0.075588
   13  N  2  Y    0.124407   0.000000  -0.282086   0.000000  -0.130529
   14  N  2  Z    0.000000   0.253047   0.000000   0.293103   0.000000
   15  N  2 XX    0.021844   0.000000   0.002791   0.000000   0.016454
   16  N  2 YY   -0.007786   0.000000  -0.018924   0.000000  -0.010820
   17  N  2 ZZ   -0.014058   0.000000   0.016133   0.000000  -0.005634
   18  N  2 XY    0.033579   0.000000   0.023495   0.000000  -0.063161
   19  N  2 XZ    0.000000   0.051879   0.000000   0.021667   0.000000
   20  N  2 YZ    0.000000   0.011499   0.000000   0.010847   0.000000
   21  O  3  S    0.003428   0.000000  -0.004963   0.000000   0.003430
   22  O  3  S   -0.068655   0.000000  -0.019068   0.000000   0.022654
   23  O  3  S   -0.159254   0.000000   0.010706   0.000000   0.015661
   24  O  3  X   -0.340207   0.000000   0.056946   0.000000  -0.105822
   25  O  3  Y    0.337176   0.000000   0.496702   0.000000   0.274753
   26  O  3  Z    0.000000   0.460213   0.000000  -0.628351   0.000000
   27  O  3  X   -0.205782   0.000000   0.040037   0.000000  -0.021397
   28  O  3  Y    0.208536   0.000000   0.418153   0.000000  -0.102933
   29  O  3  Z    0.000000   0.317108   0.000000  -0.210112   0.000000
   30  O  3 XX    0.019003   0.000000  -0.003199   0.000000   0.006861
   31  O  3 YY   -0.009035   0.000000   0.001210   0.000000  -0.002975
   32  O  3 ZZ   -0.009968   0.000000   0.001989   0.000000  -0.003886
   33  O  3 XY   -0.016628   0.000000  -0.002139   0.000000   0.013743
   34  O  3 XZ    0.000000  -0.036621   0.000000  -0.001422   0.000000
   35  O  3 YZ    0.000000   0.001822   0.000000   0.001810   0.000000

                     11         12         13         14         15
                    0.0000     0.0000     0.0000     0.0000     0.0000
                     A'         A'         A'         A''        A'  
    1  H  1  S    0.057375  -0.595948   0.022052   0.000000  -0.714509
    2  H  1  S    0.008880   1.909223   0.073021   0.000000  -0.186702
    3  H  1  X    0.002347   0.098906  -0.006026   0.000000  -0.108414
    4  H  1  Y    0.008517  -0.238130  -0.029016   0.000000   0.095757
    5  H  1  Z    0.000000   0.000000   0.000000   0.003050   0.000000
    6  N  2  S    0.107391   0.063174  -0.174061   0.000000   0.178997
    7  N  2  S    0.423952   0.066280  -0.291601   0.000000   0.514657
    8  N  2  S    0.259869  -0.953122   1.905400   0.000000   0.148919
    9  N  2  X    0.809268   0.067843  -0.471294   0.000000  -0.123733
   10  N  2  Y   -0.055666   0.096014  -0.056532   0.000000  -0.660420
   11  N  2  Z    0.000000   0.000000   0.000000  -0.901215   0.000000
   12  N  2  X    0.239192   0.193022   2.220495   0.000000   0.006447
   13  N  2  Y   -0.019544  -0.509914  -0.033777   0.000000   1.474832
   14  N  2  Z    0.000000   0.000000   0.000000   1.171467   0.000000
   15  N  2 XX    0.016159   0.036086   0.108489   0.000000   0.019111
   16  N  2 YY   -0.014519  -0.131782  -0.064714   0.000000  -0.043277
   17  N  2 ZZ   -0.001639   0.095696  -0.043774   0.000000   0.024166
   18  N  2 XY    0.002257   0.077411   0.008989   0.000000  -0.044274
   19  N  2 XZ    0.000000   0.000000   0.000000  -0.067267   0.000000
   20  N  2 YZ    0.000000   0.000000   0.000000   0.004429   0.000000
   21  O  3  S   -0.063694  -0.011093   0.035496   0.000000   0.031381
   22  O  3  S   -0.324516  -0.070849  -0.075059   0.000000   0.061085
   23  O  3  S   -0.407376  -0.142288  -2.035235   0.000000  -0.135843
   24  O  3  X    0.779587  -0.038510  -0.039791   0.000000  -0.021302
   25  O  3  Y    0.041709  -0.044114  -0.024661   0.000000  -0.188750
   26  O  3  Z    0.000000   0.000000   0.000000  -0.182319   0.000000
   27  O  3  X    0.190233   0.041624   1.015653   0.000000   0.170658
   28  O  3  Y   -0.031579   0.010818   0.037270   0.000000  -0.168675
   29  O  3  Z    0.000000   0.000000   0.000000  -0.157688   0.000000
   30  O  3 XX    0.005411   0.000166  -0.124504   0.000000   0.023233
   31  O  3 YY    0.007178  -0.002538   0.061376   0.000000  -0.022654
   32  O  3 ZZ   -0.012589   0.002372   0.063129   0.000000  -0.000579
   33  O  3 XY    0.008932  -0.021326   0.002029   0.000000   0.028768
   34  O  3 XZ    0.000000   0.000000   0.000000   0.053517   0.000000
   35  O  3 YZ    0.000000   0.000000   0.000000  -0.000046   0.000000

                     16         17         18         19         20
                    0.0000     0.0000     0.0000     0.0000     0.0000
                     A'         A'         A''        A'         A'' 
    1  H  1  S   -0.159625   0.006357   0.000000  -0.794941   0.000000
    2  H  1  S   -0.289429  -0.561835   0.000000  -0.861038   0.000000
    3  H  1  X   -0.170367   0.193397   0.000000  -0.072839   0.000000
    4  H  1  Y    0.013958   0.183063   0.000000   0.182125   0.000000
    5  H  1  Z    0.000000   0.000000  -0.063315   0.000000   0.845654
    6  N  2  S   -0.033269  -0.321169   0.000000  -0.595344   0.000000
    7  N  2  S   -0.051597  -0.746509   0.000000  -1.281250   0.000000
    8  N  2  S    1.838483   1.291515   0.000000   2.255880   0.000000
    9  N  2  X    0.394362   0.235193   0.000000   0.100676   0.000000
   10  N  2  Y    0.090331  -0.093616   0.000000  -0.085128   0.000000
   11  N  2  Z    0.000000   0.000000   0.005734   0.000000   0.008593
   12  N  2  X    0.501345  -0.287557   0.000000  -0.285701   0.000000
   13  N  2  Y    0.246195  -0.023284   0.000000   1.309323   0.000000
   14  N  2  Z    0.000000   0.000000  -0.589367   0.000000  -0.434986
   15  N  2 XX    0.183119  -0.012237   0.000000  -0.112942   0.000000
   16  N  2 YY   -0.090328   0.022782   0.000000  -0.046023   0.000000
   17  N  2 ZZ   -0.092792  -0.010546   0.000000   0.158965   0.000000
   18  N  2 XY   -0.008705  -0.056504   0.000000   0.062733   0.000000
   19  N  2 XZ    0.000000   0.000000  -0.083797   0.000000  -0.081358
   20  N  2 YZ    0.000000   0.000000  -0.019183   0.000000   0.359355
   21  O  3  S   -0.019852  -0.057269   0.000000  -0.079021   0.000000
   22  O  3  S   -0.214979  -0.158802   0.000000  -0.181684   0.000000
   23  O  3  S   -1.040213   0.016408   0.000000  -0.018538   0.000000
   24  O  3  X   -0.581510  -0.078618   0.000000   0.151844   0.000000
   25  O  3  Y    0.162955  -0.762484   0.000000   0.326390   0.000000
   26  O  3  Z    0.000000   0.000000  -0.831196   0.000000  -0.042813
   27  O  3  X    1.769816   0.241615   0.000000  -0.186287   0.000000
   28  O  3  Y   -0.241391   0.974525   0.000000  -0.769513   0.000000
   29  O  3  Z    0.000000   0.000000   1.318255   0.000000   0.236741
   30  O  3 XX   -0.000019  -0.017428   0.000000  -0.050035   0.000000
   31  O  3 YY   -0.005289   0.009368   0.000000  -0.000764   0.000000
   32  O  3 ZZ    0.005308   0.008059   0.000000   0.050799   0.000000
   33  O  3 XY   -0.002286   0.010343   0.000000  -0.037473   0.000000
   34  O  3 XZ    0.000000   0.000000   0.033818   0.000000   0.035848
   35  O  3 YZ    0.000000   0.000000  -0.002270   0.000000   0.049912

                     21         22         23         24         25
                    0.0000     0.0000     0.0000     0.0000     0.0000
                     A'         A'         A''        A'         A'  
    1  H  1  S   -0.036220   0.068863   0.000000   0.311876   0.084907
    2  H  1  S    0.004708   0.043622   0.000000  -0.163511  -0.021957
    3  H  1  X    0.756444   0.162103   0.000000  -0.496567   0.622163
    4  H  1  Y    0.318388  -0.340127   0.000000   0.671462   0.470551
    5  H  1  Z    0.000000   0.000000  -0.007042   0.000000   0.000000
    6  N  2  S    0.120864   0.086160   0.000000   0.287546   0.211610
    7  N  2  S    0.260405   0.151016   0.000000   0.617891   0.430731
    8  N  2  S   -0.296052  -2.571319   0.000000  -1.408144  -1.408567
    9  N  2  X   -0.035373  -0.081793   0.000000  -0.222460  -0.132953
   10  N  2  Y   -0.106433  -0.236809   0.000000   0.371351   0.221515
   11  N  2  Z    0.000000   0.000000  -0.179527   0.000000   0.000000
   12  N  2  X   -0.456454  -1.533921   0.000000  -0.568563  -1.055496
   13  N  2  Y    0.201188   0.088248   0.000000  -0.312017  -0.232005
   14  N  2  Z    0.000000   0.000000   0.164504   0.000000   0.000000
   15  N  2 XX    0.046807  -0.139599   0.000000  -0.151177  -0.147549
   16  N  2 YY    0.135508   0.334964   0.000000  -0.122396  -0.347255
   17  N  2 ZZ   -0.182314  -0.195365   0.000000   0.273573   0.494804
   18  N  2 XY    0.356918  -0.012957   0.000000   0.390698  -0.612062
   19  N  2 XZ    0.000000   0.000000   0.855016   0.000000   0.000000
   20  N  2 YZ    0.000000   0.000000   0.244989   0.000000   0.000000
   21  O  3  S    0.041334  -0.753003   0.000000  -0.354965  -0.223680
   22  O  3  S    0.100952  -1.630731   0.000000  -0.760328  -0.453920
   23  O  3  S    0.206544   3.744093   0.000000   1.790313   1.703935
   24  O  3  X   -0.122870  -0.016548   0.000000  -0.001086  -0.127968
   25  O  3  Y    0.155727   0.040409   0.000000  -0.162009   0.190788
   26  O  3  Z    0.000000   0.000000  -0.180469   0.000000   0.000000
   27  O  3  X    0.131063  -1.410273   0.000000  -0.729785  -0.553319
   28  O  3  Y   -0.464244  -0.072394   0.000000   0.177403   0.010861
   29  O  3  Z    0.000000   0.000000  -0.160490   0.000000   0.000000
   30  O  3 XX    0.027547  -0.102039   0.000000  -0.050345  -0.009870
   31  O  3 YY    0.030311   0.111112   0.000000  -0.078145  -0.084242
   32  O  3 ZZ   -0.057858  -0.009072   0.000000   0.128490   0.094112
   33  O  3 XY   -0.117332   0.010684   0.000000  -0.152363   0.292801
   34  O  3 XZ    0.000000   0.000000  -0.286121   0.000000   0.000000
   35  O  3 YZ    0.000000   0.000000   0.049109   0.000000   0.000000

                     26         27         28         29         30
                    0.0000     0.0000     0.0000     0.0000     0.0000
                     A''        A'         A'         A''        A'  
    1  H  1  S    0.000000  -0.774095  -0.549092   0.000000  -1.497464
    2  H  1  S    0.000000  -0.363639  -0.179568   0.000000  -0.380036
    3  H  1  X    0.000000  -0.202980  -0.262951   0.000000  -0.478381
    4  H  1  Y    0.000000   0.782777   0.453988   0.000000   0.947593
    5  H  1  Z   -0.783146   0.000000   0.000000   0.228679   0.000000
    6  N  2  S    0.000000  -0.158268   0.083638   0.000000  -0.013051
    7  N  2  S    0.000000  -0.229155   0.184171   0.000000   0.049471
    8  N  2  S    0.000000   1.823008   0.236199   0.000000   1.652527
    9  N  2  X    0.000000  -0.108300  -0.080843   0.000000  -0.117929
   10  N  2  Y    0.000000   0.388627   0.227744   0.000000   0.469979
   11  N  2  Z    0.042895   0.000000   0.000000  -0.006997   0.000000
   12  N  2  X    0.000000   0.555217  -0.331406   0.000000  -0.093459
   13  N  2  Y    0.000000   0.515761   0.358219   0.000000   1.028243
   14  N  2  Z    0.289519   0.000000   0.000000  -0.091148   0.000000
   15  N  2 XX    0.000000   0.861277  -0.685229   0.000000  -0.588651
   16  N  2 YY    0.000000  -0.030232   0.481451   0.000000   1.149891
   17  N  2 ZZ    0.000000  -0.831045   0.203778   0.000000  -0.561240
   18  N  2 XY    0.000000  -0.301440  -0.126083   0.000000  -0.260505
   19  N  2 XZ   -0.233555   0.000000   0.000000   0.032107   0.000000
   20  N  2 YZ    0.911393   0.000000   0.000000  -0.414688   0.000000
   21  O  3  S    0.000000  -0.094229   0.107473   0.000000   0.171289
   22  O  3  S    0.000000  -0.258587   0.254958   0.000000   0.364352
   23  O  3  S    0.000000  -0.884438   0.150315   0.000000  -0.579447
   24  O  3  X    0.000000   0.468299  -0.307557   0.000000  -0.209221
   25  O  3  Y    0.000000   0.040507   0.006744   0.000000   0.040384
   26  O  3  Z    0.058529   0.000000   0.000000  -0.008642   0.000000
   27  O  3  X    0.000000   0.177460   0.062396   0.000000   0.341431
   28  O  3  Y    0.000000  -0.077897  -0.048045   0.000000  -0.227996
   29  O  3  Z   -0.086688   0.000000   0.000000   0.030882   0.000000
   30  O  3 XX    0.000000   0.032754  -0.021641   0.000000  -0.020767
   31  O  3 YY    0.000000   0.229274   0.713849   0.000000  -0.408608
   32  O  3 ZZ    0.000000  -0.262028  -0.692207   0.000000   0.429375
   33  O  3 XY    0.000000   0.141419   0.059736   0.000000   0.249171
   34  O  3 XZ    0.070305   0.000000   0.000000  -0.010791   0.000000
   35  O  3 YZ    0.289603   0.000000   0.000000   0.959339   0.000000

                     31         32         33
                    0.0000     0.0000     0.0000
                     A''        A'         A'  
    1  H  1  S    0.000000   0.459707  -0.003716
    2  H  1  S    0.000000   0.087580  -0.020473
    3  H  1  X    0.000000  -0.111182  -0.048272
    4  H  1  Y    0.000000  -0.482858   0.014338
    5  H  1  Z    0.005123   0.000000   0.000000
    6  N  2  S    0.000000  -0.046034  -0.146392
    7  N  2  S    0.000000  -0.120491  -0.419253
    8  N  2  S    0.000000  -0.183004  -1.544739
    9  N  2  X    0.000000   0.092740  -0.726922
   10  N  2  Y    0.000000  -0.096149   0.020135
   11  N  2  Z    0.110996   0.000000   0.000000
   12  N  2  X    0.000000   0.272673  -0.876532
   13  N  2  Y    0.000000   0.061338   0.010332
   14  N  2  Z    0.272214   0.000000   0.000000
   15  N  2 XX    0.000000   0.099833  -0.641042
   16  N  2 YY    0.000000  -0.208982   0.329815
   17  N  2 ZZ    0.000000   0.109149   0.311227
   18  N  2 XY    0.000000   0.930499   0.032663
   19  N  2 XZ    0.710985   0.000000   0.000000
   20  N  2 YZ   -0.002856   0.000000   0.000000
   21  O  3  S    0.000000   0.007389  -0.306829
   22  O  3  S    0.000000   0.010428  -0.556943
   23  O  3  S    0.000000  -0.191498   2.315754
   24  O  3  X    0.000000   0.036054  -0.222061
   25  O  3  Y    0.000000  -0.054199  -0.005891
   26  O  3  Z   -0.000325   0.000000   0.000000
   27  O  3  X    0.000000   0.048409  -1.246412
   28  O  3  Y    0.000000  -0.298758  -0.001741
   29  O  3  Z   -0.352246   0.000000   0.000000
   30  O  3 XX    0.000000  -0.033184   1.245322
   31  O  3 YY    0.000000   0.058633  -0.624712
   32  O  3 ZZ    0.000000  -0.025449  -0.620610
   33  O  3 XY    0.000000   1.010801   0.024780
   34  O  3 XZ    1.058855   0.000000   0.000000
   35  O  3 YZ    0.001540   0.000000   0.000000
 .....DONE WITH MCSCF ITERATIONS.....
 CPU     0: STEP CPU TIME=     1.86 TOTAL CPU TIME=        2.1 (    0.0 MIN)
 TOTAL WALL CLOCK TIME=        2.2 SECONDS, CPU UTILIZATION IS  99.53%

     ----------------------------------------------------------------
     PROPERTY VALUES FOR THE MCSCF SELF-CONSISTENT FIELD WAVEFUNCTION
     ----------------------------------------------------------------

          -----------------
          ENERGY COMPONENTS
          -----------------

         WAVEFUNCTION NORMALIZATION =       1.0000000000

                ONE ELECTRON ENERGY =    -239.6629211569
                TWO ELECTRON ENERGY =      78.3367606929
           NUCLEAR REPULSION ENERGY =      31.4008219226
                                      ------------------
                       TOTAL ENERGY =    -129.9253385413

 ELECTRON-ELECTRON POTENTIAL ENERGY =      78.3367606929
  NUCLEUS-ELECTRON POTENTIAL ENERGY =    -369.6740304406
   NUCLEUS-NUCLEUS POTENTIAL ENERGY =      31.4008219226
                                      ------------------
             TOTAL POTENTIAL ENERGY =    -259.9364478250
               TOTAL KINETIC ENERGY =     130.0111092837
                 VIRIAL RATIO (V/T) =       1.9993402814

          ---------------------------------------
          MULLIKEN AND LOWDIN POPULATION ANALYSES
          ---------------------------------------

     ATOMIC MULLIKEN POPULATION IN EACH MOLECULAR ORBITAL

                      1          2          3          4          5

                  2.000000   2.000000   1.997874   1.996208   1.990213

    1             0.000010  -0.000070   0.019384   0.017754  -0.014337
    2             0.000525   2.000471   0.360508   0.682563   1.029646
    3             1.999465  -0.000401   1.617982   1.295891   0.974905

                      6          7          8          9         10

                  1.978523   1.975097   1.926861   0.081310   0.027742

    1             0.598628   0.271514   0.003925   0.000105   0.013887
    2             1.087218   0.850428   0.827699   0.044444   0.011335
    3             0.292676   0.853155   1.095237   0.036762   0.002520

                     11

                  0.026171

    1             0.000643
    2             0.014366
    3             0.011163
 WARNING! MCSCF POPULATIONS SHOWN ABOVE ARE FOR THE NATURAL ORBITALS.
 IGNORE THE ABOVE DATA FOR MCSCF FUNCTIONS WHICH ARE NOT OF -FORS- TYPE.
 THE FOLLOWING POPULATIONS ARE CORRECT FOR ANY MCSCF WAVEFUNCTION.

               ----- POPULATIONS IN EACH AO -----
                             MULLIKEN      LOWDIN
              1  H  1  S      0.77214     0.62942
              2  H  1  S      0.09468     0.21211
              3  H  1  X      0.00797     0.02490
              4  H  1  Y      0.03263     0.06652
              5  H  1  Z      0.00403     0.01557
              6  N  2  S      2.00206     1.89813
              7  N  2  S      0.85338     0.61489
              8  N  2  S      0.74691     0.46756
              9  N  2  X      0.80308     0.74550
             10  N  2  Y      0.88935     0.82461
             11  N  2  Z      0.48931     0.45091
             12  N  2  X      0.20405     0.36883
             13  N  2  Y      0.47380     0.57456
             14  N  2  Z      0.35920     0.38911
             15  N  2 XX      0.00720     0.22048
             16  N  2 YY      0.02819     0.18216
             17  N  2 ZZ      0.02903     0.16358
             18  N  2 XY      0.02329     0.07572
             19  N  2 XZ      0.00035     0.03261
             20  N  2 YZ      0.00000     0.00011
             21  O  3  S      2.00220     1.90623
             22  O  3  S      0.87511     0.64067
             23  O  3  S      0.95868     0.54044
             24  O  3  X      0.87914     0.82825
             25  O  3  Y      1.21573     1.18145
             26  O  3  Z      0.64249     0.60087
             27  O  3  X      0.38706     0.50095
             28  O  3  Y      0.70897     0.70984
             29  O  3  Z      0.47914     0.50664
             30  O  3 XX      0.00319     0.21390
             31  O  3 YY      0.01101     0.19401
             32  O  3 ZZ      0.00626     0.19258
             33  O  3 XY      0.01036     0.01453
             34  O  3 XZ      0.00001     0.01234
             35  O  3 YZ      0.00000     0.00001

          ----- MULLIKEN ATOMIC OVERLAP POPULATIONS -----
          (OFF-DIAGONAL ELEMENTS NEED TO BE MULTIPLIED BY 2)

             1           2           3

    1    0.6649249
    2    0.3138051   6.2721687
    3   -0.0672875   0.3232277   7.9234157

          TOTAL MULLIKEN AND LOWDIN ATOMIC POPULATIONS
       ATOM         MULL.POP.    CHARGE          LOW.POP.     CHARGE
    1 H             0.911443    0.088557         0.948516    0.051484
    2 N             6.909202    0.090798         7.008778   -0.008778
    3 O             8.179356   -0.179356         8.042706   -0.042706

          MULLIKEN SPHERICAL HARMONIC POPULATIONS
       ATOM           S       P       D      F      G      H      I    TOTAL
    1 H             0.87    0.04    0.00   0.00   0.00   0.00   0.00    0.91
    2 N             3.60    3.22    0.09   0.00   0.00   0.00   0.00    6.91
    3 O             3.84    4.31    0.03   0.00   0.00   0.00   0.00    8.18

          ---------------------
          ELECTROSTATIC MOMENTS
          ---------------------

 POINT   1           X           Y           Z (BOHR)    CHARGE
                 1.160692    0.061884    0.000000       -0.00 (A.U.)
         DX          DY          DZ         /D/  (DEBYE)
    -0.934630    1.446356    0.000000    1.722057
 ...... END OF PROPERTY EVALUATION ......
 CPU     0: STEP CPU TIME=     0.00 TOTAL CPU TIME=        2.1 (    0.0 MIN)
 TOTAL WALL CLOCK TIME=        2.2 SECONDS, CPU UTILIZATION IS  99.53%
               580000  WORDS OF DYNAMIC MEMORY USED
 EXECUTION OF GAMESS TERMINATED NORMALLY Fri Jun  2 04:08:15 2017
 DDI: 1405704 bytes (1.3 MB / 0 MWords) used by master data server.

 ----------------------------------------
 CPU timing information for all processes
 ========================================
 0: 2.77 + 0.70 = 2.148
 ----------------------------------------
 ddikick.x: exited gracefully.
unset echo
----- accounting info -----
Files used on the master node compute-0-8.local were:
-rw-rw-r-- 1 sarom sarom   19836 Jun  2 04:08 /scratch/mc-psi-hno-freeze.F05
-rw-rw-r-- 1 sarom sarom 2126800 Jun  2 04:08 /scratch/mc-psi-hno-freeze.F10
-rw-rw-r-- 1 sarom sarom   28256 Jun  2 04:08 /scratch/mc-psi-hno-freeze.F12
-rw-rw-r-- 1 sarom sarom  180552 Jun  2 04:08 /scratch/mc-psi-hno-freeze.F15
-rw-rw-r-- 1 sarom sarom       0 Jun  2 04:08 /scratch/mc-psi-hno-freeze.F16
rm: cannot remove `/scratch/sarom': Is a directory
rm: cannot remove `/scratch/tmp': Is a directory
ls: No match.
ls: No match.
ls: No match.
Fri Jun  2 04:08:18 CDT 2017
0.269u 0.205s 0:05.72 8.0%	0+0k 40+408io 0pf+0w
Deleting shmid=2785280.
Deleting shmid=2818049.
/opt/gridengine/default/spool/compute-0-8/active_jobs/23927.1/pe_hostfile compute-0-8.local
