----- GAMESS execution script 'rungms' -----
This job is running on host compute-3-0
under operating system Linux at Mon Nov 28 21:27:45 CST 2016
Available scratch disk space (Kbyte units) at beginning of the job is
Filesystem            1K-blocks       Used  Available Use% Mounted on
bolt.local:/export/home/sarom
                     9590469632 1552982016 7550320640  18% /home/sarom
Copying input file mc-psi-c3oh4.inp to your run's scratch directory...
cp mc-psi-c3oh4.inp .//mc-psi-c3oh4.F05
unset echo
/home/sarom/gamessGH/ddikick.x /home/sarom/gamessGH/gamess.00.x mc-psi-c3oh4 -ddi 1 1 localhost -scr ./

 Distributed Data Interface kickoff program.
 Initiating 1 compute processes on 1 nodes to run the following command:
 /home/sarom/gamessGH/gamess.00.x mc-psi-c3oh4 

          ******************************************************
          *         GAMESS VERSION = 18 AUG 2016 (R1)          *
          *             FROM IOWA STATE UNIVERSITY             *
          * M.W.SCHMIDT, K.K.BALDRIDGE, J.A.BOATZ, S.T.ELBERT, *
          *   M.S.GORDON, J.H.JENSEN, S.KOSEKI, N.MATSUNAGA,   *
          *          K.A.NGUYEN, S.J.SU, T.L.WINDUS,           *
          *       TOGETHER WITH M.DUPUIS, J.A.MONTGOMERY       *
          *         J.COMPUT.CHEM.  14, 1347-1363(1993)        *
          **************** 64 BIT LINUX VERSION ****************

  SINCE 1993, STUDENTS AND POSTDOCS WORKING AT IOWA STATE UNIVERSITY
  AND ALSO IN THEIR VARIOUS JOBS AFTER LEAVING ISU HAVE MADE IMPORTANT
  CONTRIBUTIONS TO THE CODE:
     IVANA ADAMOVIC, CHRISTINE AIKENS, YURI ALEXEEV, POOJA ARORA,
     ANDREY ASADCHEV, ROB BELL, PRADIPTA BANDYOPADHYAY, JONATHAN BENTZ,
     BRETT BODE, KURT BRORSEN, CALEB CARLIN, GALINA CHABAN, WEI CHEN,
     CHEOL HO CHOI, PAUL DAY, ALBERT DEFUSCO, NUWAN DESILVA, TIM DUDLEY,
     DMITRI FEDOROV, GRAHAM FLETCHER, MARK FREITAG, KURT GLAESEMANN,
     DAN KEMP, GRANT MERRILL, NORIYUKI MINEZAWA, JONATHAN MULLIN,
     TAKESHI NAGATA, SEAN NEDD, HEATHER NETZLOFF, BOSILJKA NJEGIC, RYAN OLSON,
     MIKE PAK, SPENCER PRUITT, LUKE ROSKOP, JIM SHOEMAKER, LYUDMILA SLIPCHENKO,
     TONY SMITH, SAROM SOK LEANG, JIE SONG, TETSUYA TAKETSUGU, SIMON WEBB,
     PENG XU, SOOHAENG YOO, FEDERICO ZAHARIEV

  ADDITIONAL CODE HAS BEEN PROVIDED BY COLLABORATORS IN OTHER GROUPS:
     IOWA STATE UNIVERSITY:
          JOE IVANIC, AARON WEST, LAIMUTIS BYTAUTAS, KLAUS RUEDENBERG
     UNIVERSITY OF TOKYO: KIMIHIKO HIRAO, TAKAHITO NAKAJIMA,
          TAKAO TSUNEDA, MUNEAKI KAMIYA, SUSUMU YANAGISAWA,
          KIYOSHI YAGI, MAHITO CHIBA, SEIKEN TOKURA, NAOAKI KAWAKAMI
     UNIVERSITY OF AARHUS: FRANK JENSEN
     UNIVERSITY OF IOWA: VISVALDAS KAIRYS, HUI LI
     NATIONAL INST. OF STANDARDS AND TECHNOLOGY: WALT STEVENS, DAVID GARMER
     UNIVERSITY OF PISA: BENEDETTA MENNUCCI, JACOPO TOMASI
     UNIVERSITY OF MEMPHIS: HENRY KURTZ, PRAKASHAN KORAMBATH
     UNIVERSITY OF ALBERTA: TOBY ZENG, MARIUSZ KLOBUKOWSKI
     UNIVERSITY OF NEW ENGLAND: MARK SPACKMAN
     MIE UNIVERSITY: HIROAKI UMEDA
     NAT. INST. OF ADVANCED INDUSTRIAL SCIENCE AND TECHNOLOGY: KAZUO KITAURA
     MICHIGAN STATE UNIVERSITY:
          KAROL KOWALSKI, MARTA WLOCH, JEFFREY GOUR, JESSE LUTZ,
          WEI LI, PIOTR PIECUCH
     UNIVERSITY OF SILESIA: MONIKA MUSIAL, STANISLAW KUCHARSKI
     FACULTES UNIVERSITAIRES NOTRE-DAME DE LA PAIX:
          OLIVIER QUINET, BENOIT CHAMPAGNE
     UNIVERSITY OF CALIFORNIA - SANTA BARBARA: BERNARD KIRTMAN
     INSTITUTE FOR MOLECULAR SCIENCE:
          KAZUYA ISHIMURA, MICHIO KATOUDA, AND SHIGERU NAGASE
     UNIVERSITY OF NOTRE DAME: ANNA POMOGAEVA, DAN CHIPMAN
     KYUSHU UNIVERSITY:
          HARUYUKI NAKANO,
          FENG LONG GU, JACEK KORCHOWIEC, MARCIN MAKOWSKI, AND YURIKO AOKI,
          HIROTOSHI MORI AND EISAKU MIYOSHI
     PENNSYLVANIA STATE UNIVERSITY:
          TZVETELIN IORDANOV, CHET SWALINA, JONATHAN SKONE,
          SHARON HAMMES-SCHIFFER
     WASEDA UNIVERSITY:
          MASATO KOBAYASHI, TOMOKO AKAMA, TSUGUKI TOUMA,
          TAKESHI YOSHIKAWA, YASUHIRO IKABATA, JUNJI SEINO,
          YUYA NAKAJIMA, HIROMI NAKAI
     NANJING UNIVERSITY: SHUHUA LI
     UNIVERSITY OF NEBRASKA:
          PEIFENG SU, DEJUN SI, NANDUN THELLAMUREGE, YALI WANG, HUI LI
     UNIVERSITY OF ZURICH: ROBERTO PEVERATI, KIM BALDRIDGE
     N. COPERNICUS UNIVERSITY AND JACKSON STATE UNIVERSITY:
          MARIA BARYSZ
     UNIVERSITY OF COPENHAGEN: Jimmy Kromann, CASPER STEINMANN
     TOKYO INSTITUTE OF TECHNOLOGY: HIROYA NAKATA
     NAGOYA UNIVERSITY: YOSHIO NISHIMOTO, STEPHAN IRLE
     MOSCOW STATE UNIVERSITY: VLADIMIR MIRONOV

 EXECUTION OF GAMESS BEGUN Mon Nov 28 21:27:46 2016

            ECHO OF THE FIRST FEW INPUT CARDS -
 INPUT CARD>!   artificial test of MCSCF convergence behavior.   Created 1/2002             
 INPUT CARD>!   H2C=CH-HC=O...3-A' state from 4 electrons in 4 pi orbitals...100 AOs        
 INPUT CARD>!                                                                               
 INPUT CARD>!   deliberate use of diffuse basis functions to have poor canonical virtuals   
 INPUT CARD>!   deliberate avoidance of MVOs or ACAVOs, to use these diffuse virtuals       
 INPUT CARD>!   deliberate use of RHF singlet orbitals to start the triplet state.          
 INPUT CARD>!   deliberate use of 4 pi MO active space, so all MOs have the same symmetry   
 INPUT CARD>!   deliberate use of a singles dominated CI expansion for the triplet state    
 INPUT CARD>!    (pi)2(pi)1(pi*)1(pi*)0 to maximally couple CI coef/active MO optimizations 
 INPUT CARD>!                                                                               
 INPUT CARD>!   Talk about shooting your own foot off!                                      
 INPUT CARD>!                                                                               
 INPUT CARD>!   The calculation below, with 4 space products, results in                    
 INPUT CARD>!      SOSCF F.NAL E= -190.6565005296, 38 iters,  21 s.conds,  3 MWrds          
 INPUT CARD>!     FULLNR F.NAL E= -190.6565005290, 14 iters,  28 s.conds,  9 MWrds          
 INPUT CARD>!     JACOBI FINAL E= -190.6565005271, 10 iters, 282 s.conds, 51 MWrds          
 INPUT CARD>!   If you run a FORS active space (CISTEP=ALDET), E= -190.6863                 
 INPUT CARD>!                                                                               
 INPUT CARD>!   This run takes 282 seconds on 2.66 GHz Cloverton (26 Apr 2015)              
 INPUT CARD>!                                                                               
 INPUT CARD>!   -----------------------------------------------------------------           
 INPUT CARD>!   notes: I am not sure if the ground state is flat, no hessian was            
 INPUT CARD>!   computed.  A slight non-planarity would bring sigma-pi rotations            
 INPUT CARD>!   into the problem.  Also, one could consider H2C=N-HC=O, just to             
 INPUT CARD>!   get a little more ionicity into the pi bonds.                               
 INPUT CARD>!                                                                               
 INPUT CARD>!   Jobs run on a IBM m270 uniprocessor with 16 GB RAM (7 May 2002)             
 INPUT CARD>!   memory requirements shown are to get transformation into memory.            
 INPUT CARD>!                                                                               
 INPUT CARD> $contrl mult=3 scftyp=mcscf runtyp=energy nzvar=18 coord=zmt molplt=.t. $end   
 INPUT CARD> $system mwords=55 memddi=0 $end                                                
 INPUT CARD> $basis  gbasis=n31 ngauss=6 ndfunc=1 npfunc=1 diffsp=.t. diffs=.t. $end        
 INPUT CARD> $guess  guess=moread norb=100                                                  
 INPUT CARD>         norder=1 iorder(13)=14,  13,15,19,21,  16,17,18,20 $end                
 INPUT CARD> $mcscf  cistep=genci soscf=.f. fullnr=.f. jacobi=.t. $end                      
 INPUT CARD> $gen    glist=input ncore=13 nact=4 nels=4 $end                                
 INPUT CARD> $det                ncore=13 nact=4 nels=4 $end                                
 INPUT CARD> $gcilst                                                                        
 INPUT CARD>4                                                                               
 INPUT CARD>2 1 1 0                                                                         
 INPUT CARD>2 1 0 1                                                                         
 INPUT CARD>1 2 1 0                                                                         
 INPUT CARD>1 2 0 1                                                                         
 INPUT CARD> $end                                                                           
 INPUT CARD> $data                                                                          
 INPUT CARD>H2C=CH-HC=O...geometry of RHF/6-31G(d,p) ground state                           
 INPUT CARD>Cs                                                                              
 INPUT CARD>                                                                                
 INPUT CARD>O                                                                               
 INPUT CARD>C 1 rCO                                                                         
   55000000 WORDS OF MEMORY AVAILABLE

     BASIS OPTIONS
     -------------
     GBASIS=N31          IGAUSS=       6      POLAR=POPN31  
     NDFUNC=       1     NFFUNC=       0     DIFFSP=       T
     NPFUNC=       1      DIFFS=       T     BASNAM=        


     RUN TITLE
     ---------
 H2C=CH-HC=O...geometry of RHF/6-31G(d,p) ground state                           

 THE POINT GROUP OF THE MOLECULE IS CS      
 THE ORDER OF THE PRINCIPAL AXIS IS     0

 YOUR FULLY SUBSTITUTED Z-MATRIX IS
 O   
 C      1   1.1913248
 C      2   1.4784214  1  123.8064
 C      3   1.3238797  2  121.1687  1  180.0000  0
 H      2   1.0954763  1  120.6871  3  180.0000  0
 H      3   1.0760540  2  116.4977  1    0.0000  0
 H      4   1.0773781  3  121.4324  2    0.0000  0
 H      4   1.0749105  3  121.8660  2  180.0000  0

 THE MOMENTS OF INERTIA ARE (AMU-ANGSTROM**2)
 IXX=    10.403   IYY=   107.273   IZZ=   117.675

 ATOM      ATOMIC                      COORDINATES (BOHR)
           CHARGE         X                   Y                   Z
 O           8.0    -3.2062069299        0.2058677334        0.0000000000
 C           6.0    -1.1413541088       -0.6911455963        0.0000000000
 C           6.0     1.2093378057        0.8186985442        0.0000000000
 C           6.0     3.4556359034       -0.2826630484        0.0000000000
 H           1.0    -0.8816802701       -2.7449446752        0.0000000000
 H           1.0     0.9892019993        2.8401949638        0.0000000000
 H           1.0     3.6441815984       -2.3098632004        0.0000000000
 H           1.0     5.1779779989        0.7942128796        0.0000000000

          INTERNUCLEAR DISTANCES (ANGS.)
          ------------------------------

                1 O          2 C          3 C          4 C          5 H     

   1 O       0.0000000    1.1913248 *  2.3590029 *  3.5347619    1.9878139 *
   2 C       1.1913248 *  0.0000000    1.4784214 *  2.4422075 *  1.0954763 *
   3 C       2.3590029 *  1.4784214 *  0.0000000    1.3238797 *  2.1864634 *
   4 C       3.5347619    2.4422075 *  1.3238797 *  0.0000000    2.6392708 *
   5 H       1.9878139 *  1.0954763 *  2.1864634 *  2.6392708 *  0.0000000  
   6 H       2.6214918 *  2.1824719 *  1.0760540 *  2.1058022 *  3.1169387  
   7 H       3.8617877    2.6733456 *  2.0978633 *  1.0773781 *  2.4060242 *
   8 H       4.4476303    3.4351817    2.1001541 *  1.0749105 *  3.7134934  

                6 H          7 H          8 H     

   1 O       2.6214918 *  3.8617877    4.4476303  
   2 C       2.1824719 *  2.6733456 *  3.4351817  
   3 C       1.0760540 *  2.0978633 *  2.1001541 *
   4 C       2.1058022 *  1.0773781 *  1.0749105 *
   5 H       3.1169387    2.4060242 *  3.7134934  
   6 H       0.0000000    3.0661251    2.4668906 *
   7 H       3.0661251    0.0000000    1.8321932 *
   8 H       2.4668906 *  1.8321932 *  0.0000000  

  * ... LESS THAN  3.000


     ATOMIC BASIS SET
     ----------------
 THE CONTRACTED PRIMITIVE FUNCTIONS HAVE BEEN UNNORMALIZED
 THE CONTRACTED BASIS FUNCTIONS ARE NOW NORMALIZED TO UNITY

  SHELL TYPE  PRIMITIVE        EXPONENT          CONTRACTION COEFFICIENT(S)

 O         

      1   S       1          5484.6716600    0.001831074430
      1   S       2           825.2349460    0.013950172200
      1   S       3           188.0469580    0.068445078098
      1   S       4            52.9645000    0.232714335992
      1   S       5            16.8975704    0.470192897984
      1   S       6             5.7996353    0.358520852987

      2   L       7            15.5396162   -0.110777549525    0.070874268231
      2   L       8             3.5999336   -0.148026262701    0.339752839147
      2   L       9             1.0137618    1.130767015354    0.727158577316

      3   L      10             0.2700058    1.000000000000    1.000000000000

      4   L      11             0.0845000    1.000000000000    1.000000000000

      5   D      12             0.8000000    1.000000000000

 C         

      6   S      13          3047.5248800    0.001834737132
      6   S      14           457.3695180    0.014037322813
      6   S      15           103.9486850    0.068842622264
      6   S      16            29.2101553    0.232184443216
      6   S      17             9.2866630    0.467941348435
      6   S      18             3.1639270    0.362311985337

      7   L      19             7.8682723   -0.119332419775    0.068999066591
      7   L      20             1.8812885   -0.160854151696    0.316423960957
      7   L      21             0.5442493    1.143456437840    0.744308290898

      8   L      22             0.1687145    1.000000000000    1.000000000000

      9   L      23             0.0438000    1.000000000000    1.000000000000

     10   D      24             0.8000000    1.000000000000

 C         

     11   S      25          3047.5248800    0.001834737132
     11   S      26           457.3695180    0.014037322813
     11   S      27           103.9486850    0.068842622264
     11   S      28            29.2101553    0.232184443216
     11   S      29             9.2866630    0.467941348435
     11   S      30             3.1639270    0.362311985337

     12   L      31             7.8682723   -0.119332419775    0.068999066591
     12   L      32             1.8812885   -0.160854151696    0.316423960957
     12   L      33             0.5442493    1.143456437840    0.744308290898

     13   L      34             0.1687145    1.000000000000    1.000000000000

     14   L      35             0.0438000    1.000000000000    1.000000000000

     15   D      36             0.8000000    1.000000000000

 C         

     16   S      37          3047.5248800    0.001834737132
     16   S      38           457.3695180    0.014037322813
     16   S      39           103.9486850    0.068842622264
     16   S      40            29.2101553    0.232184443216
     16   S      41             9.2866630    0.467941348435
     16   S      42             3.1639270    0.362311985337

     17   L      43             7.8682723   -0.119332419775    0.068999066591
     17   L      44             1.8812885   -0.160854151696    0.316423960957
     17   L      45             0.5442493    1.143456437840    0.744308290898

     18   L      46             0.1687145    1.000000000000    1.000000000000

     19   L      47             0.0438000    1.000000000000    1.000000000000

     20   D      48             0.8000000    1.000000000000

 H         

     21   S      49            18.7311370    0.033494604338
     21   S      50             2.8253944    0.234726953484
     21   S      51             0.6401217    0.813757326146

     22   S      52             0.1612778    1.000000000000

     23   S      53             0.0360000    1.000000000000

     24   P      54             1.1000000    1.000000000000

 H         

     25   S      55            18.7311370    0.033494604338
     25   S      56             2.8253944    0.234726953484
     25   S      57             0.6401217    0.813757326146

     26   S      58             0.1612778    1.000000000000

     27   S      59             0.0360000    1.000000000000

     28   P      60             1.1000000    1.000000000000

 H         

     29   S      61            18.7311370    0.033494604338
     29   S      62             2.8253944    0.234726953484
     29   S      63             0.6401217    0.813757326146

     30   S      64             0.1612778    1.000000000000

     31   S      65             0.0360000    1.000000000000

     32   P      66             1.1000000    1.000000000000

 H         

     33   S      67            18.7311370    0.033494604338
     33   S      68             2.8253944    0.234726953484
     33   S      69             0.6401217    0.813757326146

     34   S      70             0.1612778    1.000000000000

     35   S      71             0.0360000    1.000000000000

     36   P      72             1.1000000    1.000000000000

 TOTAL NUMBER OF BASIS SET SHELLS             =   36
 NUMBER OF CARTESIAN GAUSSIAN BASIS FUNCTIONS =  100
 NUMBER OF ELECTRONS                          =   30
 CHARGE OF MOLECULE                           =    0
 SPIN MULTIPLICITY                            =    3
 NUMBER OF OCCUPIED ORBITALS (ALPHA)          =   16
 NUMBER OF OCCUPIED ORBITALS (BETA )          =   14
 TOTAL NUMBER OF ATOMS                        =    8
 THE NUCLEAR REPULSION ENERGY IS      103.8561060166

     $CONTRL OPTIONS
     ---------------
 SCFTYP=MCSCF        RUNTYP=ENERGY       EXETYP=RUN     
 MPLEVL=       0     CITYP =NONE         CCTYP =NONE         VBTYP =NONE    
 DFTTYP=NONE         TDDFT =NONE    
 MULT  =       3     ICHARG=       0     NZVAR =      18     COORD =ZMT     
 PP    =NONE         RELWFN=NONE         LOCAL =NONE         NUMGRD=       F
 ISPHER=      -1     NOSYM =       0     MAXIT =      30     UNITS =ANGS    
 PLTORB=       F     MOLPLT=       T     AIMPAC=       F     FRIEND=        
 NPRINT=       7     IREST =       0     GEOM  =INPUT   
 NORMF =       0     NORMP =       0     ITOL  =      20     ICUT  =       9
 INTTYP=BEST         GRDTYP=BEST         QMTTOL= 1.0E-06

     $SYSTEM OPTIONS
     ---------------
  REPLICATED MEMORY=    55000000 WORDS (ON EVERY NODE).
 DISTRIBUTED MEMDDI=           0 MILLION WORDS IN AGGREGATE,
 MEMDDI DISTRIBUTED OVER   1 PROCESSORS IS           0 WORDS/PROCESSOR.
 TOTAL MEMORY REQUESTED ON EACH PROCESSOR=    55000000 WORDS.
 TIMLIM=      525600.00 MINUTES, OR     365.0 DAYS.
 PARALL= F  BALTYP=  DLB     KDIAG=    0  COREFL= F
 MXSEQ2=     300 MXSEQ3=     150  mem10=         0

          ----------------
          PROPERTIES INPUT
          ----------------

     MOMENTS            FIELD           POTENTIAL          DENSITY
 IEMOM =       1   IEFLD =       0   IEPOT =       0   IEDEN =       0
 WHERE =COMASS     WHERE =NUCLEI     WHERE =NUCLEI     WHERE =NUCLEI  
 OUTPUT=BOTH       OUTPUT=BOTH       OUTPUT=BOTH       OUTPUT=BOTH    
 IEMINT=       0   IEFINT=       0                     IEDINT=       0
                                                       MORB  =       0

     -------------------------------
     INTEGRAL TRANSFORMATION OPTIONS
     -------------------------------
     NWORD  =            0
     CUTOFF = 1.0E-09     MPTRAN =       0
     DIRTRF =       F     AOINTS =DUP     

          ----------------------
          MCSCF INPUT PARAMETERS
          ----------------------
 CONVERGER SELECTION: FOCAS = F  SOSCF = F  FULLNR = F  QUD = F  JACOBI = T
 SECULAR EQUATION METHOD CISTEP = GENCI   
 --- GENERAL INPUT OPTIONS:
 MAXIT =     100  MICIT =     100  ACURCY= 1.000E-05
 DAMP  =   0.000  CANONC=       T  ENGTOL= 1.000E-08
 EKT   =       F  NPUNCH=       2  NWORD =         0
 REGENERATE CI AFTER CONVERGENCE = NONE    
 DIABATIZATION AFTER CONVERGENCE =        F
 --- INPUT FOR JACOBI CONVERGER:
 FORS  =       F  NORB  =     100

          ----------------------
          INTEGRAL INPUT OPTIONS
          ----------------------
 NOPK  =       1 NORDER=       0 SCHWRZ=       T

   --- ENCODED Z MATRIX ---
 COORD  TYPE   I   J   K   L   M   N
    1      1    2   1
    2      1    3   2
    3      2    3   2   1
    4      1    4   3
    5      2    4   3   2
    6      3    4   3   2   1
    7      1    5   2
    8      2    5   2   1
    9      3    5   2   1   3
   10      1    6   3
   11      2    6   3   2
   12      3    6   3   2   1
   13      1    7   4
   14      2    7   4   3
   15      3    7   4   3   2
   16      1    8   4
   17      2    8   4   3
   18      3    8   4   3   2

 THE DETERMINANT OF THE G MATRIX IS 10**(   -11)


                     --------------------
                     INTERNAL COORDINATES
                     --------------------

                 - - ATOMS - -         COORDINATE      COORDINATE
 NO.   TYPE    I  J  K  L  M  N        (BOHR,RAD)       (ANG,DEG)
 ----------------------------------------------------------------
   1 STRETCH   2  1                     2.2512774       1.1913248
   2 STRETCH   3  2                     2.7938113       1.4784214
   3 BEND      3  2  1                  2.1608288     123.8063682
   4 STRETCH   4  3                     2.5017699       1.3238797
   5 BEND      4  3  2                  2.1147930     121.1687111
   6 TORSION   4  3  2  1               3.1415927     180.0000000
   7 STRETCH   5  2                     2.0701500       1.0954763
   8 BEND      5  2  1                  2.1063872     120.6870943
   9 TORSION   5  2  1  3               3.1415927     180.0000000
  10 STRETCH   6  3                     2.0334472       1.0760540
  11 BEND      6  3  2                  2.0332679     116.4976673
  12 TORSION   6  3  2  1               0.0000000       0.0000000
  13 STRETCH   7  4                     2.0359494       1.0773781
  14 BEND      7  4  3                  2.1193956     121.4324220
  15 TORSION   7  4  3  2               0.0000000       0.0000000
  16 STRETCH   8  4                     2.0312863       1.0749105
  17 BEND      8  4  3                  2.1269632     121.8660125
  18 TORSION   8  4  3  2               3.1415927     180.0000000

     ------------------------------------------
     THE POINT GROUP IS CS , NAXIS= 0, ORDER= 2
     ------------------------------------------

     DIMENSIONS OF THE SYMMETRY SUBSPACES ARE
 A'  =   76     A'' =   24

 ..... DONE SETTING UP THE RUN .....
 STEP CPU TIME =     0.18 TOTAL CPU TIME =        0.2 (    0.0 MIN)
 TOTAL WALL CLOCK TIME=        0.2 SECONDS, CPU UTILIZATION IS  94.74%

          ********************
          1 ELECTRON INTEGRALS
          ********************
 TIME TO DO   DIPOLE INTEGRALS=      0.00
 ...... END OF ONE-ELECTRON INTEGRALS ......
 STEP CPU TIME =     0.00 TOTAL CPU TIME =        0.2 (    0.0 MIN)
 TOTAL WALL CLOCK TIME=        0.2 SECONDS, CPU UTILIZATION IS  94.74%

          -------------
          GUESS OPTIONS
          -------------
          GUESS =MOREAD            NORB  =     100          NORDER=       1
          MIX   =       F          PRTMO =       F          PUNMO =       F
          TOLZ  = 1.0E-08          TOLE  = 1.0E-05
          SYMDEN=       F          PURIFY=       F

 INITIAL GUESS ORBITALS GENERATED BY MOREAD   ROUTINE.

 SYMMETRIES FOR INITIAL GUESS ORBITALS FOLLOW.   BOTH SET(S).
     1 ORBITALS ARE OCCUPIED (    4 CORE ORBITALS).
     1=A'       2=A'       3=A'       4=A'       5=A'       6=A'       7=A'  
     8=A'       9=A'      10=A'      11=A'      12=A'      13=A'      14=A'' 
    15=A''     16=A''     17=A''     18=A'      19=A'      20=A'      21=A'  
    22=A'      23=A''     24=A'      25=A''     26=A'      27=A'      28=A'  
    29=A'      30=A'      31=A'      32=A'      33=A''     34=A'      35=A'  
    36=A''     37=A'      38=A'      39=A'      40=A'      41=A'      42=A'  
    43=A'      44=A'      45=A'      46=A''     47=A''     48=A''     49=A'  
    50=A'      51=A'      52=A'      53=A'      54=A'      55=A'      56=A'  
    57=A'      58=A'      59=A'      60=A'      61=A''     62=A''     63=A'  
    64=A''     65=A'      66=A''     67=A''     68=A'      69=A'      70=A'' 
    71=A'      72=A'      73=A'      74=A'      75=A''     76=A'      77=A'  
    78=A''     79=A'      80=A'      81=A''     82=A''     83=A'      84=A'' 
    85=A''     86=A'      87=A''     88=A'      89=A'      90=A'      91=A'  
    92=A'      93=A'      94=A'      95=A'      96=A'      97=A'      98=A'  
    99=A'     100=A'  
 ...... END OF INITIAL ORBITAL SELECTION ......
 STEP CPU TIME =     0.03 TOTAL CPU TIME =        0.2 (    0.0 MIN)
 TOTAL WALL CLOCK TIME=        0.2 SECONDS, CPU UTILIZATION IS  95.45%

                    ----------------------
                    AO INTEGRAL TECHNOLOGY
                    ----------------------
     S,P,L SHELL ROTATED AXIS INTEGRALS, REPROGRAMMED BY
        KAZUYA ISHIMURA (IMS) AND JOSE SIERRA (SYNSTAR).
     S,P,D,L SHELL ROTATED AXIS INTEGRALS PROGRAMMED BY
        KAZUYA ISHIMURA (INSTITUTE FOR MOLECULAR SCIENCE).
     S,P,D,F,G SHELL TO TOTAL QUARTET ANGULAR MOMENTUM SUM 5,
        ERIC PROGRAM BY GRAHAM FLETCHER (ELORET AND NASA ADVANCED
        SUPERCOMPUTING DIVISION, AMES RESEARCH CENTER).
     S,P,D,F,G,L SHELL GENERAL RYS QUADRATURE PROGRAMMED BY
        MICHEL DUPUIS (PACIFIC NORTHWEST NATIONAL LABORATORY).

          --------------------
          2 ELECTRON INTEGRALS
          --------------------

 THE -PK- OPTION IS OFF, THE INTEGRALS ARE NOT IN SUPERMATRIX FORM.
 STORING   15000 INTEGRALS/RECORD ON DISK, USING 12 BYTES/INTEGRAL.
 TWO ELECTRON INTEGRAL EVALUATION REQUIRES   91062 WORDS OF MEMORY.
 SCHWARZ INEQUALITY OVERHEAD:      5041 INTEGRALS, T=        0.00
 II,JST,KST,LST =  1  1  1  1 NREC =         1 INTLOC =    1
 II,JST,KST,LST =  2  1  1  1 NREC =         1 INTLOC =    2
 II,JST,KST,LST =  3  1  1  1 NREC =         1 INTLOC =   34
 II,JST,KST,LST =  4  1  1  1 NREC =         1 INTLOC =  214
 II,JST,KST,LST =  5  1  1  1 NREC =         1 INTLOC =  776
 II,JST,KST,LST =  6  1  1  1 NREC =         1 INTLOC = 2864
 II,JST,KST,LST =  7  1  1  1 NREC =         1 INTLOC = 5148
 II,JST,KST,LST =  8  1  1  1 NREC =         2 INTLOC = 2489
 II,JST,KST,LST =  9  1  1  1 NREC =         3 INTLOC = 7278
 II,JST,KST,LST = 10  1  1  1 NREC =         5 INTLOC = 6681
 II,JST,KST,LST = 11  1  1  1 NREC =         9 INTLOC =12067
 II,JST,KST,LST = 12  1  1  1 NREC =        10 INTLOC =12350
 II,JST,KST,LST = 13  1  1  1 NREC =        15 INTLOC =13224
 II,JST,KST,LST = 14  1  1  1 NREC =        22 INTLOC = 8141
 II,JST,KST,LST = 15  1  1  1 NREC =        31 INTLOC =  987
 II,JST,KST,LST = 16  1  1  1 NREC =        47 INTLOC = 7129
 II,JST,KST,LST = 17  1  1  1 NREC =        50 INTLOC = 2079
 II,JST,KST,LST = 18  1  1  1 NREC =        64 INTLOC = 9747
 II,JST,KST,LST = 19  1  1  1 NREC =        83 INTLOC = 3791
 II,JST,KST,LST = 20  1  1  1 NREC =       105 INTLOC = 9021
 II,JST,KST,LST = 21  1  1  1 NREC =       141 INTLOC = 4024
 II,JST,KST,LST = 22  1  1  1 NREC =       149 INTLOC = 6747
 II,JST,KST,LST = 23  1  1  1 NREC =       158 INTLOC = 1768
 II,JST,KST,LST = 24  1  1  1 NREC =       167 INTLOC = 2569
 II,JST,KST,LST = 25  1  1  1 NREC =       193 INTLOC = 5610
 II,JST,KST,LST = 26  1  1  1 NREC =       203 INTLOC = 9444
 II,JST,KST,LST = 27  1  1  1 NREC =       214 INTLOC = 8259
 II,JST,KST,LST = 28  1  1  1 NREC =       225 INTLOC =13985
 II,JST,KST,LST = 29  1  1  1 NREC =       257 INTLOC = 9068
 II,JST,KST,LST = 30  1  1  1 NREC =       268 INTLOC =14810
 II,JST,KST,LST = 31  1  1  1 NREC =       282 INTLOC = 6213
 II,JST,KST,LST = 32  1  1  1 NREC =       296 INTLOC = 6439
 II,JST,KST,LST = 33  1  1  1 NREC =       330 INTLOC = 3657
 II,JST,KST,LST = 34  1  1  1 NREC =       342 INTLOC =13442
 II,JST,KST,LST = 35  1  1  1 NREC =       358 INTLOC =14582
 II,JST,KST,LST = 36  1  1  1 NREC =       375 INTLOC =12962
 SCHWARZ INEQUALITY TEST SKIPPED       17572 INTEGRAL BLOCKS.
 TOTAL NUMBER OF NONZERO TWO-ELECTRON INTEGRALS =             6166795
        412 INTEGRAL RECORDS WERE STORED ON DISK FILE  8.
  ...... END OF TWO-ELECTRON INTEGRALS .....
 STEP CPU TIME =     0.66 TOTAL CPU TIME =        0.9 (    0.0 MIN)
 TOTAL WALL CLOCK TIME=        0.9 SECONDS, CPU UTILIZATION IS  92.55%

          -----------------
          MCSCF CALCULATION
          -----------------

 ----- NUCLEAR ENERGY ----- =       103.8561060166

     --------------------------------------------------
         AMES LABORATORY DETERMINANTAL GENERAL CI
     PROGRAM WRITTEN BY JOE IVANIC AND KLAUS RUEDENBERG
     --------------------------------------------------

 THE POINT GROUP                  =   CS      
 THE STATE SYMMETRY               =   A'      
 NUMBER OF CORE ORBITALS          =   13
 NUMBER OF ACTIVE ORBITALS        =    4
 NUMBER OF ALPHA ELECTRONS        =   16 (   3 ACTIVE)
 NUMBER OF BETA ELECTRONS         =   14 (   1 ACTIVE)
 NUMBER OF OCCUPIED ORBITALS      =   17
 NUMBER OF CI STATES REQUESTED    =    1
 NUMBER OF CI STARTING VECTORS    =    1
 MAX. NO. OF CI EXPANSION VECTORS =   10
 SIZE OF INITIAL CI GUESS MATRIX  =  300
 MAX. NO. OF CI ITERS/STATE       =  100
 CI DIAGONALIZATION CRITERION     = 1.00E-05

 GLIST SPECIFICATION              =   INPUT   

 PURE SPIN STATE AVERAGED 1E- AND 2E- DENSITY MATRIX OPTION=.T.
 STATE=   1 DM2 WEIGHT=   1.00000

 CORRELATION ENERGY ANALYSIS      =    F

 SYMMETRIES FOR THE  13 CORE,   4 ACTIVE ARE

     CORE= A'    A'    A'    A'    A'    A'    A'    A'    A'    A'  
           A'    A'    A'  

   ACTIVE= A''   A''   A''   A'' 

     --------------------------------------------------
      READING GENERAL CI LIST FROM $GCILST GROUP 
     --------------------------------------------------

 NUMBER OF SPACE PRODUCTS TO BE READ IN =      4

 WILL CHECK THAT SPACE PRODUCTS HAVE CORRECT IRREP.

 *** NOTE THAT IRREP NUMBERS BELOW CORRESPOND
 WITH DETERMINANT CODE LABELLING

 NO OF UNIQUE SPACE PRODUCTS READ =      4

 NUMBER OF DETERMINANTS WRITTEN TO DISK =      4

 THESE WILL BE SPIN COMPLEMENTED LATER.

     --------------------------------------------
     PARTIAL TWO ELECTRON INTEGRAL TRANSFORMATION
     --------------------------------------------

 NUMBER OF CORE MOLECULAR ORBITALS     =   13
 NUMBER OF OCCUPIED MOLECULAR ORBITALS =   17
 TOTAL NUMBER OF MOLECULAR ORBITALS    =   17
 TOTAL NUMBER OF ATOMIC ORBITALS       =  100
 THRESHOLD FOR KEEPING TRANSFORMED 2E- INTEGRALS = 1.000E-09
 AO INTEGRALS WILL BE READ IN FROM DISK...

 PLAN A: REQUIREMENTS FOR FULLY IN-MEMORY TRANSFORMATION:
 # OF WORDS AVAILABLE =             55000000
 # OF WORDS NEEDED    =              8695202

 CHOOSING IN MEMORY PARTIAL TRANSFORMATION...
 TOTAL NUMBER OF TRANSFORMED 2E- INTEGRALS KEPT =         2343
 ----- FROZEN CORE ENERGY =      -290.8667334533
 ... END OF INTEGRAL TRANSFORMATION ...
 STEP CPU TIME =     0.57 TOTAL CPU TIME =        1.4 (    0.0 MIN)
 TOTAL WALL CLOCK TIME=        1.9 SECONDS, CPU UTILIZATION IS  76.60%

     --------------------------------------------------
         AMES LABORATORY DETERMINANTAL GENERAL CI
     PROGRAM WRITTEN BY JOE IVANIC AND KLAUS RUEDENBERG
     --------------------------------------------------

 NUMBER OF DETERMINANTS TO BE READ IN   =               4
 MEMORY FOR DETERMINANT LIST STORAGE    =               36 WORDS
 MEMORY FOR SORTING AND FULL LISTS      =               57 WORDS
 TIME TAKEN FOR SORTING:                  0.0
 MEMORY FOR SPIN CONSISTENCY CHECK      =               68 WORDS
 TIME TAKEN FOR SPIN CHECK:               0.0
 TIME TAKEN FOR SORTING:                  0.0
 NUMBER OF FULL SPACE DETERMINANTS FOR ACTIVE SPACE =         16
 THE DETERMINANT GENERAL CI REQUIRES          169551 WORDS
 SMALL CI MATRIX, JUST USING INCORE DIAGONALIZATION

 CI EIGENVECTORS WILL BE LABELED IN GROUP=CS      
 PRINTING ALL NON-ZERO CI COEFFICIENTS

 STATE   1  ENERGY=      -190.5895460929  S=  1.00  SZ=  1.00  SPACE SYM=A'  

ALPHA |BETA  | COEFFICIENT
------|------|------------
 1110 | 1000 |   0.9956968
 1101 | 1000 |  -0.0645542
 1101 | 0100 |  -0.0525279
 1110 | 0100 |  -0.0407602
 ..... DONE WITH GENERAL CI COMPUTATION .....
 STEP CPU TIME =     0.02 TOTAL CPU TIME =        1.5 (    0.0 MIN)
 TOTAL WALL CLOCK TIME=        5.1 SECONDS, CPU UTILIZATION IS  28.68%

     --------------------------------------------------
            COMPLETELY ARBITRARY SELECTED CI 
      ONE AND TWO PARTICLE DENSITY MATRIX COMPUTATION
     PROGRAM WRITTEN BY JOE IVANIC AND KLAUS RUEDENBERG
     --------------------------------------------------

      30635 WORDS WILL BE USED TO FORM THE DENSITIES
 THE DENSITIES ARE STATE AVERAGED OVER   1 ROOT(S)
 STATE=   1   ENERGY=     -190.5895460929   WEIGHT= 1.00000   S=  1.00
 SIEVING THE A'   SYMMETRY NONZERO DENSITY ELEMENTS IN GROUP CS      
         21 NONZERO DM2 ELEMENTS WRITTEN IN       1 RECORDS TO FILE 15
 ..... DONE WITH 1 AND 2 PARTICLE DENSITY MATRIX .....
 STEP CPU TIME =     0.01 TOTAL CPU TIME =        1.5 (    0.0 MIN)
 TOTAL WALL CLOCK TIME=        5.4 SECONDS, CPU UTILIZATION IS  27.22%

     --------------------------------------------
     PARTIAL TWO ELECTRON INTEGRAL TRANSFORMATION
     --------------------------------------------

 NUMBER OF CORE MOLECULAR ORBITALS     =    0
 NUMBER OF OCCUPIED MOLECULAR ORBITALS =  100
 TOTAL NUMBER OF MOLECULAR ORBITALS    =  100
 TOTAL NUMBER OF ATOMIC ORBITALS       =  100
 THRESHOLD FOR KEEPING TRANSFORMED 2E- INTEGRALS = 1.000E-09
 AO INTEGRALS WILL BE READ IN FROM DISK...

 PLAN A: REQUIREMENTS FOR FULLY IN-MEMORY TRANSFORMATION:
 # OF WORDS AVAILABLE =             54999900
 # OF WORDS NEEDED    =             50610202

 CHOOSING IN MEMORY PARTIAL TRANSFORMATION...
 TOTAL NUMBER OF TRANSFORMED 2E- INTEGRALS KEPT =      6869232
 ... END OF INTEGRAL TRANSFORMATION ...
 STEP CPU TIME =     6.74 TOTAL CPU TIME =        8.2 (    0.1 MIN)
 TOTAL WALL CLOCK TIME=       12.2 SECONDS, CPU UTILIZATION IS  67.41%

     --------------------------------------------------
           AMES LABORATORY JACOBI MCSCF
     PROGRAM WRITTEN BY JOE IVANIC AND KLAUS RUEDENBERG
     --------------------------------------------------

 NUMBER OF ANGLES IN A SINGLE SWEEP =    905
 MEMORY NEEDED BY JACOBI CONVERGER IS       13798298 WORDS.

  ITER     TOTAL ENERGY           DEL(E)CI      DEL(E)ORB  SWEEPS    NOROTS
    1     -190.653568766     -190.589546092   -0.064022674    9       1846
    2     -190.656017188       -0.001785813   -0.000662609    4        190
    3     -190.656444379       -0.000282465   -0.000144725    6        539
    4     -190.656494325       -0.000030129   -0.000019817    6        692
    5     -190.656499875       -0.000003381   -0.000002170    6        676
    6     -190.656500457       -0.000000342   -0.000000240    6        688
    7     -190.656500520       -0.000000038   -0.000000024    5        461
    8     -190.656500525       -0.000000004   -0.000000002    2         85
    9     -190.656500526       -0.000000000   -0.000000000    2         26
   10     -190.656500526       -0.000000000   -0.000000000    1          4

 FINAL MCSCF ENERGY IS     -190.6565005271 AFTER  10 ITERATIONS

 -MCCI- BASED ON OPTIMIZED ORBITALS
 ----------------------------------

 PLEASE NOTE: IF THE ACTIVE ORBITALS ARE CANONICALIZED BELOW,
 THE FOLLOWING CI EXPANSION COEFFICIENTS AND THE DENSITY DO NOT
 CORRESPOND TO THE PRINTED ORBITALS.  THE PRINTED EXPANSIONS MATCH
 THE ORBITALS USED DURING THE LAST ITERATION.  IF YOU WISH TO SEE
 CI EXPANSIONS BASED ON THE CANONICAL (OR NATURAL) ORBITALS, YOU
 MUST RUN A CI CALCULATION WITH THAT ORBITAL CHOICE READ IN $VEC.

 CI EIGENVECTORS WILL BE LABELED IN GROUP=CS      
 PRINTING ALL NON-ZERO CI COEFFICIENTS

 STATE   1  ENERGY=      -190.6565005271  S=  1.00  SZ=  1.00  SPACE SYM=A'  

ALPHA |BETA  | COEFFICIENT
------|------|------------
 1110 | 1000 |   0.9730314
 1101 | 0100 |  -0.2048633
 1101 | 1000 |  -0.0999302
 1110 | 0100 |   0.0354244

 DENSITY MATRIX OVER ACTIVE MO-S

             1           2           3           4

    1    1.9567761
    2    0.0549411   1.0432239
    3    0.0000000   0.0000000   0.9480450
    4    0.0000000   0.0000000  -0.1044924   0.0519550

 FORMING THE "STANDARD FOCK OPERATOR" USING INTEGRALS FROM DISK...
 ONLY THE   13 CORE AND   83 VIRTUAL ORBITALS WILL BE CANONICALIZED

          ----------------------
          MCSCF NATURAL ORBITALS
          ----------------------

                      1          2          3          4          5
                  -20.5761   -11.3173   -11.2709   -11.2505    -1.4094
                     A'         A'         A'         A'         A'  
    1  O  1  S    0.994608  -0.000332   0.000018  -0.000029  -0.196753
    2  O  1  S    0.020960   0.000700  -0.000041  -0.000140   0.432637
    3  O  1  X    0.001553   0.000297  -0.000011  -0.000029   0.133061
    4  O  1  Y   -0.000658  -0.000125   0.000006   0.000029  -0.056501
    5  O  1  Z    0.000000   0.000000  -0.000000  -0.000000   0.000000
    6  O  1  S    0.005030  -0.002418   0.000204   0.000961   0.402587
    7  O  1  X   -0.000762  -0.001049   0.000304   0.000431   0.051605
    8  O  1  Y    0.000292   0.000451  -0.000398  -0.000181  -0.019360
    9  O  1  Z    0.000000   0.000000  -0.000000  -0.000000   0.000000
   10  O  1  S   -0.002291   0.006449   0.001988   0.001735  -0.019839
   11  O  1  X    0.000196   0.003275   0.000369   0.000634  -0.001053
   12  O  1  Y   -0.000087  -0.001192   0.000164   0.000119  -0.001885
   13  O  1  Z    0.000000   0.000000  -0.000000  -0.000000   0.000000
   14  O  1 XX   -0.003924   0.000152   0.000156  -0.000028   0.015512
   15  O  1 YY   -0.004073   0.000212   0.000089  -0.000097  -0.000293
   16  O  1 ZZ   -0.004424   0.000422  -0.000044  -0.000078  -0.004125
   17  O  1 XY   -0.000098   0.000069  -0.000036   0.000004  -0.008957
   18  O  1 XZ    0.000000   0.000000  -0.000000  -0.000000   0.000000
   19  O  1 YZ    0.000000   0.000000  -0.000000  -0.000000   0.000000
   20  C  2  S   -0.000001   0.995848  -0.008710   0.000337  -0.114958
   21  C  2  S    0.000414   0.027872  -0.000041  -0.000150   0.216587
   22  C  2  X    0.000026  -0.000884   0.000085   0.000024  -0.163098
   23  C  2  Y   -0.000037   0.000455   0.000006   0.000039   0.076556
   24  C  2  Z    0.000000   0.000000  -0.000000  -0.000000   0.000000
   25  C  2  S    0.000754  -0.013513   0.002207  -0.001048   0.051525
   26  C  2  X   -0.000281  -0.000506   0.002151   0.000913   0.027930
   27  C  2  Y    0.000311   0.000140   0.000195  -0.000621  -0.022141
   28  C  2  Z    0.000000   0.000000  -0.000000  -0.000000   0.000000
   29  C  2  S    0.001971  -0.000390  -0.016388  -0.012676   0.074556
   30  C  2  X   -0.000498  -0.000066  -0.003445  -0.003139   0.004907
   31  C  2  Y    0.000602   0.003451  -0.001834  -0.001710   0.003185
   32  C  2  Z    0.000000   0.000000  -0.000000  -0.000000   0.000000
   33  C  2 XX   -0.000617  -0.000813  -0.000384   0.000139   0.023713
   34  C  2 YY   -0.000145  -0.001347  -0.000273   0.000045  -0.012266
   35  C  2 ZZ   -0.000075  -0.002140   0.000037  -0.000012  -0.017900
   36  C  2 XY    0.000278  -0.000315  -0.000148   0.000044  -0.020753
   37  C  2 XZ    0.000000   0.000000  -0.000000  -0.000000   0.000000
   38  C  2 YZ    0.000000   0.000000  -0.000000  -0.000000   0.000000
   39  C  3  S   -0.000008   0.008457   0.994941  -0.037760  -0.018046
   40  C  3  S   -0.000017   0.000577   0.028473  -0.001061   0.032719
   41  C  3  X    0.000021  -0.000029   0.000601  -0.000322  -0.023601
   42  C  3  Y    0.000022   0.000053  -0.000333   0.000117  -0.010593
   43  C  3  Z    0.000000   0.000000  -0.000000  -0.000000   0.000000
   44  C  3  S    0.000100   0.001485  -0.014699   0.003449   0.023532
   45  C  3  X    0.000230  -0.000307  -0.000441   0.001327  -0.014364
   46  C  3  Y   -0.000248  -0.000887   0.001924  -0.000440   0.002630
   47  C  3  Z    0.000000   0.000000  -0.000000  -0.000000   0.000000
   48  C  3  S   -0.004006   0.013549   0.035638   0.005900  -0.145050
   49  C  3  X   -0.000138   0.008852   0.001331  -0.003173  -0.021834
   50  C  3  Y    0.000922  -0.004940  -0.006644  -0.002860   0.037276
   51  C  3  Z    0.000000   0.000000  -0.000000  -0.000000   0.000000
   52  C  3 XX   -0.000109  -0.000393  -0.001337  -0.000313   0.006609
   53  C  3 YY    0.000056  -0.000330  -0.001574  -0.000247   0.000030
   54  C  3 ZZ   -0.000038  -0.000015  -0.002395   0.000072  -0.001621
   55  C  3 XY    0.000034  -0.000239  -0.000276   0.000125   0.003780
   56  C  3 XZ    0.000000   0.000000  -0.000000  -0.000000   0.000000
   57  C  3 YZ    0.000000   0.000000  -0.000000  -0.000000   0.000000
   58  C  4  S   -0.000001  -0.000016   0.037198   0.994893  -0.003404
   59  C  4  S    0.000013  -0.000137   0.001067   0.028656   0.008543
   60  C  4  X   -0.000001   0.000073   0.000221  -0.000615  -0.006026
   61  C  4  Y    0.000016   0.000024  -0.000128   0.000235   0.000454
   62  C  4  Z    0.000000   0.000000  -0.000000  -0.000000   0.000000
   63  C  4  S   -0.000243  -0.000591   0.003269  -0.012803   0.007361
   64  C  4  X    0.000017  -0.000407  -0.001634   0.001233   0.009051
   65  C  4  Y   -0.000086  -0.000307   0.000383  -0.000421   0.009137
   66  C  4  Z    0.000000   0.000000  -0.000000  -0.000000   0.000000
   67  C  4  S    0.003007  -0.020198  -0.019630   0.008377   0.111907
   68  C  4  X   -0.001126   0.003511   0.004584  -0.001214  -0.023054
   69  C  4  Y   -0.000094  -0.003179  -0.001139   0.000838   0.015956
   70  C  4  Z    0.000000   0.000000  -0.000000  -0.000000   0.000000
   71  C  4 XX   -0.000014   0.000095  -0.000514  -0.001504   0.000447
   72  C  4 YY    0.000009   0.000076  -0.000400  -0.001820  -0.000440
   73  C  4 ZZ   -0.000007  -0.000051  -0.000110  -0.002573   0.000107
   74  C  4 XY   -0.000041  -0.000005   0.000132  -0.000203   0.000143
   75  C  4 XZ    0.000000   0.000000  -0.000000  -0.000000   0.000000
   76  C  4 YZ    0.000000   0.000000  -0.000000  -0.000000   0.000000
   77  H  5  S   -0.000054  -0.000056  -0.000100  -0.000094   0.029617
   78  H  5  S    0.000177   0.002073  -0.000206  -0.000143  -0.010839
   79  H  5  S    0.000001   0.002614   0.000539   0.000158  -0.010647
   80  H  5  X    0.000097   0.000051  -0.000055  -0.000057  -0.002500
   81  H  5  Y   -0.000010  -0.000214   0.000064  -0.000004   0.005865
   82  H  5  Z    0.000000   0.000000  -0.000000  -0.000000   0.000000
   83  H  6  S   -0.000000  -0.000046  -0.000113   0.000013   0.007525
   84  H  6  S    0.000168   0.000593   0.000949  -0.000108  -0.004138
   85  H  6  S   -0.000533   0.003174   0.000257   0.001376  -0.019796
   86  H  6  X   -0.000025   0.000023   0.000022   0.000049  -0.000101
   87  H  6  Y    0.000009  -0.000091   0.000254  -0.000133  -0.001016
   88  H  6  Z    0.000000   0.000000  -0.000000  -0.000000   0.000000
   89  H  7  S    0.000001  -0.000065  -0.000014  -0.000004   0.002657
   90  H  7  S   -0.000063  -0.000174   0.000008   0.001323   0.003944
   91  H  7  S   -0.000096  -0.001658   0.000115  -0.001482   0.011576
   92  H  7  X   -0.000003   0.000042  -0.000048  -0.000058  -0.000338
   93  H  7  Y   -0.000007  -0.000016   0.000119  -0.000228   0.000280
   94  H  7  Z    0.000000   0.000000  -0.000000  -0.000000   0.000000
   95  H  8  S    0.000017  -0.000031   0.000013  -0.000073   0.000256
   96  H  8  S    0.000090   0.000833   0.000306   0.001335  -0.010744
   97  H  8  S    0.000474   0.000465  -0.000424  -0.001365  -0.003716
   98  H  8  X   -0.000015  -0.000021  -0.000118   0.000141   0.000205
   99  H  8  Y   -0.000009  -0.000004  -0.000030   0.000180   0.000158
  100  H  8  Z    0.000000   0.000000  -0.000000  -0.000000   0.000000

                      6          7          8          9         10
                   -1.0966    -0.8842    -0.7909    -0.6772    -0.6732
                     A'         A'         A'         A'         A'  
    1  O  1  S    0.035128  -0.067804   0.040197   0.062675  -0.018042
    2  O  1  S   -0.080649   0.156443  -0.095704  -0.144940   0.042636
    3  O  1  X    0.007903  -0.100517   0.055895   0.368855   0.012406
    4  O  1  Y    0.011698   0.014113  -0.150643  -0.042051   0.288968
    5  O  1  Z   -0.000000   0.000000   0.000000  -0.000000  -0.000000
    6  O  1  S   -0.080051   0.205740  -0.124019  -0.269863   0.070509
    7  O  1  X    0.004224  -0.045261   0.028637   0.181033   0.017363
    8  O  1  Y    0.003545   0.003266  -0.080055  -0.008402   0.168557
    9  O  1  Z   -0.000000   0.000000   0.000000  -0.000000  -0.000000
   10  O  1  S   -0.007422   0.015278   0.005358  -0.039797  -0.003670
   11  O  1  X   -0.005735   0.008927   0.003025  -0.000049  -0.012332
   12  O  1  Y   -0.001295  -0.000132   0.005320  -0.001432  -0.002486
   13  O  1  Z   -0.000000   0.000000   0.000000  -0.000000  -0.000000
   14  O  1 XX   -0.000304  -0.006027  -0.000941   0.020102   0.008163
   15  O  1 YY   -0.002321   0.003798   0.003226  -0.007947  -0.010884
   16  O  1 ZZ   -0.000012   0.001765  -0.002594  -0.006808   0.001973
   17  O  1 XY    0.001227   0.001954  -0.011056  -0.006908   0.016731
   18  O  1 XZ   -0.000000   0.000000   0.000000  -0.000000  -0.000000
   19  O  1 YZ   -0.000000   0.000000   0.000000  -0.000000  -0.000000
   20  C  2  S   -0.047210   0.118087  -0.085335  -0.040646   0.009805
   21  C  2  S    0.091469  -0.241819   0.176557   0.096280  -0.020125
   22  C  2  X    0.117891  -0.152163  -0.015762  -0.163203   0.180746
   23  C  2  Y    0.015001  -0.000156  -0.198656   0.169392   0.241441
   24  C  2  Z   -0.000000   0.000000   0.000000  -0.000000  -0.000000
   25  C  2  S    0.080460  -0.222352   0.165244   0.072764  -0.031394
   26  C  2  X    0.026153  -0.036209   0.022005  -0.043123   0.033758
   27  C  2  Y   -0.000738   0.009079  -0.068758   0.057222   0.088755
   28  C  2  Z   -0.000000   0.000000   0.000000  -0.000000  -0.000000
   29  C  2  S    0.077915   0.018022  -0.140870  -0.035187   0.070412
   30  C  2  X    0.022313  -0.010265  -0.028815   0.010177   0.038425
   31  C  2  Y    0.008324  -0.004776  -0.016600  -0.008497   0.015620
   32  C  2  Z   -0.000000   0.000000   0.000000  -0.000000  -0.000000
   33  C  2 XX    0.004803   0.000711  -0.001773   0.001975  -0.002051
   34  C  2 YY    0.002809  -0.008869   0.003769  -0.003385   0.001401
   35  C  2 ZZ   -0.003614   0.008212  -0.007107  -0.006907   0.003067
   36  C  2 XY    0.011207  -0.010906  -0.003701  -0.012407   0.001999
   37  C  2 XZ   -0.000000   0.000000   0.000000  -0.000000  -0.000000
   38  C  2 YZ   -0.000000   0.000000   0.000000  -0.000000  -0.000000
   39  C  3  S   -0.161574   0.056789   0.090446   0.026622   0.013974
   40  C  3  S    0.312945  -0.109130  -0.177766  -0.056103  -0.028719
   41  C  3  X    0.083019   0.223622  -0.009336  -0.136417  -0.214801
   42  C  3  Y   -0.069660   0.017226  -0.179855   0.175426  -0.157281
   43  C  3  Z   -0.000000   0.000000   0.000000  -0.000000  -0.000000
   44  C  3  S    0.214974  -0.138212  -0.218840  -0.041515  -0.017897
   45  C  3  X    0.009106   0.045454  -0.009607  -0.036620  -0.078741
   46  C  3  Y   -0.001955   0.012405  -0.060923   0.059815  -0.077662
   47  C  3  Z   -0.000000   0.000000   0.000000  -0.000000  -0.000000
   48  C  3  S   -0.135816   0.039647   0.275885   0.100373  -0.180602
   49  C  3  X    0.001873   0.014003   0.011098  -0.001360  -0.050592
   50  C  3  Y    0.024480  -0.003940  -0.041043  -0.031600   0.039604
   51  C  3  Z   -0.000000   0.000000   0.000000  -0.000000  -0.000000
   52  C  3 XX    0.013768   0.002271   0.002096   0.000255   0.001153
   53  C  3 YY    0.002609  -0.007806  -0.005909   0.001984  -0.000194
   54  C  3 ZZ   -0.014772   0.002517   0.005989   0.001828   0.001709
   55  C  3 XY   -0.005737  -0.017885   0.002510   0.008693   0.006721
   56  C  3 XZ   -0.000000   0.000000   0.000000  -0.000000  -0.000000
   57  C  3 YZ   -0.000000   0.000000   0.000000  -0.000000  -0.000000
   58  C  4  S   -0.142957  -0.125996  -0.053935  -0.020037  -0.012632
   59  C  4  S    0.271867   0.240694   0.101755   0.035764   0.021028
   60  C  4  X   -0.114901   0.054627   0.075806   0.279643   0.038705
   61  C  4  Y    0.049577   0.012601  -0.132194   0.014118  -0.256930
   62  C  4  Z   -0.000000   0.000000   0.000000  -0.000000  -0.000000
   63  C  4  S    0.193587   0.253229   0.135931   0.068180   0.045283
   64  C  4  X   -0.013192   0.009876   0.012540   0.105365   0.003175
   65  C  4  Y    0.002309   0.004921  -0.036606   0.021854  -0.101995
   66  C  4  Z   -0.000000   0.000000   0.000000  -0.000000  -0.000000
   67  C  4  S    0.025967  -0.064193  -0.169109  -0.091872   0.139068
   68  C  4  X   -0.010456  -0.000336   0.035348   0.030405  -0.014981
   69  C  4  Y    0.009886  -0.006078  -0.008774   0.002957   0.029612
   70  C  4  Z   -0.000000   0.000000   0.000000  -0.000000  -0.000000
   71  C  4 XX    0.013569   0.000731  -0.002520  -0.005233  -0.005276
   72  C  4 YY   -0.000183   0.007002   0.005598   0.008041   0.007489
   73  C  4 ZZ   -0.013640  -0.009077  -0.003338  -0.000398  -0.000720
   74  C  4 XY   -0.008841   0.001592   0.009028   0.014162   0.006416
   75  C  4 XZ   -0.000000   0.000000   0.000000  -0.000000  -0.000000
   76  C  4 YZ   -0.000000   0.000000   0.000000  -0.000000  -0.000000
   77  H  5  S    0.030732  -0.103212   0.173381  -0.059173  -0.122131
   78  H  5  S    0.004756  -0.041593   0.098572  -0.041120  -0.079497
   79  H  5  S   -0.000835  -0.019232   0.014388  -0.002871   0.002455
   80  H  5  X    0.000339  -0.000657  -0.000845  -0.001149   0.003061
   81  H  5  Y    0.002811  -0.008676   0.012428  -0.002791  -0.007422
   82  H  5  Z   -0.000000   0.000000   0.000000  -0.000000  -0.000000
   83  H  6  S    0.078652  -0.049246  -0.172222   0.080309  -0.089266
   84  H  6  S    0.016919  -0.019882  -0.088159   0.055728  -0.050935
   85  H  6  S    0.002838  -0.001635  -0.006024   0.021547  -0.027419
   86  H  6  X    0.002123   0.001871  -0.002003  -0.001217  -0.004974
   87  H  6  Y   -0.008469   0.003988   0.012270  -0.004125   0.005361
   88  H  6  Z   -0.000000   0.000000   0.000000  -0.000000  -0.000000
   89  H  7  S    0.072199   0.098148   0.121779   0.028006   0.161550
   90  H  7  S    0.019665   0.042510   0.071481   0.024749   0.108180
   91  H  7  S    0.016306   0.013572   0.011922   0.005067   0.019341
   92  H  7  X   -0.002253  -0.000448  -0.000757   0.003652  -0.000822
   93  H  7  Y    0.007975   0.008671   0.008212   0.001640   0.009093
   94  H  7  Z   -0.000000   0.000000   0.000000  -0.000000  -0.000000
   95  H  8  S    0.068441   0.126250   0.046800   0.163919  -0.045246
   96  H  8  S    0.018140   0.057785   0.026708   0.104550  -0.027655
   97  H  8  S    0.003063   0.014858   0.002098  -0.001173  -0.014922
   98  H  8  X   -0.007194  -0.009239  -0.001873  -0.006504   0.004440
   99  H  8  Y   -0.002892  -0.005539  -0.003402  -0.005830  -0.001301
  100  H  8  Z   -0.000000   0.000000   0.000000  -0.000000  -0.000000

                     11         12         13         14         15
                   -0.6135    -0.5600    -0.4308     1.9601     1.0399
                     A'         A'         A'         A''        A'' 
    1  O  1  S    0.034176  -0.005326   0.000255  -0.000000  -0.000000
    2  O  1  S   -0.078630   0.011359  -0.007388  -0.000000  -0.000000
    3  O  1  X    0.336698   0.020312   0.206497  -0.000000  -0.000000
    4  O  1  Y   -0.099917   0.212317   0.482399  -0.000000  -0.000000
    5  O  1  Z    0.000000  -0.000000  -0.000000   0.442086  -0.236005
    6  O  1  S   -0.179530   0.033468   0.039163  -0.000000  -0.000000
    7  O  1  X    0.169182   0.025625   0.169884  -0.000000  -0.000000
    8  O  1  Y   -0.047009   0.137312   0.356529  -0.000000  -0.000000
    9  O  1  Z    0.000000  -0.000000  -0.000000   0.294390  -0.170213
   10  O  1  S   -0.040386   0.005553   0.035074  -0.000000  -0.000000
   11  O  1  X    0.004572  -0.003313   0.022551  -0.000000  -0.000000
   12  O  1  Y   -0.003222   0.004648   0.038117  -0.000000  -0.000000
   13  O  1  Z    0.000000  -0.000000  -0.000000   0.010478  -0.017556
   14  O  1 XX    0.015752   0.005159   0.010384  -0.000000  -0.000000
   15  O  1 YY   -0.006181  -0.007859  -0.012828  -0.000000  -0.000000
   16  O  1 ZZ   -0.006146   0.001053  -0.002077  -0.000000  -0.000000
   17  O  1 XY   -0.008308   0.010072   0.012589  -0.000000  -0.000000
   18  O  1 XZ    0.000000  -0.000000  -0.000000   0.034906  -0.012622
   19  O  1 YZ    0.000000  -0.000000  -0.000000  -0.014697   0.006004
   20  C  2  S    0.002737  -0.026482   0.000937  -0.000000  -0.000000
   21  C  2  S    0.007153   0.055677  -0.011845  -0.000000  -0.000000
   22  C  2  X   -0.226100   0.138261  -0.082329  -0.000000  -0.000000
   23  C  2  Y    0.163821   0.059634  -0.182304  -0.000000  -0.000000
   24  C  2  Z    0.000000  -0.000000  -0.000000   0.341316  -0.019836
   25  C  2  S   -0.051386   0.040518   0.018068  -0.000000  -0.000000
   26  C  2  X   -0.077396   0.033514   0.045201  -0.000000  -0.000000
   27  C  2  Y    0.064980   0.017758  -0.098236  -0.000000  -0.000000
   28  C  2  Z    0.000000  -0.000000  -0.000000   0.187114  -0.006945
   29  C  2  S   -0.017270   0.051990   0.179865  -0.000000  -0.000000
   30  C  2  X    0.009821   0.026757   0.092310  -0.000000  -0.000000
   31  C  2  Y   -0.024080   0.032019   0.076186  -0.000000  -0.000000
   32  C  2  Z    0.000000  -0.000000  -0.000000   0.031539  -0.009785
   33  C  2 XX    0.019921  -0.005471  -0.036916  -0.000000  -0.000000
   34  C  2 YY   -0.019710   0.004714   0.038035  -0.000000  -0.000000
   35  C  2 ZZ   -0.005736   0.000720  -0.001410  -0.000000  -0.000000
   36  C  2 XY   -0.017681  -0.003648  -0.036872  -0.000000  -0.000000
   37  C  2 XZ    0.000000  -0.000000  -0.000000  -0.022214   0.027182
   38  C  2 YZ    0.000000  -0.000000  -0.000000   0.017173   0.001089
   39  C  3  S   -0.007818   0.016016   0.035676  -0.000000  -0.000000
   40  C  3  S    0.020562  -0.029785  -0.068555  -0.000000  -0.000000
   41  C  3  X    0.221181   0.017862   0.205431  -0.000000  -0.000000
   42  C  3  Y   -0.179644  -0.239839   0.141990  -0.000000  -0.000000
   43  C  3  Z    0.000000  -0.000000  -0.000000   0.152725   0.364362
   44  C  3  S    0.008101  -0.051868  -0.229249  -0.000000  -0.000000
   45  C  3  X    0.077273  -0.026979   0.082017  -0.000000  -0.000000
   46  C  3  Y   -0.091133  -0.163558   0.175128  -0.000000  -0.000000
   47  C  3  Z    0.000000  -0.000000  -0.000000   0.093668   0.235349
   48  C  3  S   -0.052037  -0.081391  -0.403123  -0.000000  -0.000000
   49  C  3  X   -0.051561   0.005423   0.024205  -0.000000  -0.000000
   50  C  3  Y    0.009726   0.027792   0.112762  -0.000000  -0.000000
   51  C  3  Z    0.000000  -0.000000  -0.000000   0.009315   0.014666
   52  C  3 XX    0.011496   0.019739  -0.005801  -0.000000  -0.000000
   53  C  3 YY   -0.013336  -0.021590   0.005988  -0.000000  -0.000000
   54  C  3 ZZ   -0.001397   0.000664  -0.000246  -0.000000  -0.000000
   55  C  3 XY   -0.015611   0.011058  -0.010230  -0.000000  -0.000000
   56  C  3 XZ    0.000000  -0.000000  -0.000000  -0.007683   0.015282
   57  C  3 YZ    0.000000  -0.000000  -0.000000  -0.007888  -0.012609
   58  C  4  S   -0.011048  -0.007585  -0.005872  -0.000000  -0.000000
   59  C  4  S    0.029674   0.017468   0.009930  -0.000000  -0.000000
   60  C  4  X   -0.302195   0.066897  -0.079781  -0.000000  -0.000000
   61  C  4  Y    0.018235   0.330898  -0.010881  -0.000000  -0.000000
   62  C  4  Z    0.000000  -0.000000  -0.000000   0.059041   0.404928
   63  C  4  S   -0.014319   0.010647   0.086450  -0.000000  -0.000000
   64  C  4  X   -0.100147   0.067221  -0.093312  -0.000000  -0.000000
   65  C  4  Y   -0.001660   0.206640  -0.023120  -0.000000  -0.000000
   66  C  4  Z    0.000000  -0.000000  -0.000000   0.020703   0.256678
   67  C  4  S    0.096141   0.040415   0.189724  -0.000000  -0.000000
   68  C  4  X   -0.006834  -0.013423  -0.043264  -0.000000  -0.000000
   69  C  4  Y    0.032650  -0.014807  -0.031835  -0.000000  -0.000000
   70  C  4  Z    0.000000  -0.000000  -0.000000  -0.009558   0.028202
   71  C  4 XX    0.004704   0.019186  -0.005969  -0.000000  -0.000000
   72  C  4 YY   -0.008308  -0.020213   0.006743  -0.000000  -0.000000
   73  C  4 ZZ   -0.000592  -0.000370  -0.000657  -0.000000  -0.000000
   74  C  4 XY   -0.015986   0.010653  -0.009116  -0.000000  -0.000000
   75  C  4 XZ    0.000000  -0.000000  -0.000000  -0.006113  -0.017758
   76  C  4 YZ    0.000000  -0.000000  -0.000000   0.002275   0.008549
   77  H  5  S   -0.119516   0.003423   0.187827  -0.000000  -0.000000
   78  H  5  S   -0.090669   0.001061   0.223577  -0.000000  -0.000000
   79  H  5  S   -0.021898   0.031398   0.105468  -0.000000  -0.000000
   80  H  5  X   -0.001407   0.001032  -0.001618  -0.000000  -0.000000
   81  H  5  Y   -0.005732   0.000984   0.005211  -0.000000  -0.000000
   82  H  5  Z    0.000000  -0.000000  -0.000000   0.006009  -0.000068
   83  H  6  S   -0.119122  -0.186789   0.057818  -0.000000  -0.000000
   84  H  6  S   -0.080590  -0.126972   0.031410  -0.000000  -0.000000
   85  H  6  S   -0.010291  -0.036105  -0.030680  -0.000000  -0.000000
   86  H  6  X    0.001335  -0.001461   0.002360  -0.000000  -0.000000
   87  H  6  Y    0.005309   0.007887  -0.000957  -0.000000  -0.000000
   88  H  6  Z    0.000000  -0.000000  -0.000000   0.003276   0.007188
   89  H  7  S   -0.022411  -0.216751   0.027239  -0.000000  -0.000000
   90  H  7  S   -0.019938  -0.160835   0.019995  -0.000000  -0.000000
   91  H  7  S    0.018945  -0.046707  -0.057290  -0.000000  -0.000000
   92  H  7  X   -0.004038   0.002367  -0.001548  -0.000000  -0.000000
   93  H  7  Y    0.000045  -0.008871  -0.000231  -0.000000  -0.000000
   94  H  7  Z    0.000000  -0.000000  -0.000000   0.001380   0.008543
   95  H  8  S   -0.144788   0.170293  -0.057512  -0.000000  -0.000000
   96  H  8  S   -0.117144   0.115497  -0.045890  -0.000000  -0.000000
   97  H  8  S   -0.025424   0.036613   0.015094  -0.000000  -0.000000
   98  H  8  X    0.004161  -0.008363   0.001080  -0.000000  -0.000000
   99  H  8  Y    0.005352  -0.001232   0.001290  -0.000000  -0.000000
  100  H  8  Z    0.000000  -0.000000  -0.000000   0.001252   0.008655

                     16         17
                    0.9601     0.0399
                     A''        A'' 
    1  O  1  S    0.000000  -0.000000
    2  O  1  S    0.000000  -0.000000
    3  O  1  X    0.000000  -0.000000
    4  O  1  Y    0.000000  -0.000000
    5  O  1  Z    0.264157  -0.450156
    6  O  1  S    0.000000  -0.000000
    7  O  1  X    0.000000  -0.000000
    8  O  1  Y    0.000000  -0.000000
    9  O  1  Z    0.223390  -0.270603
   10  O  1  S    0.000000  -0.000000
   11  O  1  X    0.000000  -0.000000
   12  O  1  Y    0.000000  -0.000000
   13  O  1  Z    0.080452   0.025403
   14  O  1 XX    0.000000  -0.000000
   15  O  1 YY    0.000000  -0.000000
   16  O  1 ZZ    0.000000  -0.000000
   17  O  1 XY    0.000000  -0.000000
   18  O  1 XZ    0.005035   0.016137
   19  O  1 YZ   -0.003546  -0.004144
   20  C  2  S    0.000000  -0.000000
   21  C  2  S    0.000000  -0.000000
   22  C  2  X    0.000000  -0.000000
   23  C  2  Y    0.000000  -0.000000
   24  C  2  Z   -0.173583   0.521989
   25  C  2  S    0.000000  -0.000000
   26  C  2  X    0.000000  -0.000000
   27  C  2  Y    0.000000  -0.000000
   28  C  2  Z   -0.171582   0.508981
   29  C  2  S    0.000000  -0.000000
   30  C  2  X    0.000000  -0.000000
   31  C  2  Y    0.000000  -0.000000
   32  C  2  Z   -0.036517   0.071654
   33  C  2 XX    0.000000  -0.000000
   34  C  2 YY    0.000000  -0.000000
   35  C  2 ZZ    0.000000  -0.000000
   36  C  2 XY    0.000000  -0.000000
   37  C  2 XZ   -0.032209  -0.028250
   38  C  2 YZ   -0.005547  -0.005560
   39  C  3  S    0.000000  -0.000000
   40  C  3  S    0.000000  -0.000000
   41  C  3  X    0.000000  -0.000000
   42  C  3  Y    0.000000  -0.000000
   43  C  3  Z   -0.337559  -0.376187
   44  C  3  S    0.000000  -0.000000
   45  C  3  X    0.000000  -0.000000
   46  C  3  Y    0.000000  -0.000000
   47  C  3  Z   -0.404470  -0.426846
   48  C  3  S    0.000000  -0.000000
   49  C  3  X    0.000000  -0.000000
   50  C  3  Y    0.000000  -0.000000
   51  C  3  Z   -0.167001  -0.056302
   52  C  3 XX    0.000000  -0.000000
   53  C  3 YY    0.000000  -0.000000
   54  C  3 ZZ    0.000000  -0.000000
   55  C  3 XY    0.000000  -0.000000
   56  C  3 XZ    0.030238   0.004063
   57  C  3 YZ    0.000983  -0.002130
   58  C  4  S    0.000000  -0.000000
   59  C  4  S    0.000000  -0.000000
   60  C  4  X    0.000000  -0.000000
   61  C  4  Y    0.000000  -0.000000
   62  C  4  Z    0.433731   0.170129
   63  C  4  S    0.000000  -0.000000
   64  C  4  X    0.000000  -0.000000
   65  C  4  Y    0.000000  -0.000000
   66  C  4  Z    0.477577   0.207580
   67  C  4  S    0.000000  -0.000000
   68  C  4  X    0.000000  -0.000000
   69  C  4  Y    0.000000  -0.000000
   70  C  4  Z    0.194869   0.020610
   71  C  4 XX    0.000000  -0.000000
   72  C  4 YY    0.000000  -0.000000
   73  C  4 ZZ    0.000000  -0.000000
   74  C  4 XY    0.000000  -0.000000
   75  C  4 XZ    0.011652   0.004607
   76  C  4 YZ   -0.004427  -0.004310
   77  H  5  S    0.000000  -0.000000
   78  H  5  S    0.000000  -0.000000
   79  H  5  S    0.000000  -0.000000
   80  H  5  X    0.000000  -0.000000
   81  H  5  Y    0.000000  -0.000000
   82  H  5  Z   -0.004272   0.011989
   83  H  6  S    0.000000  -0.000000
   84  H  6  S    0.000000  -0.000000
   85  H  6  S    0.000000  -0.000000
   86  H  6  X    0.000000  -0.000000
   87  H  6  Y    0.000000  -0.000000
   88  H  6  Z   -0.009068  -0.007710
   89  H  7  S    0.000000  -0.000000
   90  H  7  S    0.000000  -0.000000
   91  H  7  S    0.000000  -0.000000
   92  H  7  X    0.000000  -0.000000
   93  H  7  Y    0.000000  -0.000000
   94  H  7  Z    0.012183   0.003960
   95  H  8  S    0.000000  -0.000000
   96  H  8  S    0.000000  -0.000000
   97  H  8  S    0.000000  -0.000000
   98  H  8  X    0.000000  -0.000000
   99  H  8  Y    0.000000  -0.000000
  100  H  8  Z    0.012367   0.003153

          ------------------------
          MCSCF OPTIMIZED ORBITALS
          ------------------------

                      1          2          3          4          5
                  -20.5761   -11.3173   -11.2709   -11.2505    -1.4094
                     A'         A'         A'         A'         A'  
    1  O  1  S    0.994608  -0.000332   0.000018  -0.000029  -0.196753
    2  O  1  S    0.020960   0.000700  -0.000041  -0.000140   0.432637
    3  O  1  X    0.001553   0.000297  -0.000011  -0.000029   0.133061
    4  O  1  Y   -0.000658  -0.000125   0.000006   0.000029  -0.056501
    5  O  1  Z    0.000000   0.000000  -0.000000  -0.000000   0.000000
    6  O  1  S    0.005030  -0.002418   0.000204   0.000961   0.402587
    7  O  1  X   -0.000762  -0.001049   0.000304   0.000431   0.051605
    8  O  1  Y    0.000292   0.000451  -0.000398  -0.000181  -0.019360
    9  O  1  Z    0.000000   0.000000  -0.000000  -0.000000   0.000000
   10  O  1  S   -0.002291   0.006449   0.001988   0.001735  -0.019839
   11  O  1  X    0.000196   0.003275   0.000369   0.000634  -0.001053
   12  O  1  Y   -0.000087  -0.001192   0.000164   0.000119  -0.001885
   13  O  1  Z    0.000000   0.000000  -0.000000  -0.000000   0.000000
   14  O  1 XX   -0.003924   0.000152   0.000156  -0.000028   0.015512
   15  O  1 YY   -0.004073   0.000212   0.000089  -0.000097  -0.000293
   16  O  1 ZZ   -0.004424   0.000422  -0.000044  -0.000078  -0.004125
   17  O  1 XY   -0.000098   0.000069  -0.000036   0.000004  -0.008957
   18  O  1 XZ    0.000000   0.000000  -0.000000  -0.000000   0.000000
   19  O  1 YZ    0.000000   0.000000  -0.000000  -0.000000   0.000000
   20  C  2  S   -0.000001   0.995848  -0.008710   0.000337  -0.114958
   21  C  2  S    0.000414   0.027872  -0.000041  -0.000150   0.216587
   22  C  2  X    0.000026  -0.000884   0.000085   0.000024  -0.163098
   23  C  2  Y   -0.000037   0.000455   0.000006   0.000039   0.076556
   24  C  2  Z    0.000000   0.000000  -0.000000  -0.000000   0.000000
   25  C  2  S    0.000754  -0.013513   0.002207  -0.001048   0.051525
   26  C  2  X   -0.000281  -0.000506   0.002151   0.000913   0.027930
   27  C  2  Y    0.000311   0.000140   0.000195  -0.000621  -0.022141
   28  C  2  Z    0.000000   0.000000  -0.000000  -0.000000   0.000000
   29  C  2  S    0.001971  -0.000390  -0.016388  -0.012676   0.074556
   30  C  2  X   -0.000498  -0.000066  -0.003445  -0.003139   0.004907
   31  C  2  Y    0.000602   0.003451  -0.001834  -0.001710   0.003185
   32  C  2  Z    0.000000   0.000000  -0.000000  -0.000000   0.000000
   33  C  2 XX   -0.000617  -0.000813  -0.000384   0.000139   0.023713
   34  C  2 YY   -0.000145  -0.001347  -0.000273   0.000045  -0.012266
   35  C  2 ZZ   -0.000075  -0.002140   0.000037  -0.000012  -0.017900
   36  C  2 XY    0.000278  -0.000315  -0.000148   0.000044  -0.020753
   37  C  2 XZ    0.000000   0.000000  -0.000000  -0.000000   0.000000
   38  C  2 YZ    0.000000   0.000000  -0.000000  -0.000000   0.000000
   39  C  3  S   -0.000008   0.008457   0.994941  -0.037760  -0.018046
   40  C  3  S   -0.000017   0.000577   0.028473  -0.001061   0.032719
   41  C  3  X    0.000021  -0.000029   0.000601  -0.000322  -0.023601
   42  C  3  Y    0.000022   0.000053  -0.000333   0.000117  -0.010593
   43  C  3  Z    0.000000   0.000000  -0.000000  -0.000000   0.000000
   44  C  3  S    0.000100   0.001485  -0.014699   0.003449   0.023532
   45  C  3  X    0.000230  -0.000307  -0.000441   0.001327  -0.014364
   46  C  3  Y   -0.000248  -0.000887   0.001924  -0.000440   0.002630
   47  C  3  Z    0.000000   0.000000  -0.000000  -0.000000   0.000000
   48  C  3  S   -0.004006   0.013549   0.035638   0.005900  -0.145050
   49  C  3  X   -0.000138   0.008852   0.001331  -0.003173  -0.021834
   50  C  3  Y    0.000922  -0.004940  -0.006644  -0.002860   0.037276
   51  C  3  Z    0.000000   0.000000  -0.000000  -0.000000   0.000000
   52  C  3 XX   -0.000109  -0.000393  -0.001337  -0.000313   0.006609
   53  C  3 YY    0.000056  -0.000330  -0.001574  -0.000247   0.000030
   54  C  3 ZZ   -0.000038  -0.000015  -0.002395   0.000072  -0.001621
   55  C  3 XY    0.000034  -0.000239  -0.000276   0.000125   0.003780
   56  C  3 XZ    0.000000   0.000000  -0.000000  -0.000000   0.000000
   57  C  3 YZ    0.000000   0.000000  -0.000000  -0.000000   0.000000
   58  C  4  S   -0.000001  -0.000016   0.037198   0.994893  -0.003404
   59  C  4  S    0.000013  -0.000137   0.001067   0.028656   0.008543
   60  C  4  X   -0.000001   0.000073   0.000221  -0.000615  -0.006026
   61  C  4  Y    0.000016   0.000024  -0.000128   0.000235   0.000454
   62  C  4  Z    0.000000   0.000000  -0.000000  -0.000000   0.000000
   63  C  4  S   -0.000243  -0.000591   0.003269  -0.012803   0.007361
   64  C  4  X    0.000017  -0.000407  -0.001634   0.001233   0.009051
   65  C  4  Y   -0.000086  -0.000307   0.000383  -0.000421   0.009137
   66  C  4  Z    0.000000   0.000000  -0.000000  -0.000000   0.000000
   67  C  4  S    0.003007  -0.020198  -0.019630   0.008377   0.111907
   68  C  4  X   -0.001126   0.003511   0.004584  -0.001214  -0.023054
   69  C  4  Y   -0.000094  -0.003179  -0.001139   0.000838   0.015956
   70  C  4  Z    0.000000   0.000000  -0.000000  -0.000000   0.000000
   71  C  4 XX   -0.000014   0.000095  -0.000514  -0.001504   0.000447
   72  C  4 YY    0.000009   0.000076  -0.000400  -0.001820  -0.000440
   73  C  4 ZZ   -0.000007  -0.000051  -0.000110  -0.002573   0.000107
   74  C  4 XY   -0.000041  -0.000005   0.000132  -0.000203   0.000143
   75  C  4 XZ    0.000000   0.000000  -0.000000  -0.000000   0.000000
   76  C  4 YZ    0.000000   0.000000  -0.000000  -0.000000   0.000000
   77  H  5  S   -0.000054  -0.000056  -0.000100  -0.000094   0.029617
   78  H  5  S    0.000177   0.002073  -0.000206  -0.000143  -0.010839
   79  H  5  S    0.000001   0.002614   0.000539   0.000158  -0.010647
   80  H  5  X    0.000097   0.000051  -0.000055  -0.000057  -0.002500
   81  H  5  Y   -0.000010  -0.000214   0.000064  -0.000004   0.005865
   82  H  5  Z    0.000000   0.000000  -0.000000  -0.000000   0.000000
   83  H  6  S   -0.000000  -0.000046  -0.000113   0.000013   0.007525
   84  H  6  S    0.000168   0.000593   0.000949  -0.000108  -0.004138
   85  H  6  S   -0.000533   0.003174   0.000257   0.001376  -0.019796
   86  H  6  X   -0.000025   0.000023   0.000022   0.000049  -0.000101
   87  H  6  Y    0.000009  -0.000091   0.000254  -0.000133  -0.001016
   88  H  6  Z    0.000000   0.000000  -0.000000  -0.000000   0.000000
   89  H  7  S    0.000001  -0.000065  -0.000014  -0.000004   0.002657
   90  H  7  S   -0.000063  -0.000174   0.000008   0.001323   0.003944
   91  H  7  S   -0.000096  -0.001658   0.000115  -0.001482   0.011576
   92  H  7  X   -0.000003   0.000042  -0.000048  -0.000058  -0.000338
   93  H  7  Y   -0.000007  -0.000016   0.000119  -0.000228   0.000280
   94  H  7  Z    0.000000   0.000000  -0.000000  -0.000000   0.000000
   95  H  8  S    0.000017  -0.000031   0.000013  -0.000073   0.000256
   96  H  8  S    0.000090   0.000833   0.000306   0.001335  -0.010744
   97  H  8  S    0.000474   0.000465  -0.000424  -0.001365  -0.003716
   98  H  8  X   -0.000015  -0.000021  -0.000118   0.000141   0.000205
   99  H  8  Y   -0.000009  -0.000004  -0.000030   0.000180   0.000158
  100  H  8  Z    0.000000   0.000000  -0.000000  -0.000000   0.000000

                      6          7          8          9         10
                   -1.0966    -0.8842    -0.7909    -0.6772    -0.6732
                     A'         A'         A'         A'         A'  
    1  O  1  S    0.035128  -0.067804   0.040197   0.062675  -0.018042
    2  O  1  S   -0.080649   0.156443  -0.095704  -0.144940   0.042636
    3  O  1  X    0.007903  -0.100517   0.055895   0.368855   0.012406
    4  O  1  Y    0.011698   0.014113  -0.150643  -0.042051   0.288968
    5  O  1  Z   -0.000000   0.000000   0.000000  -0.000000  -0.000000
    6  O  1  S   -0.080051   0.205740  -0.124019  -0.269863   0.070509
    7  O  1  X    0.004224  -0.045261   0.028637   0.181033   0.017363
    8  O  1  Y    0.003545   0.003266  -0.080055  -0.008402   0.168557
    9  O  1  Z   -0.000000   0.000000   0.000000  -0.000000  -0.000000
   10  O  1  S   -0.007422   0.015278   0.005358  -0.039797  -0.003670
   11  O  1  X   -0.005735   0.008927   0.003025  -0.000049  -0.012332
   12  O  1  Y   -0.001295  -0.000132   0.005320  -0.001432  -0.002486
   13  O  1  Z   -0.000000   0.000000   0.000000  -0.000000  -0.000000
   14  O  1 XX   -0.000304  -0.006027  -0.000941   0.020102   0.008163
   15  O  1 YY   -0.002321   0.003798   0.003226  -0.007947  -0.010884
   16  O  1 ZZ   -0.000012   0.001765  -0.002594  -0.006808   0.001973
   17  O  1 XY    0.001227   0.001954  -0.011056  -0.006908   0.016731
   18  O  1 XZ   -0.000000   0.000000   0.000000  -0.000000  -0.000000
   19  O  1 YZ   -0.000000   0.000000   0.000000  -0.000000  -0.000000
   20  C  2  S   -0.047210   0.118087  -0.085335  -0.040646   0.009805
   21  C  2  S    0.091469  -0.241819   0.176557   0.096280  -0.020125
   22  C  2  X    0.117891  -0.152163  -0.015762  -0.163203   0.180746
   23  C  2  Y    0.015001  -0.000156  -0.198656   0.169392   0.241441
   24  C  2  Z   -0.000000   0.000000   0.000000  -0.000000  -0.000000
   25  C  2  S    0.080460  -0.222352   0.165244   0.072764  -0.031394
   26  C  2  X    0.026153  -0.036209   0.022005  -0.043123   0.033758
   27  C  2  Y   -0.000738   0.009079  -0.068758   0.057222   0.088755
   28  C  2  Z   -0.000000   0.000000   0.000000  -0.000000  -0.000000
   29  C  2  S    0.077915   0.018022  -0.140870  -0.035187   0.070412
   30  C  2  X    0.022313  -0.010265  -0.028815   0.010177   0.038425
   31  C  2  Y    0.008324  -0.004776  -0.016600  -0.008497   0.015620
   32  C  2  Z   -0.000000   0.000000   0.000000  -0.000000  -0.000000
   33  C  2 XX    0.004803   0.000711  -0.001773   0.001975  -0.002051
   34  C  2 YY    0.002809  -0.008869   0.003769  -0.003385   0.001401
   35  C  2 ZZ   -0.003614   0.008212  -0.007107  -0.006907   0.003067
   36  C  2 XY    0.011207  -0.010906  -0.003701  -0.012407   0.001999
   37  C  2 XZ   -0.000000   0.000000   0.000000  -0.000000  -0.000000
   38  C  2 YZ   -0.000000   0.000000   0.000000  -0.000000  -0.000000
   39  C  3  S   -0.161574   0.056789   0.090446   0.026622   0.013974
   40  C  3  S    0.312945  -0.109130  -0.177766  -0.056103  -0.028719
   41  C  3  X    0.083019   0.223622  -0.009336  -0.136417  -0.214801
   42  C  3  Y   -0.069660   0.017226  -0.179855   0.175426  -0.157281
   43  C  3  Z   -0.000000   0.000000   0.000000  -0.000000  -0.000000
   44  C  3  S    0.214974  -0.138212  -0.218840  -0.041515  -0.017897
   45  C  3  X    0.009106   0.045454  -0.009607  -0.036620  -0.078741
   46  C  3  Y   -0.001955   0.012405  -0.060923   0.059815  -0.077662
   47  C  3  Z   -0.000000   0.000000   0.000000  -0.000000  -0.000000
   48  C  3  S   -0.135816   0.039647   0.275885   0.100373  -0.180602
   49  C  3  X    0.001873   0.014003   0.011098  -0.001360  -0.050592
   50  C  3  Y    0.024480  -0.003940  -0.041043  -0.031600   0.039604
   51  C  3  Z   -0.000000   0.000000   0.000000  -0.000000  -0.000000
   52  C  3 XX    0.013768   0.002271   0.002096   0.000255   0.001153
   53  C  3 YY    0.002609  -0.007806  -0.005909   0.001984  -0.000194
   54  C  3 ZZ   -0.014772   0.002517   0.005989   0.001828   0.001709
   55  C  3 XY   -0.005737  -0.017885   0.002510   0.008693   0.006721
   56  C  3 XZ   -0.000000   0.000000   0.000000  -0.000000  -0.000000
   57  C  3 YZ   -0.000000   0.000000   0.000000  -0.000000  -0.000000
   58  C  4  S   -0.142957  -0.125996  -0.053935  -0.020037  -0.012632
   59  C  4  S    0.271867   0.240694   0.101755   0.035764   0.021028
   60  C  4  X   -0.114901   0.054627   0.075806   0.279643   0.038705
   61  C  4  Y    0.049577   0.012601  -0.132194   0.014118  -0.256930
   62  C  4  Z   -0.000000   0.000000   0.000000  -0.000000  -0.000000
   63  C  4  S    0.193587   0.253229   0.135931   0.068180   0.045283
   64  C  4  X   -0.013192   0.009876   0.012540   0.105365   0.003175
   65  C  4  Y    0.002309   0.004921  -0.036606   0.021854  -0.101995
   66  C  4  Z   -0.000000   0.000000   0.000000  -0.000000  -0.000000
   67  C  4  S    0.025967  -0.064193  -0.169109  -0.091872   0.139068
   68  C  4  X   -0.010456  -0.000336   0.035348   0.030405  -0.014981
   69  C  4  Y    0.009886  -0.006078  -0.008774   0.002957   0.029612
   70  C  4  Z   -0.000000   0.000000   0.000000  -0.000000  -0.000000
   71  C  4 XX    0.013569   0.000731  -0.002520  -0.005233  -0.005276
   72  C  4 YY   -0.000183   0.007002   0.005598   0.008041   0.007489
   73  C  4 ZZ   -0.013640  -0.009077  -0.003338  -0.000398  -0.000720
   74  C  4 XY   -0.008841   0.001592   0.009028   0.014162   0.006416
   75  C  4 XZ   -0.000000   0.000000   0.000000  -0.000000  -0.000000
   76  C  4 YZ   -0.000000   0.000000   0.000000  -0.000000  -0.000000
   77  H  5  S    0.030732  -0.103212   0.173381  -0.059173  -0.122131
   78  H  5  S    0.004756  -0.041593   0.098572  -0.041120  -0.079497
   79  H  5  S   -0.000835  -0.019232   0.014388  -0.002871   0.002455
   80  H  5  X    0.000339  -0.000657  -0.000845  -0.001149   0.003061
   81  H  5  Y    0.002811  -0.008676   0.012428  -0.002791  -0.007422
   82  H  5  Z   -0.000000   0.000000   0.000000  -0.000000  -0.000000
   83  H  6  S    0.078652  -0.049246  -0.172222   0.080309  -0.089266
   84  H  6  S    0.016919  -0.019882  -0.088159   0.055728  -0.050935
   85  H  6  S    0.002838  -0.001635  -0.006024   0.021547  -0.027419
   86  H  6  X    0.002123   0.001871  -0.002003  -0.001217  -0.004974
   87  H  6  Y   -0.008469   0.003988   0.012270  -0.004125   0.005361
   88  H  6  Z   -0.000000   0.000000   0.000000  -0.000000  -0.000000
   89  H  7  S    0.072199   0.098148   0.121779   0.028006   0.161550
   90  H  7  S    0.019665   0.042510   0.071481   0.024749   0.108180
   91  H  7  S    0.016306   0.013572   0.011922   0.005067   0.019341
   92  H  7  X   -0.002253  -0.000448  -0.000757   0.003652  -0.000822
   93  H  7  Y    0.007975   0.008671   0.008212   0.001640   0.009093
   94  H  7  Z   -0.000000   0.000000   0.000000  -0.000000  -0.000000
   95  H  8  S    0.068441   0.126250   0.046800   0.163919  -0.045246
   96  H  8  S    0.018140   0.057785   0.026708   0.104550  -0.027655
   97  H  8  S    0.003063   0.014858   0.002098  -0.001173  -0.014922
   98  H  8  X   -0.007194  -0.009239  -0.001873  -0.006504   0.004440
   99  H  8  Y   -0.002892  -0.005539  -0.003402  -0.005830  -0.001301
  100  H  8  Z   -0.000000   0.000000   0.000000  -0.000000  -0.000000

                     11         12         13         14         15
                   -0.6135    -0.5600    -0.4308     0.0000     0.0000
                     A'         A'         A'         A''        A'' 
    1  O  1  S    0.034176  -0.005326   0.000255   0.000000   0.000000
    2  O  1  S   -0.078630   0.011359  -0.007388   0.000000   0.000000
    3  O  1  X    0.336698   0.020312   0.206497   0.000000   0.000000
    4  O  1  Y   -0.099917   0.212317   0.482399   0.000000   0.000000
    5  O  1  Z    0.000000  -0.000000  -0.000000   0.455411  -0.209139
    6  O  1  S   -0.179530   0.033468   0.039163   0.000000   0.000000
    7  O  1  X    0.169182   0.025625   0.169884   0.000000   0.000000
    8  O  1  Y   -0.047009   0.137312   0.356529   0.000000   0.000000
    9  O  1  Z    0.000000  -0.000000  -0.000000   0.304044  -0.152298
   10  O  1  S   -0.040386   0.005553   0.035074   0.000000   0.000000
   11  O  1  X    0.004572  -0.003313   0.022551   0.000000   0.000000
   12  O  1  Y   -0.003222   0.004648   0.038117   0.000000   0.000000
   13  O  1  Z    0.000000  -0.000000  -0.000000   0.011509  -0.016898
   14  O  1 XX    0.015752   0.005159   0.010384   0.000000   0.000000
   15  O  1 YY   -0.006181  -0.007859  -0.012828   0.000000   0.000000
   16  O  1 ZZ   -0.006146   0.001053  -0.002077   0.000000   0.000000
   17  O  1 XY   -0.008308   0.010072   0.012589   0.000000   0.000000
   18  O  1 XZ    0.000000  -0.000000  -0.000000   0.035598  -0.010511
   19  O  1 YZ    0.000000  -0.000000  -0.000000  -0.015030   0.005114
   20  C  2  S    0.002737  -0.026482   0.000937   0.000000   0.000000
   21  C  2  S    0.007153   0.055677  -0.011845   0.000000   0.000000
   22  C  2  X   -0.226100   0.138261  -0.082329   0.000000   0.000000
   23  C  2  Y    0.163821   0.059634  -0.182304   0.000000   0.000000
   24  C  2  Z    0.000000  -0.000000  -0.000000   0.341892   0.000616
   25  C  2  S   -0.051386   0.040518   0.018068   0.000000   0.000000
   26  C  2  X   -0.077396   0.033514   0.045201   0.000000   0.000000
   27  C  2  Y    0.064980   0.017758  -0.098236   0.000000   0.000000
   28  C  2  Z    0.000000  -0.000000  -0.000000   0.187194   0.004260
   29  C  2  S   -0.017270   0.051990   0.179865   0.000000   0.000000
   30  C  2  X    0.009821   0.026757   0.092310   0.000000   0.000000
   31  C  2  Y   -0.024080   0.032019   0.076186   0.000000   0.000000
   32  C  2  Z    0.000000  -0.000000  -0.000000   0.032067  -0.007881
   33  C  2 XX    0.019921  -0.005471  -0.036916   0.000000   0.000000
   34  C  2 YY   -0.019710   0.004714   0.038035   0.000000   0.000000
   35  C  2 ZZ   -0.005736   0.000720  -0.001410   0.000000   0.000000
[...]
  100  H  8  Z   -0.000000  -0.000000  -0.000000  -0.000000   0.000000

                     96         97         98         99        100
                    4.1046     4.5868     4.7059     4.8324     5.0170
                     A'         A'         A'         A'         A'  
    1  O  1  S    0.032614  -0.468702   0.163917  -0.352496  -0.058839
    2  O  1  S   -0.167477  -0.512170   0.114761  -0.464150  -0.121406
    3  O  1  X   -0.121912  -0.298332   0.026103   0.002138   0.140780
    4  O  1  Y    0.047072   0.113341  -0.006640  -0.003364  -0.061475
    5  O  1  Z    0.000000   0.000000   0.000000  -0.000000  -0.000000
    6  O  1  S   -0.138001   5.711853  -1.799955   4.841982   1.187356
    7  O  1  X    0.085044   0.428893  -0.058572   0.813835   0.508983
    8  O  1  Y   -0.039624  -0.131106  -0.054209  -0.270572  -0.247941
    9  O  1  Z    0.000000   0.000000   0.000000  -0.000000  -0.000000
   10  O  1  S    0.159816  -1.678726   1.489885  -2.229491  -0.653228
   11  O  1  X   -0.067431   0.151937   0.271999  -0.494163  -0.394939
   12  O  1  Y    0.018828  -0.056991   0.016116   0.139211   0.165714
   13  O  1  Z    0.000000   0.000000   0.000000  -0.000000  -0.000000
   14  O  1 XX    0.072923  -1.701567   0.561685  -0.936010   0.081256
   15  O  1 YY    0.136907  -1.557509   0.570144  -1.168210  -0.138260
   16  O  1 ZZ    0.072245  -1.520194   0.515255  -1.214718  -0.293534
   17  O  1 XY    0.028645   0.069175  -0.017862  -0.107806  -0.154141
   18  O  1 XZ    0.000000   0.000000   0.000000  -0.000000  -0.000000
   19  O  1 YZ    0.000000   0.000000   0.000000  -0.000000  -0.000000
   20  C  2  S    0.004058   0.229411   0.054978  -0.330207  -0.315130
   21  C  2  S   -0.119077  -1.356757  -0.246947   1.440289   1.621348
   22  C  2  X   -0.134201  -0.302980   0.021352   0.063823   0.123893
   23  C  2  Y   -0.057233   0.047818  -0.061578   0.070866  -0.048560
   24  C  2  Z    0.000000   0.000000   0.000000  -0.000000  -0.000000
   25  C  2  S   -0.116012  -2.008161   0.217400   0.182026   1.160324
   26  C  2  X    0.025005   0.983163   0.210284   0.811083   0.461290
   27  C  2  Y    0.015090  -0.824194   0.151276  -0.662540  -0.126422
   28  C  2  Z    0.000000   0.000000   0.000000  -0.000000  -0.000000
   29  C  2  S   -1.276544   3.027215  -4.938865   2.682303  -0.621589
   30  C  2  X   -0.082545  -0.109163  -0.839601   0.068491  -0.118697
   31  C  2  Y   -0.130717   0.276694  -0.404897  -0.335306  -0.514271
   32  C  2  Z    0.000000   0.000000   0.000000  -0.000000  -0.000000
   33  C  2 XX    0.127728   1.121204   0.033164  -1.110186  -1.527060
   34  C  2 YY   -0.183438   1.014982   0.175390  -1.355188  -1.447880
   35  C  2 ZZ    0.016108   0.869068   0.191132  -1.068252  -0.998427
   36  C  2 XY   -0.318586  -0.285373  -0.055641   0.013527  -0.029267
   37  C  2 XZ    0.000000   0.000000   0.000000  -0.000000  -0.000000
   38  C  2 YZ    0.000000   0.000000   0.000000  -0.000000  -0.000000
   39  C  3  S    0.059047   0.183804   0.319804  -0.136326   0.289357
   40  C  3  S   -0.311788  -0.992044  -1.809827   0.643154  -1.782798
   41  C  3  X    0.100633   0.095663  -0.140331  -0.230955   0.097702
   42  C  3  Y   -0.382263   0.003709   0.121644  -0.046880  -0.040022
   43  C  3  Z    0.000000   0.000000   0.000000  -0.000000  -0.000000
   44  C  3  S   -0.692516  -0.623960  -1.469232   1.096351  -1.582975
   45  C  3  X   -0.126012  -0.525995   0.268676  -0.168575  -0.117966
   46  C  3  Y   -0.511378   0.424341   0.263691  -0.010669   0.359969
   47  C  3  Z    0.000000   0.000000   0.000000  -0.000000  -0.000000
   48  C  3  S    2.021602  -1.119326   7.079818  -6.214956   2.045204
   49  C  3  X   -0.202222   0.396947   0.194385  -1.666133  -0.622122
   50  C  3  Y   -0.992301   0.543668  -1.712427   1.572063   0.111229
   51  C  3  Z    0.000000   0.000000   0.000000  -0.000000  -0.000000
   52  C  3 XX    0.817674   0.719645   1.098634  -0.495463   1.543570
   53  C  3 YY   -0.757952   0.700154   1.325344  -0.697777   1.537643
   54  C  3 ZZ    0.318674   0.700249   1.187385  -0.434753   0.998076
   55  C  3 XY    0.361314  -0.108414  -0.004474   0.266401  -0.023826
   56  C  3 XZ    0.000000   0.000000   0.000000  -0.000000  -0.000000
   57  C  3 YZ    0.000000   0.000000   0.000000  -0.000000  -0.000000
   58  C  4  S   -0.040731  -0.031594   0.345871   0.258857  -0.201298
   59  C  4  S    0.175828   0.201610  -2.125584  -1.375877   1.231852
   60  C  4  X    0.378707   0.067065   0.176594  -0.084194   0.116530
   61  C  4  Y    0.463556  -0.040740  -0.092829   0.030196  -0.077245
   62  C  4  Z    0.000000   0.000000   0.000000  -0.000000  -0.000000
   63  C  4  S    0.306118   0.669365  -1.066280  -1.125015   1.153537
   64  C  4  X    0.270986  -0.050808  -0.155479   0.525768  -0.101473
   65  C  4  Y    0.625877   0.156063  -0.135096   0.194478   0.098270
   66  C  4  Z    0.000000   0.000000   0.000000  -0.000000  -0.000000
   67  C  4  S   -1.468260  -0.000735  -3.046140   6.362524  -0.669588
   68  C  4  X    0.598432  -0.142847   0.767155  -1.197320   0.199679
   69  C  4  Y    0.426547  -0.069626  -0.275329   0.787897   0.196514
   70  C  4  Z    0.000000   0.000000   0.000000  -0.000000  -0.000000
   71  C  4 XX    0.623600  -0.242718   1.368981   1.274031  -1.193358
   72  C  4 YY   -0.833727  -0.185862   1.541734   1.091385  -1.079473
   73  C  4 ZZ   -0.180924  -0.096449   1.265802   0.911524  -0.640598
   74  C  4 XY    0.836258   0.079500   0.074719   0.043506   0.052161
   75  C  4 XZ    0.000000   0.000000   0.000000  -0.000000  -0.000000
   76  C  4 YZ    0.000000   0.000000   0.000000  -0.000000  -0.000000
   77  H  5  S    0.049076  -0.162391  -0.075788   0.224352   0.227729
   78  H  5  S    0.021329  -0.232233   0.103363  -0.429549  -0.233652
   79  H  5  S    0.042129  -0.588099   0.430932  -0.857326  -0.351015
   80  H  5  X   -0.155581  -0.081081  -0.008792  -0.113412  -0.062743
   81  H  5  Y    0.049590  -0.219913  -0.006364   0.223668   0.269685
   82  H  5  Z    0.000000   0.000000   0.000000  -0.000000  -0.000000
   83  H  6  S    0.613685  -0.122623  -0.214897   0.178005  -0.264779
   84  H  6  S    0.589808  -0.192232   0.105368  -0.211619  -0.107354
   85  H  6  S    0.465715  -0.558907   0.545741  -0.816177  -0.509836
   86  H  6  X   -0.014740  -0.008480   0.008085  -0.008766  -0.043637
   87  H  6  Y   -0.744086   0.104859   0.192635  -0.182746   0.346026
   88  H  6  Z    0.000000   0.000000   0.000000  -0.000000  -0.000000
   89  H  7  S    0.529364   0.049173  -0.253194  -0.070909   0.190955
   90  H  7  S    0.443318  -0.014413   0.076324   0.155632  -0.021890
   91  H  7  S    0.310245   0.211375  -0.346934   0.290886   0.399213
   92  H  7  X    0.120486  -0.003845   0.003386  -0.005992  -0.036231
   93  H  7  Y    0.637127   0.047964  -0.242160  -0.180541   0.235764
   94  H  7  Z    0.000000   0.000000   0.000000  -0.000000  -0.000000
   95  H  8  S   -0.664644  -0.010865  -0.204226  -0.235520   0.206745
   96  H  8  S   -0.508099  -0.097863   0.293654  -0.297287  -0.146621
   97  H  8  S   -0.284050   0.095089  -0.193765  -0.241545   0.018565
   98  H  8  X    0.602683  -0.016956   0.164720   0.221738  -0.210600
   99  H  8  Y    0.488831  -0.011730   0.118013   0.183007  -0.130695
  100  H  8  Z    0.000000   0.000000   0.000000  -0.000000  -0.000000
 .....DONE WITH MCSCF ITERATIONS.....
 STEP CPU TIME =    59.41 TOTAL CPU TIME =       67.6 (    1.1 MIN)
 TOTAL WALL CLOCK TIME=      128.3 SECONDS, CPU UTILIZATION IS  52.71%

     ----------------------------------------------------------------
     PROPERTY VALUES FOR THE MCSCF SELF-CONSISTENT FIELD WAVEFUNCTION
     ----------------------------------------------------------------

          -----------------
          ENERGY COMPONENTS
          -----------------

         WAVEFUNCTION NORMALIZATION =       1.0000000000

                ONE ELECTRON ENERGY =    -464.0275821420
                TWO ELECTRON ENERGY =     169.5149755982
           NUCLEAR REPULSION ENERGY =     103.8561060166
                                      ------------------
                       TOTAL ENERGY =    -190.6565005271

 ELECTRON-ELECTRON POTENTIAL ENERGY =     169.5149755982
  NUCLEUS-ELECTRON POTENTIAL ENERGY =    -654.8291549378
   NUCLEUS-NUCLEUS POTENTIAL ENERGY =     103.8561060166
                                      ------------------
             TOTAL POTENTIAL ENERGY =    -381.4580733229
               TOTAL KINETIC ENERGY =     190.8015727958
                 VIRIAL RATIO (V/T) =       1.9992396694

          ---------------------------------------
          MULLIKEN AND LOWDIN POPULATION ANALYSES
          ---------------------------------------

     ATOMIC MULLIKEN POPULATION IN EACH MOLECULAR ORBITAL

                      1          2          3          4          5

                  2.000000   2.000000   2.000000   2.000000   2.000000

    1             1.999819   0.001071   0.000140   0.000019   1.498707
    2             0.000275   1.998313  -0.001436  -0.001042   0.514997
    3            -0.000167   0.001358   2.000251   0.004018  -0.044521
    4             0.000084  -0.001591   0.000836   1.996740   0.043940
    5             0.000005   0.000677   0.000033   0.000007  -0.005865
    6            -0.000018   0.000247   0.000185   0.000093  -0.009455
    7            -0.000001  -0.000090   0.000010   0.000077   0.003023
    8             0.000003   0.000015  -0.000020   0.000088  -0.000826

                      6          7          8          9         10

                  2.000000   2.000000   2.000000   2.000000   2.000000

    1             0.030879   0.192425   0.197552   0.802860   0.431723
    2             0.284598   0.563853   0.436783   0.229962   0.434786
    3             0.720685   0.405750   0.486250   0.238210   0.362174
    4             0.778125   0.482697   0.204881   0.415788   0.377538
    5             0.008336   0.095587   0.267719   0.032003   0.110628
    6             0.060084   0.021020   0.246623   0.057442   0.059738
    7             0.067538   0.087842   0.140244   0.009212   0.207850
    8             0.049755   0.150827   0.019948   0.214524   0.015563

                     11         12         13         14         15

                  2.000000   2.000000   2.000000   1.960068   1.039932

    1             0.593699   0.206416   1.168873   1.037413   0.130830
    2             0.274086   0.083893   0.249158   0.725844   0.003291
    3             0.363864   0.313512   0.176935   0.176079   0.409796
    4             0.345282   0.611662   0.071517   0.019054   0.492690
    5             0.125206  -0.006308   0.298724   0.001226  -0.000000
    6             0.114188   0.244320   0.015787   0.000353   0.000904
    7            -0.000400   0.349763  -0.002870   0.000055   0.001199
    8             0.184076   0.196742   0.021876   0.000044   0.001222

                     16         17

                  0.960068   0.039932

    1             0.123271   0.009242
    2             0.101143   0.020493
    3             0.278121   0.008331
    4             0.452025   0.001721
    5             0.000270   0.000086
    6             0.001190   0.000041
    7             0.001988   0.000010
    8             0.002060   0.000007
 WARNING! MCSCF POPULATIONS SHOWN ABOVE ARE FOR THE NATURAL ORBITALS.
 IGNORE THE ABOVE DATA FOR MCSCF FUNCTIONS WHICH ARE NOT OF -FORS- TYPE.
 THE FOLLOWING POPULATIONS ARE CORRECT FOR ANY MCSCF WAVEFUNCTION.

               ----- POPULATIONS IN EACH AO -----
                             MULLIKEN      LOWDIN
              1  O  1  S      1.99546     1.97738
              2  O  1  S      0.91489     0.70814
              3  O  1  X      0.97375     0.90564
              4  O  1  Y      1.11514     1.07000
              5  O  1  Z      0.74895     0.70621
              6  O  1  S      0.98264     0.40285
              7  O  1  X      0.44915     0.50033
              8  O  1  Y      0.64988     0.63007
              9  O  1  Z      0.52914     0.50287
             10  O  1  S      0.01179     0.11300
             11  O  1  X     -0.00469     0.09496
             12  O  1  Y      0.00727     0.09310
             13  O  1  Z      0.00948     0.09245
             14  O  1 XX      0.01629     0.18155
             15  O  1 YY      0.00469     0.16317
             16  O  1 ZZ      0.00015     0.15678
             17  O  1 XY      0.00779     0.01659
             18  O  1 XZ      0.01121     0.01615
             19  O  1 YZ      0.00199     0.00270
             20  C  2  S      1.99711     1.97326
             21  C  2  S      0.68212     0.33735
             22  C  2  X      0.71927     0.63369
             23  C  2  Y      0.71170     0.61073
             24  C  2  Z      0.47823     0.42435
             25  C  2  S      0.42156     0.23370
             26  C  2  X      0.04802     0.24136
             27  C  2  Y      0.23038     0.36019
             28  C  2  Z      0.32345     0.33818
             29  C  2  S      0.13601     0.05801
             30  C  2  X      0.03082     0.04915
             31  C  2  Y      0.01865     0.03651
             32  C  2  Z      0.02694     0.03832
             33  C  2 XX      0.04215     0.21449
             34  C  2 YY      0.01870     0.17270
             35  C  2 ZZ     -0.02351     0.08828
             36  C  2 XY      0.03524     0.07150
             37  C  2 XZ      0.01850     0.03666
             38  C  2 YZ      0.00365     0.00594
             39  C  3  S      1.99686     1.97952
             40  C  3  S      0.68578     0.35324
             41  C  3  X      0.77238     0.67723
             42  C  3  Y      0.74046     0.64764
             43  C  3  Z      0.47355     0.44211
             44  C  3  S      0.55032     0.25983
             45  C  3  X      0.16036     0.29381
             46  C  3  Y      0.32558     0.39845
             47  C  3  Z      0.36914     0.35180
             48  C  3  S     -0.26509     0.05804
             49  C  3  X      0.02115     0.05549
             50  C  3  Y      0.00520     0.04285
             51  C  3  Z      0.01877     0.03859
             52  C  3 XX      0.02248     0.17999
             53  C  3 YY      0.01752     0.16916
             54  C  3 ZZ     -0.01948     0.10177
             55  C  3 XY      0.01481     0.02674
             56  C  3 XZ      0.00921     0.02024
             57  C  3 YZ      0.00165     0.00337
             58  C  4  S      1.99663     1.98042
             59  C  4  S      0.66874     0.34648
             60  C  4  X      0.75319     0.65558
             61  C  4  Y      0.72521     0.63067
             62  C  4  Z      0.53547     0.50983
             63  C  4  S      0.60372     0.28126
             64  C  4  X      0.22662     0.35219
             65  C  4  Y      0.34799     0.42277
             66  C  4  Z      0.39387     0.37283
             67  C  4  S     -0.05311     0.05774
             68  C  4  X      0.03911     0.05156
             69  C  4  Y     -0.00855     0.04459
             70  C  4  Z      0.03090     0.04651
             71  C  4 XX      0.02014     0.18029
             72  C  4 YY      0.01521     0.16731
             73  C  4 ZZ     -0.02013     0.09722
             74  C  4 XY      0.01274     0.02364
             75  C  4 XZ      0.00439     0.01084
             76  C  4 YZ      0.00087     0.00231
             77  H  5  S      0.54144     0.49758
             78  H  5  S      0.33968     0.30513
             79  H  5  S      0.03445     0.03738
             80  H  5  X      0.00095     0.00371
             81  H  5  Y      0.01023     0.02382
             82  H  5  Z      0.00158     0.00490
             83  H  6  S      0.52562     0.47876
             84  H  6  S      0.26594     0.28136
             85  H  6  S      0.00686     0.03542
             86  H  6  X      0.00170     0.00603
             87  H  6  Y      0.01013     0.02428
             88  H  6  Z      0.00249     0.00923
             89  H  7  S      0.52507     0.47822
             90  H  7  S      0.30101     0.29631
             91  H  7  S      0.02459     0.03603
             92  H  7  X      0.00167     0.00583
             93  H  7  Y      0.00986     0.02306
             94  H  7  Z      0.00325     0.01167
             95  H  8  S      0.52581     0.47737
             96  H  8  S      0.29698     0.29781
             97  H  8  S      0.01832     0.03353
             98  H  8  X      0.00783     0.01806
             99  H  8  Y      0.00364     0.01030
            100  H  8  Z      0.00333     0.01196

          ----- MULLIKEN ATOMIC OVERLAP POPULATIONS -----
          (OFF-DIAGONAL ELEMENTS NEED TO BE MULTIPLIED BY 2)

             1           2           3           4           5

    1    8.1776780
    2    0.4829174   4.6917911
    3   -0.2403581   0.1824607   6.1371908
    4    0.0630730   0.1250871  -0.3516570   5.7051811
    5   -0.0399194   0.4851797  -0.2906586   0.0673071   0.7355166
    6   -0.0185824  -0.0220911   0.4343964  -0.0686355  -0.0061589
    7   -0.0010584  -0.0280269   0.0111571   0.4008706  -0.0282986
    8    0.0011870   0.0016790   0.0181164   0.3517641   0.0053662

             6           7           8

    6    0.4907148
    7    0.0069312   0.5408825
    8   -0.0038323  -0.0370080   0.5186298

          TOTAL MULLIKEN AND LOWDIN ATOMIC POPULATIONS
       ATOM         MULL.POP.    CHARGE          LOW.POP.     CHARGE
    1 O             8.424937   -0.424937         8.333927   -0.333927
    2 C             5.918997    0.081003         5.924378    0.075622
    3 C             5.900648    0.099352         6.099892   -0.099892
    4 C             6.292990   -0.292990         6.234044   -0.234044
    5 H             0.928334    0.071666         0.872524    0.127476
    6 H             0.812742    0.187258         0.835081    0.164919
    7 H             0.865450    0.134550         0.851122    0.148878
    8 H             0.855902    0.144098         0.849032    0.150968

          ---------------------
          ELECTROSTATIC MOMENTS
          ---------------------

 POINT   1           X           Y           Z (BOHR)    CHARGE
                -0.000000    0.000000    0.000000       -0.00 (A.U.)
         DX          DY          DZ         /D/  (DEBYE)
     3.482182   -0.461841    0.000000    3.512675
 ...... END OF PROPERTY EVALUATION ......
 STEP CPU TIME =     0.01 TOTAL CPU TIME =       67.6 (    1.1 MIN)
 TOTAL WALL CLOCK TIME=      128.6 SECONDS, CPU UTILIZATION IS  52.58%
 AN INPUT FILE FOR -MOLPLT- HAS BEEN PUNCHED.
             50610302  WORDS OF DYNAMIC MEMORY USED
 EXECUTION OF GAMESS TERMINATED NORMALLY Mon Nov 28 21:29:54 2016
 DDI: 263640 bytes (0.3 MB / 0 MWords) used by master data server.

 ----------------------------------------
 CPU timing information for all processes
 ========================================
 0: 65.624 + 2.13 = 67.637
 ----------------------------------------
 ddikick.x: exited gracefully.
unset echo
----- accounting info -----
Files used on the master node compute-3-0 were:
-rw-rw-r-- 1 sarom sarom    193518 Nov 29  2016 .//mc-psi-c3oh4.dat
-rw-rw-r-- 1 sarom sarom    164589 Nov 29  2016 .//mc-psi-c3oh4.F05
-rw-rw-r-- 1 sarom sarom  74166592 Nov 29  2016 .//mc-psi-c3oh4.F08
-rw-rw-r-- 1 sarom sarom    220424 Nov 29  2016 .//mc-psi-c3oh4.F09
-rw-rw-r-- 1 sarom sarom   2879360 Nov 29  2016 .//mc-psi-c3oh4.F10
-rw-rw-r-- 1 sarom sarom        64 Nov 29  2016 .//mc-psi-c3oh4.F12
-rw-rw-r-- 1 sarom sarom    181248 Nov 29  2016 .//mc-psi-c3oh4.F15
-rw-rw-r-- 1 sarom sarom 102085512 Nov 29  2016 .//mc-psi-c3oh4.F23
-rw-rw-r-- 1 sarom sarom        96 Nov 29  2016 .//mc-psi-c3oh4.F37
-rw-rw-r-- 1 sarom sarom    164589 Nov 27 05:47 .//mc-psi-c3oh4.inp
-rw-rw-r-- 1 sarom sarom    220602 Nov 29  2016 .//mc-psi-c3oh4.log
Mon Nov 28 21:29:58 CST 2016
0.203u 0.519s 2:12.95 0.5%	0+0k 0+464io 0pf+0w
