-catch_rsh /opt/gridengine/default/spool/compute-0-2/active_jobs/23931.1/pe_hostfile
compute-0-2
The primary node assigned by SGE to this run is compute-0-2
Warning: no access to tty (Bad file descriptor).
Thus no job control in this shell.
Deleting shmid=3964928.
Deleting shmid=3997697.
Deleting shmid=4227074.
source /home/sarom/gamess.github.2017-05-31.14.06/install.info
setenv GMS_PATH /home/sarom/gamess.github.2017-05-31.14.06
setenv GMS_BUILD_DIR /home/sarom/gamess.github.2017-05-31.14.06
setenv GMS_TARGET linux64
setenv GMS_FORTRAN gfortran
setenv GMS_GFORTRAN_VERNO 4.4
setenv GMS_MATHLIB mkl-so
setenv GMS_MATHLIB_PATH /share/apps/intel/compilers_and_libraries_2017.1.132/linux/mkl/lib/intel64
setenv GMS_MKL_VERNO 12
setenv GMS_DDI_COMM sockets
setenv GMS_LIBCCHEM false
setenv GMS_EIGEN_PATH
setenv GMS_PHI false
setenv GMS_SHMTYPE sysv
setenv GMS_OPENMP false
unset echo
mc-psi-linser
tests/mcscf/psi
----- GAMESS execution script 'rungms' -----
This job is running on host compute-0-2.local
under operating system Linux at Fri Jun 2 04:10:12 CDT 2017
Available scratch disk space (Kbyte units) at beginning of the job is
Filesystem           1K-blocks      Used Available Use% Mounted on
/dev/sda1             16126920   3867312  11440408  26% /
GAMESS temporary binary files will be written to /scratch
GAMESS supplementary output files will be written to /home/sarom/restart
Copying input file mc-psi-linser.inp to your run's scratch directory...
cp tests/mcscf/psi/mc-psi-linser.inp /scratch/mc-psi-linser.F05
unset echo
The generated host list is
compute-0-2.local
/home/sarom/gamess.github.2017-05-31.14.06/ddikick.x /home/sarom/gamess.github.2017-05-31.14.06/gamess.00.x mc-psi-linser -ddi 1 1 compute-0-2.local -scr /scratch

 Distributed Data Interface kickoff program.
 Initiating 1 compute processes on 1 nodes to run the following command:
 /home/sarom/gamess.github.2017-05-31.14.06/gamess.00.x mc-psi-linser 

          ******************************************************
          *         GAMESS VERSION = 20 APR 2017 (R1)          *
          *             FROM IOWA STATE UNIVERSITY             *
          * M.W.SCHMIDT, K.K.BALDRIDGE, J.A.BOATZ, S.T.ELBERT, *
          *   M.S.GORDON, J.H.JENSEN, S.KOSEKI, N.MATSUNAGA,   *
          *          K.A.NGUYEN, S.J.SU, T.L.WINDUS,           *
          *       TOGETHER WITH M.DUPUIS, J.A.MONTGOMERY       *
          *         J.COMPUT.CHEM.  14, 1347-1363(1993)        *
          **************** 64 BIT LINUX VERSION ****************

  SINCE 1993, STUDENTS AND POSTDOCS WORKING AT IOWA STATE UNIVERSITY
  AND ALSO IN THEIR VARIOUS JOBS AFTER LEAVING ISU HAVE MADE IMPORTANT
  CONTRIBUTIONS TO THE CODE:
     IVANA ADAMOVIC, CHRISTINE AIKENS, YURI ALEXEEV, POOJA ARORA,
     ANDREY ASADCHEV, ROB BELL, PRADIPTA BANDYOPADHYAY, JONATHAN BENTZ,
     BRETT BODE, KURT BRORSEN, CALEB CARLIN, GALINA CHABAN, WEI CHEN,
     CHEOL HO CHOI, PAUL DAY, ALBERT DEFUSCO, NUWAN DESILVA, TIM DUDLEY,
     DMITRI FEDOROV, GRAHAM FLETCHER, MARK FREITAG, KURT GLAESEMANN,
     DAN KEMP, GRANT MERRILL, NORIYUKI MINEZAWA, JONATHAN MULLIN,
     TAKESHI NAGATA, SEAN NEDD, HEATHER NETZLOFF, BOSILJKA NJEGIC, RYAN OLSON,
     MIKE PAK, SPENCER PRUITT, LUKE ROSKOP, JIM SHOEMAKER, LYUDMILA SLIPCHENKO,
     TONY SMITH, SAROM SOK LEANG, JIE SONG, TETSUYA TAKETSUGU, SIMON WEBB,
     PENG XU, SOOHAENG YOO, FEDERICO ZAHARIEV

  ADDITIONAL CODE HAS BEEN PROVIDED BY COLLABORATORS IN OTHER GROUPS:
     IOWA STATE UNIVERSITY:
          JOE IVANIC, AARON WEST, LAIMUTIS BYTAUTAS, KLAUS RUEDENBERG
     UNIVERSITY OF TOKYO: KIMIHIKO HIRAO, TAKAHITO NAKAJIMA,
          TAKAO TSUNEDA, MUNEAKI KAMIYA, SUSUMU YANAGISAWA,
          KIYOSHI YAGI, MAHITO CHIBA, SEIKEN TOKURA, NAOAKI KAWAKAMI
     UNIVERSITY OF AARHUS: FRANK JENSEN
     UNIVERSITY OF IOWA: VISVALDAS KAIRYS, HUI LI
     NATIONAL INST. OF STANDARDS AND TECHNOLOGY: WALT STEVENS, DAVID GARMER
     UNIVERSITY OF PISA: BENEDETTA MENNUCCI, JACOPO TOMASI
     UNIVERSITY OF MEMPHIS: HENRY KURTZ, PRAKASHAN KORAMBATH
     UNIVERSITY OF ALBERTA: TOBY ZENG, MARIUSZ KLOBUKOWSKI
     UNIVERSITY OF NEW ENGLAND: MARK SPACKMAN
     MIE UNIVERSITY: HIROAKI UMEDA
     NAT. INST. OF ADVANCED INDUSTRIAL SCIENCE AND TECHNOLOGY: KAZUO KITAURA
     MICHIGAN STATE UNIVERSITY:
          KAROL KOWALSKI, MARTA WLOCH, JEFFREY GOUR, JESSE LUTZ,
          WEI LI, PIOTR PIECUCH
     UNIVERSITY OF SILESIA: MONIKA MUSIAL, STANISLAW KUCHARSKI
     FACULTES UNIVERSITAIRES NOTRE-DAME DE LA PAIX:
          OLIVIER QUINET, BENOIT CHAMPAGNE
     UNIVERSITY OF CALIFORNIA - SANTA BARBARA: BERNARD KIRTMAN
     INSTITUTE FOR MOLECULAR SCIENCE:
          KAZUYA ISHIMURA, MICHIO KATOUDA, AND SHIGERU NAGASE
     UNIVERSITY OF NOTRE DAME: ANNA POMOGAEVA, DAN CHIPMAN
     KYUSHU UNIVERSITY:
          HARUYUKI NAKANO,
          FENG LONG GU, JACEK KORCHOWIEC, MARCIN MAKOWSKI, AND YURIKO AOKI,
          HIROTOSHI MORI AND EISAKU MIYOSHI
     PENNSYLVANIA STATE UNIVERSITY:
          TZVETELIN IORDANOV, CHET SWALINA, JONATHAN SKONE,
          SHARON HAMMES-SCHIFFER
     WASEDA UNIVERSITY:
          MASATO KOBAYASHI, TOMOKO AKAMA, TSUGUKI TOUMA,
          TAKESHI YOSHIKAWA, YASUHIRO IKABATA, JUNJI SEINO,
          YUYA NAKAJIMA, HIROMI NAKAI
     NANJING UNIVERSITY: SHUHUA LI
     UNIVERSITY OF NEBRASKA:
          PEIFENG SU, DEJUN SI, NANDUN THELLAMUREGE, YALI WANG, HUI LI
     UNIVERSITY OF ZURICH: ROBERTO PEVERATI, KIM BALDRIDGE
     N. COPERNICUS UNIVERSITY AND JACKSON STATE UNIVERSITY:
          MARIA BARYSZ
     UNIVERSITY OF COPENHAGEN: Jimmy Kromann, CASPER STEINMANN
     TOKYO INSTITUTE OF TECHNOLOGY: HIROYA NAKATA
     NAGOYA UNIVERSITY: YOSHIO NISHIMOTO, STEPHAN IRLE
     MOSCOW STATE UNIVERSITY: VLADIMIR MIRONOV

 EXECUTION OF GAMESS BEGUN Fri Jun  2 04:10:12 2017

            ECHO OF THE FIRST FEW INPUT CARDS -
 INPUT CARD>!  Test of Das' line search code for stabilizing excited states.                
 INPUT CARD>!  The active space contains pi,sigma,n,pi* orbitals, state=2-1A'               
 INPUT CARD>!                                                                               
 INPUT CARD>!  FINAL E= -113.5781699676 after 21 iters, RMS GRAD=0.044516871                
 INPUT CARD>!        The line search routine is called 5 times                              
 INPUT CARD>!                                                                               
 INPUT CARD>!  This run takes 0 seconds on 2.66 GHz Cloverton (26 Apr 2015)                 
 INPUT CARD>!  no significant changes to results since at least 2005                        
 INPUT CARD>!                                                                               
 INPUT CARD> $contrl scftyp=mcscf mult=1 runtyp=gradient nzvar=6 $end                       
 INPUT CARD> $system mwords=1 memddi=0 $end                                                 
 INPUT CARD>--- $drt    group=cs fors=.t. nmcc=5 ndoc=3 nval=1 $end                         
 INPUT CARD>--- $gugdia nstate=3 $end                                                       
 INPUT CARD>--- $gugdm2 wstate(1)=0,1 $end                                                  
 INPUT CARD>!    WSTATE skips past the ground state to the 2-A' pi->pi* state,              
 INPUT CARD>!    as the singlet n->pi* is A'' symmetry.  We also don't need to              
 INPUT CARD>!    worry about the triplet n-pi* state, but we must find the 3-A''            
 INPUT CARD>!    pi->pi* state that lies below the singlet coupling.  There is              
 INPUT CARD>!    some other triplet state below the desired singlet when using              
 INPUT CARD>!    the initial orbitals, although by the time convergence is                  
 INPUT CARD>!    reached, the singlet pi->pi* does become the third overall A'              
 INPUT CARD>!    state.  So, nstate=4 to fix the first iterations.                          
 INPUT CARD> $det    ncore=5 nact=4 nels=6 nstate=4 pures=.true. wstate(1)=0,1 $end         
 INPUT CARD> $mcscf  cistep=aldet fullnr=.true. linser=.true. $end                          
 INPUT CARD> $guess  guess=moread norb=9 $end                                               
 INPUT CARD> $basis  gbasis=n31 ngauss=6 $end                                               
 INPUT CARD> $zmat   izmat(1)=1,1,2,  1,1,3,   1,1,4,                                       
 INPUT CARD>                  2,2,1,3,   2,2,1,4,  4,2,1,3,4  $end                          
 INPUT CARD> $data                                                                          
 INPUT CARD>S2 (1A') formaldehyde ... pi-->pi* excitation ... DZ basis                      
 INPUT CARD>Cs                                                                              
 INPUT CARD>                                                                                
 INPUT CARD>CARBON      6.0    .6704639108   -.0229062232    .0000000000                    
 INPUT CARD>OXYGEN      8.0   -.6891517724   -.0086745307    .0000000000                    
 INPUT CARD>HYDROGEN    1.0   1.1028292066    .3155756448   -.9287395077                    
 INPUT CARD> $end                                                                           
 INPUT CARD>                                                                                
 INPUT CARD>--- orbital 6=pi(mainly on O), 7=CO sigma, 8=n, 9=pi* (polarized to C)          
 INPUT CARD>--- GVB ORBITALS --- GENERATED AT  8:00:24 CST 27-SEP-1995                      
 INPUT CARD>S1 (1A'') formaldehyde ... n-->pi* state                                        
 INPUT CARD>E(GVB)=     -113.7389122619, E(NUC)=   28.9934411286,   10 ITERS                
 INPUT CARD> $VEC                                                                           
 INPUT CARD> 1  1 3.84325080E-05-2.90811636E-04-2.77732075E-04 3.17083935E-05 0.00000000E+00
 INPUT CARD> 1  2 4.79124036E-03-2.81936978E-03 2.10975962E-04 0.00000000E+00 9.95885545E-01
 INPUT CARD> 1  3 2.20322298E-02 1.96703865E-03-6.22535588E-06 0.00000000E+00-9.59609811E-03
 INPUT CARD> 1  4-3.37884806E-03-3.51874529E-05 0.00000000E+00-2.82669370E-04-1.38189891E-04
 INPUT CARD> 1  5-2.82669370E-04-1.38189891E-04                                             
 INPUT CARD> 2  1 9.96143556E-01 2.37655664E-02-1.14214889E-03 9.46196154E-04 0.00000000E+00
 INPUT CARD> 2  2-1.07781536E-02-5.05963139E-04-1.00933617E-03 0.00000000E+00-1.12698520E-04
 INPUT CARD> 2  3 3.37720083E-05 9.18087305E-05-1.13292582E-04 0.00000000E+00 6.19209618E-04
    1000000 WORDS OF MEMORY AVAILABLE

     BASIS OPTIONS
     -------------
     GBASIS=N31          IGAUSS=       6      POLAR=NONE    
     NDFUNC=       0     NFFUNC=       0     DIFFSP=       F
     NPFUNC=       0      DIFFS=       F     BASNAM=        


     RUN TITLE
     ---------
 S2 (1A') formaldehyde ... pi-->pi* excitation ... DZ basis                      

 THE POINT GROUP OF THE MOLECULE IS CS      
 THE ORDER OF THE PRINCIPAL AXIS IS     0

 ATOM      ATOMIC                      COORDINATES (BOHR)
           CHARGE         X                   Y                   Z
 CARBON      6.0     1.2669930761       -0.0432864853        0.0000000000
 OXYGEN      8.0    -1.3023080138       -0.0163924861        0.0000000000
 HYDROGEN    1.0     2.0840450117        0.5963514971        1.7550631835
 HYDROGEN    1.0     2.0840450117        0.5963514971       -1.7550631835

          INTERNUCLEAR DISTANCES (ANGS.)
          ------------------------------

                1 CARB       2 OXYG       3 HYDR       4 HYDR  

   1 CARB    0.0000000    1.3596902 *  1.0789193 *  1.0789193 *
   2 OXYG    1.3596902 *  0.0000000    2.0442336 *  2.0442336 *
   3 HYDR    1.0789193 *  2.0442336 *  0.0000000    1.8574790 *
   4 HYDR    1.0789193 *  2.0442336 *  1.8574790 *  0.0000000  

  * ... LESS THAN  3.000


     ATOMIC BASIS SET
     ----------------
 THE CONTRACTED PRIMITIVE FUNCTIONS HAVE BEEN UNNORMALIZED
 THE CONTRACTED BASIS FUNCTIONS ARE NOW NORMALIZED TO UNITY

  SHELL TYPE  PRIMITIVE        EXPONENT          CONTRACTION COEFFICIENT(S)

 CARBON    

      1   S       1          3047.5248800    0.001834737132
      1   S       2           457.3695180    0.014037322813
      1   S       3           103.9486850    0.068842622264
      1   S       4            29.2101553    0.232184443216
      1   S       5             9.2866630    0.467941348435
      1   S       6             3.1639270    0.362311985337

      2   L       7             7.8682723   -0.119332419775    0.068999066591
      2   L       8             1.8812885   -0.160854151696    0.316423960957
      2   L       9             0.5442493    1.143456437840    0.744308290898

      3   L      10             0.1687145    1.000000000000    1.000000000000

 OXYGEN    

      4   S      11          5484.6716600    0.001831074430
      4   S      12           825.2349460    0.013950172200
      4   S      13           188.0469580    0.068445078098
      4   S      14            52.9645000    0.232714335992
      4   S      15            16.8975704    0.470192897984
      4   S      16             5.7996353    0.358520852987

      5   L      17            15.5396162   -0.110777549525    0.070874268231
      5   L      18             3.5999336   -0.148026262701    0.339752839147
      5   L      19             1.0137618    1.130767015354    0.727158577316

      6   L      20             0.2700058    1.000000000000    1.000000000000

 HYDROGEN  

      9   S      21            18.7311370    0.033494604338
      9   S      22             2.8253944    0.234726953484
      9   S      23             0.6401217    0.813757326146

     10   S      24             0.1612778    1.000000000000

 TOTAL NUMBER OF BASIS SET SHELLS             =   10
 NUMBER OF CARTESIAN GAUSSIAN BASIS FUNCTIONS =   22
 NUMBER OF ELECTRONS                          =   16
 CHARGE OF MOLECULE                           =    0
 SPIN MULTIPLICITY                            =    1
 NUMBER OF OCCUPIED ORBITALS (ALPHA)          =    8
 NUMBER OF OCCUPIED ORBITALS (BETA )          =    8
 TOTAL NUMBER OF ATOMS                        =    4
 THE NUCLEAR REPULSION ENERGY IS       28.9934411286

     $CONTRL OPTIONS
     ---------------
 SCFTYP=MCSCF        RUNTYP=GRADIENT     EXETYP=RUN     
 MPLEVL=       0     CITYP =NONE         CCTYP =NONE         VBTYP =NONE    
 DFTTYP=NONE         TDDFT =NONE    
 MULT  =       1     ICHARG=       0     NZVAR =       6     COORD =UNIQUE  
 PP    =NONE         RELWFN=NONE         LOCAL =NONE         NUMGRD=       F
 ISPHER=      -1     NOSYM =       0     MAXIT =      30     UNITS =ANGS    
 PLTORB=       F     MOLPLT=       F     AIMPAC=       F     FRIEND=        
 NPRINT=       7     IREST =       0     GEOM  =INPUT   
 NORMF =       0     NORMP =       0     ITOL  =      20     ICUT  =       9
 INTTYP=BEST         GRDTYP=BEST         QMTTOL= 1.0E-06

     $SYSTEM OPTIONS
     ---------------
  REPLICATED MEMORY=     1000000 WORDS (ON EVERY NODE).
 DISTRIBUTED MEMDDI=           0 MILLION WORDS IN AGGREGATE,
 MEMDDI DISTRIBUTED OVER   1 PROCESSORS IS           0 WORDS/PROCESSOR.
 TOTAL MEMORY REQUESTED ON EACH PROCESSOR=     1000000 WORDS.
 TIMLIM=      525600.00 MINUTES, OR     365.0 DAYS.
 PARALL= F  BALTYP=  DLB     KDIAG=    0  COREFL= F
 MXSEQ2=     300 MXSEQ3=     150  mem10=         0

          ----------------
          PROPERTIES INPUT
          ----------------

     MOMENTS            FIELD           POTENTIAL          DENSITY
 IEMOM =       1   IEFLD =       0   IEPOT =       0   IEDEN =       0
 WHERE =COMASS     WHERE =NUCLEI     WHERE =NUCLEI     WHERE =NUCLEI  
 OUTPUT=BOTH       OUTPUT=BOTH       OUTPUT=BOTH       OUTPUT=BOTH    
 IEMINT=       0   IEFINT=       0                     IEDINT=       0
                                                       MORB  =       0

     -------------------------------
     INTEGRAL TRANSFORMATION OPTIONS
     -------------------------------
     NWORD  =            0
     CUTOFF = 1.0E-09     MPTRAN =       0
     DIRTRF =       F     AOINTS =DUP     

          ----------------------
          MCSCF INPUT PARAMETERS
          ----------------------
 CONVERGER SELECTION: FOCAS = F  SOSCF = F  FULLNR = T  QUD = F  JACOBI = F
 SECULAR EQUATION METHOD CISTEP = ALDET   
 --- GENERAL INPUT OPTIONS:
 MAXIT =      30  MICIT =       1  ACURCY= 1.000E-05
 DAMP  =   0.000  CANONC=       T  ENGTOL= 1.000E-10
 EKT   =       F  NPUNCH=       2  NWORD =         0
 REGENERATE CI AFTER CONVERGENCE = NONE    
 DIABATIZATION AFTER CONVERGENCE =        F
 --- INPUT FOR FULLNR CONVERGER:
 METHOD=DM2       FORS  =       F  DROPC =       T
 LINSER=       T  FCORE =       F  NORB  =      22

          ----------------------
          INTEGRAL INPUT OPTIONS
          ----------------------
 NOPK  =       1 NORDER=       0 SCHWRZ=       F

   --- ENCODED Z MATRIX ---
 COORD  TYPE   I   J   K   L   M   N
    1      1    1   2
    2      1    1   3
    3      1    1   4
    4      2    2   1   3
    5      2    2   1   4
    6      4    2   1   3   4

 THE DETERMINANT OF THE G MATRIX IS 10**(    -3)


                     --------------------
                     INTERNAL COORDINATES
                     --------------------

                 - - ATOMS - -         COORDINATE      COORDINATE
 NO.   TYPE    I  J  K  L  M  N        (BOHR,RAD)       (ANG,DEG)
 ----------------------------------------------------------------
   1 STRETCH   1  2                     2.5694418       1.3596902
   2 STRETCH   1  3                     2.0388618       1.0789193
   3 STRETCH   1  4                     2.0388618       1.0789193
   4 BEND      2  1  3                  1.9795147     113.4178380
   5 BEND      2  1  4                  1.9795147     113.4178380
   6 PLA.BEND  2  1  3  4               0.6746696      38.6557197

     ------------------------------------------
     THE POINT GROUP IS CS , NAXIS= 0, ORDER= 2
     ------------------------------------------

     DIMENSIONS OF THE SYMMETRY SUBSPACES ARE
 A'  =   16     A'' =    6

 ..... DONE SETTING UP THE RUN .....
 STEP CPU TIME =     0.01 TOTAL CPU TIME =        0.0 (    0.0 MIN)
 TOTAL WALL CLOCK TIME=        0.0 SECONDS, CPU UTILIZATION IS  50.00%

                    --------------------------------
                    SINGLE POINT ENERGY AND GRADIENT
                    --------------------------------

          ********************
          1 ELECTRON INTEGRALS
          ********************
 TIME TO DO   DIPOLE INTEGRALS=      0.00
 ...... END OF ONE-ELECTRON INTEGRALS ......
 STEP CPU TIME =     0.00 TOTAL CPU TIME =        0.0 (    0.0 MIN)
 TOTAL WALL CLOCK TIME=        0.0 SECONDS, CPU UTILIZATION IS  50.00%

          -------------
          GUESS OPTIONS
          -------------
          GUESS =MOREAD            NORB  =       9          NORDER=       0
          MIX   =       F          PRTMO =       F          PUNMO =       F
          TOLZ  = 1.0E-08          TOLE  = 1.0E-05
          SYMDEN=       F          PURIFY=       F

 INITIAL GUESS ORBITALS GENERATED BY MOREAD   ROUTINE.

 SYMMETRIES FOR INITIAL GUESS ORBITALS FOLLOW.   BOTH SET(S).
     8 ORBITALS ARE OCCUPIED (    2 CORE ORBITALS).
     1=A'       2=A'       3=A'       4=A'       5=A''      6=A'       7=A'  
     8=A''      9=A'      10=A'      11=A'      12=A'      13=A'      14=A'  
    15=A'      16=A'      17=A'      18=A'      19=A''     20=A''     21=A'' 
    22=A'' 
 ...... END OF INITIAL ORBITAL SELECTION ......
 STEP CPU TIME =     0.00 TOTAL CPU TIME =        0.0 (    0.0 MIN)
 TOTAL WALL CLOCK TIME=        0.0 SECONDS, CPU UTILIZATION IS  50.00%

                    ----------------------
                    AO INTEGRAL TECHNOLOGY
                    ----------------------
     S,P,L SHELL ROTATED AXIS INTEGRALS, REPROGRAMMED BY
        KAZUYA ISHIMURA (IMS) AND JOSE SIERRA (SYNSTAR).
     S,P,D,L SHELL ROTATED AXIS INTEGRALS PROGRAMMED BY
        KAZUYA ISHIMURA (INSTITUTE FOR MOLECULAR SCIENCE).
     S,P,D,F,G SHELL TO TOTAL QUARTET ANGULAR MOMENTUM SUM 5,
        ERIC PROGRAM BY GRAHAM FLETCHER (ELORET AND NASA ADVANCED
        SUPERCOMPUTING DIVISION, AMES RESEARCH CENTER).
     S,P,D,F,G,L SHELL GENERAL RYS QUADRATURE PROGRAMMED BY
        MICHEL DUPUIS (PACIFIC NORTHWEST NATIONAL LABORATORY).

          --------------------
          2 ELECTRON INTEGRALS
          --------------------

 THE -PK- OPTION IS OFF, THE INTEGRALS ARE NOT IN SUPERMATRIX FORM.
 STORING   15000 INTEGRALS/RECORD ON DISK, USING 12 BYTES/INTEGRAL.
 TWO ELECTRON INTEGRAL EVALUATION REQUIRES   89411 WORDS OF MEMORY.
 II,JST,KST,LST =  1  1  1  1 NREC =         1 INTLOC =    1
 II,JST,KST,LST =  2  1  1  1 NREC =         1 INTLOC =    2
 II,JST,KST,LST =  3  1  1  1 NREC =         1 INTLOC =   34
 II,JST,KST,LST =  4  1  1  1 NREC =         1 INTLOC =  214
 II,JST,KST,LST =  5  1  1  1 NREC =         1 INTLOC =  515
 II,JST,KST,LST =  6  1  1  1 NREC =         1 INTLOC = 2732
 II,JST,KST,LST =  7  1  1  1 NREC =         1 INTLOC = 7448
 II,JST,KST,LST =  8  1  1  1 NREC =         1 INTLOC = 7448
 II,JST,KST,LST =  9  1  1  1 NREC =         1 INTLOC = 7448
 II,JST,KST,LST = 10  1  1  1 NREC =         1 INTLOC =11230
 TOTAL NUMBER OF NONZERO TWO-ELECTRON INTEGRALS =               16282
          2 INTEGRAL RECORDS WERE STORED ON DISK FILE  8.
  ...... END OF TWO-ELECTRON INTEGRALS .....
 STEP CPU TIME =     0.02 TOTAL CPU TIME =        0.0 (    0.0 MIN)
 TOTAL WALL CLOCK TIME=        0.0 SECONDS, CPU UTILIZATION IS  75.00%

          -----------------
          MCSCF CALCULATION
          -----------------

 ----- NUCLEAR ENERGY ----- =        28.9934411286

     --------------------------------------------------
          AMES LABORATORY DETERMINANTAL FULL CI
     PROGRAM WRITTEN BY JOE IVANIC AND KLAUS RUEDENBERG
     --------------------------------------------------

 THE POINT GROUP                  =   CS      
 THE STATE SYMMETRY               =   A'      
 NUMBER OF CORE ORBITALS          =    5
 NUMBER OF ACTIVE ORBITALS        =    4
 NUMBER OF ALPHA ELECTRONS        =    8 (   3 ACTIVE)
 NUMBER OF BETA ELECTRONS         =    8 (   3 ACTIVE)
 NUMBER OF OCCUPIED ORBITALS      =    9
 NUMBER OF CI STATES REQUESTED    =    4
 NUMBER OF CI STARTING VECTORS    =    4
 MAX. NO. OF CI EXPANSION VECTORS =   10
 SIZE OF INITIAL CI GUESS MATRIX  =  300
 MAX. NO. OF CI ITERS/STATE       =  100
 CI DIAGONALIZATION CRITERION     = 1.00E-06
 PURE SPIN STATE AVERAGED 1E- AND 2E- DENSITY MATRIX OPTION=.T.
 STATE=   2 DM2 WEIGHT=   1.00000

 CORRELATION ENERGY ANALYSIS      =    F

 SYMMETRIES FOR THE   5 CORE,   4 ACTIVE ARE

     CORE= A'    A'    A'    A'    A'' 

   ACTIVE= A'    A'    A''   A'  

     --------------------------------------------
     PARTIAL TWO ELECTRON INTEGRAL TRANSFORMATION
     --------------------------------------------

 NUMBER OF CORE MOLECULAR ORBITALS     =    5
 NUMBER OF OCCUPIED MOLECULAR ORBITALS =    9
 TOTAL NUMBER OF MOLECULAR ORBITALS    =   22
 TOTAL NUMBER OF ATOMIC ORBITALS       =   22
 THRESHOLD FOR KEEPING TRANSFORMED 2E- INTEGRALS = 1.000E-09
 AO INTEGRALS WILL BE READ IN FROM DISK...

 PLAN A: REQUIREMENTS FOR FULLY IN-MEMORY TRANSFORMATION:
 # OF WORDS AVAILABLE =              1000000
 # OF WORDS NEEDED    =               112560

 CHOOSING IN MEMORY PARTIAL TRANSFORMATION...
 TOTAL NUMBER OF TRANSFORMED 2E- INTEGRALS KEPT =         8505
 ----- FROZEN CORE ENERGY =      -131.6047069425
 ... END OF INTEGRAL TRANSFORMATION ...
 STEP CPU TIME =     0.00 TOTAL CPU TIME =        0.0 (    0.0 MIN)
 TOTAL WALL CLOCK TIME=        0.0 SECONDS, CPU UTILIZATION IS  75.00%

     --------------------------------------------------
          AMES LABORATORY DETERMINANTAL FULL CI
     PROGRAM WRITTEN BY JOE IVANIC AND KLAUS RUEDENBERG
     --------------------------------------------------

 THE NUMBER OF DETERMINANTS HAVING SPACE SYMMETRY A' 
 IN POINT GROUP CS   WITH SZ=  0.0 IS             10
 THE DETERMINANT FULL CI REQUIRES          170424 WORDS
 SMALL CI MATRIX, JUST USING INCORE DIAGONALIZATION...

 CI EIGENVECTORS WILL BE LABELED IN GROUP=CS      
 PRINTING ALL NON-ZERO CI COEFFICIENTS

 STATE   1  ENERGY=      -113.8098682121  S=  0.00  SZ=  0.00  SPACE SYM=A'  

ALPHA |BETA  | CI COEFFICIENT
------|------|---------------
 1110 | 1110 |                                                                                                       0.6593005605
 1110 | 0111 |                                                                                                       0.5124671048
 0111 | 1110 |                                                                                                       0.5124671048
 1110 | 1011 |                                                                                                       0.1355547042
 1011 | 1110 |                                                                                                       0.1355547042
 0111 | 0111 |                                                                                                      -0.0448941523
 1011 | 1011 |                                                                                                      -0.0260593176
 1101 | 1101 |                                                                                                      -0.0211832546
 1011 | 0111 |                                                                                                      -0.0095980480
 0111 | 1011 |                                                                                                      -0.0095980480

 STATE   2  ENERGY=      -113.7044658869  S=  1.00  SZ=  0.00  SPACE SYM=A'  

ALPHA |BETA  | CI COEFFICIENT
------|------|---------------
 0111 | 1110 |                                                                                                       0.6898801437
 1110 | 0111 |                                                                                                      -0.6898801437
 1011 | 1110 |                                                                                                       0.1546855281
 1110 | 1011 |                                                                                                      -0.1546855281
 0111 | 1011 |                                                                                                       0.0117377485
 1011 | 0111 |                                                                                                      -0.0117377485
 1110 | 1110 |                                                                                                       0.0000000000
 1101 | 1101 |                                                                                                       0.0000000000
 1011 | 1011 |                                                                                                      -0.0000000000
 0111 | 0111 |                                                                                                      -0.0000000000

 STATE   3  ENERGY=      -113.5589783043  S=  1.00  SZ=  0.00  SPACE SYM=A'  

ALPHA |BETA  | CI COEFFICIENT
------|------|---------------
 1110 | 1011 |                                                                                                       0.6686691615
 1011 | 1110 |                                                                                                      -0.6686691615
 0111 | 1011 |                                                                                                       0.1769072317
 1011 | 0111 |                                                                                                      -0.1769072317
 1110 | 0111 |                                                                                                      -0.1469196508
 0111 | 1110 |                                                                                                       0.1469196508
 0111 | 0111 |                                                                                                      -0.0000000000
 1011 | 1011 |                                                                                                       0.0000000000
 1110 | 1110 |                                                                                                       0.0000000000
 1101 | 1101 |                                                                                                       0.0000000000

 STATE   4  ENERGY=      -113.5246328664  S=  0.00  SZ=  0.00  SPACE SYM=A'  

ALPHA |BETA  | CI COEFFICIENT
------|------|---------------
 1011 | 1110 |                                                                                                       0.6534358106
 1110 | 1011 |                                                                                                       0.6534358106
 0111 | 1110 |                                                                                                      -0.2273683311
 1110 | 0111 |                                                                                                      -0.2273683311
 1011 | 0111 |                                                                                                       0.1025023054
 0111 | 1011 |                                                                                                       0.1025023054
 0111 | 0111 |                                                                                                      -0.0980465303
 1110 | 1110 |                                                                                                       0.0839272099
 1011 | 1011 |                                                                                                       0.0705399536
 1101 | 1101 |                                                                                                       0.0020828036
 ..... DONE WITH DETERMINANT CI COMPUTATION .....
 STEP CPU TIME =     0.00 TOTAL CPU TIME =        0.0 (    0.0 MIN)
 TOTAL WALL CLOCK TIME=        0.0 SECONDS, CPU UTILIZATION IS  75.00%

     --------------------------------------------------
      ONE AND TWO PARTICLE DENSITY MATRIX COMPUTATION
     PROGRAM WRITTEN BY JOE IVANIC AND KLAUS RUEDENBERG
     --------------------------------------------------

      30447 WORDS WILL BE USED TO FORM THE DENSITIES
 THE DENSITIES ARE STATE AVERAGED OVER   1 ROOT(S)
 STATE=   4   ENERGY=     -113.5246328664   WEIGHT= 1.00000   S=  0.00
 SIEVING THE A'   SYMMETRY NONZERO DENSITY ELEMENTS IN GROUP CS      
         34 NONZERO DM2 ELEMENTS WRITTEN IN       1 RECORDS TO FILE 15
 ..... DONE WITH 1 AND 2 PARTICLE DENSITY MATRIX .....
 STEP CPU TIME =     0.00 TOTAL CPU TIME =        0.0 (    0.0 MIN)
 TOTAL WALL CLOCK TIME=        0.0 SECONDS, CPU UTILIZATION IS  75.00%

     --------------------------------     -----------------------------
     MCHF NEWTON-RAPHSON OPTIMIZATION     CODE WRITTEN BY MICHEL DUPUIS
     --------------------------------     -----------------------------
 FORMING FOCK OPERATOR OVER ACTIVE ORBITAL DENSITY, MEMORY=     35719
 STEP CPU TIME =     0.00 TOTAL CPU TIME =        0.0 (    0.0 MIN)
 TOTAL WALL CLOCK TIME=        0.0 SECONDS, CPU UTILIZATION IS  75.00%
 MEMORY DEMAND FOR 2 ELECTRON NTN-RPH CONTRIBUTIONS
      METHOD=DM2     NEEDS     41588 WORDS
      METHOD=TEI     NEEDS     35710 WORDS
 TOTAL AVAILABLE MEMORY IS   1000000 WORDS
 CHOOSING DM2 DRIVEN METHOD...
 FORMING -LGR- + -COU- + -EXC- FROM (IJ//KL) INTEGRALS
 STEP CPU TIME =     0.00 TOTAL CPU TIME =        0.0 (    0.0 MIN)
 TOTAL WALL CLOCK TIME=        0.0 SECONDS, CPU UTILIZATION IS  75.00%
 FORMING -LGR- + -COU- + -EXC- FROM (AJ//KL) INTEGRALS
 STEP CPU TIME =     0.00 TOTAL CPU TIME =        0.0 (    0.0 MIN)
 TOTAL WALL CLOCK TIME=        0.0 SECONDS, CPU UTILIZATION IS  75.00%
 FORMING         -COU-         FROM (AB//KL) INTEGRALS
 STEP CPU TIME =     0.00 TOTAL CPU TIME =        0.0 (    0.0 MIN)
 TOTAL WALL CLOCK TIME=        0.0 SECONDS, CPU UTILIZATION IS  75.00%
 FORMING                 -EXC- FROM (AJ//BL) INTEGRALS
 ..... DONE WITH 2 ELECTRON CONTRIBUTIONS .....
 STEP CPU TIME =     0.00 TOTAL CPU TIME =        0.0 (    0.0 MIN)
 TOTAL WALL CLOCK TIME=        0.0 SECONDS, CPU UTILIZATION IS  75.00%
 ..... DONE WITH 1 ELECTRON CONTRIBUTIONS .....
 STEP CPU TIME =     0.00 TOTAL CPU TIME =        0.0 (    0.0 MIN)
 TOTAL WALL CLOCK TIME=        0.0 SECONDS, CPU UTILIZATION IS  75.00%
 NUMBER OF INDEPENDENT ORBITAL ROTATION PARAMETERS =    84
 ..... DONE SOLVING NEWTON-RAPHSON EQUATIONS .....
 STEP CPU TIME =     0.00 TOTAL CPU TIME =        0.0 (    0.0 MIN)
 TOTAL WALL CLOCK TIME=        0.0 SECONDS, CPU UTILIZATION IS  75.00%
 ..... DONE WITH NTN-RPH ORBITAL ROTATIONS ..... 
 STEP CPU TIME =     0.00 TOTAL CPU TIME =        0.0 (    0.0 MIN)
 TOTAL WALL CLOCK TIME=        0.0 SECONDS, CPU UTILIZATION IS  75.00%
 MAXIMUM MEMORY USED BY NTN-RPH CODE WAS     41588 WORDS.

 ITER     TOTAL ENERGY      DEL(E)  LAGRANGIAN ASYMMETRY   SQCDF  MICIT   DAMP
   1     -113.524632866 -0.524632866  0.123476    7    4 7.910E-02  1   0.0000
   2     -113.570100499 -0.045467633  0.038144   17    7 1.040E-01  1   0.0000
   3     -113.576008929 -0.005908430  0.012096    7    3 1.173E-01  1   0.0000
   4     -113.577750976 -0.001742048  0.006987   17    9 5.120E-02  1   0.0000
   5     -113.578023659 -0.000272682  0.003635   17    9 1.040E-02  1   0.0000
   6     -113.578116948 -0.000093290  0.003352   17    9 6.971E-05  1   0.0000
   7     -113.578146685 -0.000029737  0.001828    7    4 8.454E-05  1   0.0000
   8     -113.578150022 -0.000003337  0.003519   17    9 9.518E-05  1   0.0000
 ENERGY HAS RISEN FROM PREVIOUS ITERATION, INITIATING LINE SEARCH...
 E=     -113.578127732 AT LINE SEARCH COORD=   1.000
 E=     -113.578150022 AT LINE SEARCH COORD=   0.000
 E=     -113.577972609 AT LINE SEARCH COORD=  -1.000
 E=     -113.578164880 AT LINE SEARCH COORD=  -0.388
 LINE SEARCH HAS RESULTED IN ENERGY LOWERING, RETURNING TO NEWTON-RAPHSON...
   9     -113.578164880 -0.000014858  0.000586   17    9 1.308E-05  1   0.0000
  10     -113.578167923 -0.000003043  0.000790   17    9 4.589E-06  1   0.0000
  11     -113.578168684 -0.000000761  0.000550    7    4 6.974E-06  1   0.0000
 ENERGY HAS RISEN FROM PREVIOUS ITERATION, INITIATING LINE SEARCH...
 E=     -113.578167862 AT LINE SEARCH COORD=   1.000
 E=     -113.578168684 AT LINE SEARCH COORD=   0.000
 E=     -113.578160171 AT LINE SEARCH COORD=  -1.000
 E=     -113.578169479 AT LINE SEARCH COORD=  -0.412
 LINE SEARCH HAS RESULTED IN ENERGY LOWERING, RETURNING TO NEWTON-RAPHSON...
  12     -113.578169479 -0.000000795  0.000314   17    9 1.039E-06  1   0.0000
  13     -113.578169759 -0.000000279  0.000169    7    4 7.348E-07  1   0.0000
  14     -113.578169799 -0.000000041  0.000321   17    9 7.933E-07  1   0.0000
 ENERGY HAS RISEN FROM PREVIOUS ITERATION, INITIATING LINE SEARCH...
 E=     -113.578169624 AT LINE SEARCH COORD=   1.000
 E=     -113.578169799 AT LINE SEARCH COORD=   0.000
 E=     -113.578168379 AT LINE SEARCH COORD=  -1.000
 E=     -113.578169921 AT LINE SEARCH COORD=  -0.390
 LINE SEARCH HAS RESULTED IN ENERGY LOWERING, RETURNING TO NEWTON-RAPHSON...
  15     -113.578169921 -0.000000121  0.000056   17    9 1.288E-07  1   0.0000
  16     -113.578169949 -0.000000028  0.000076   17    9 4.374E-08  1   0.0000
  17     -113.578169956 -0.000000007  0.000054    7    4 6.728E-08  1   0.0000
 ENERGY HAS RISEN FROM PREVIOUS ITERATION, INITIATING LINE SEARCH...
 E=     -113.578169948 AT LINE SEARCH COORD=   1.000
 E=     -113.578169956 AT LINE SEARCH COORD=   0.000
 E=     -113.578169875 AT LINE SEARCH COORD=  -1.000
 E=     -113.578169963 AT LINE SEARCH COORD=  -0.411
 LINE SEARCH HAS RESULTED IN ENERGY LOWERING, RETURNING TO NEWTON-RAPHSON...
  18     -113.578169963 -0.000000007  0.000030   17    9 1.008E-08  1   0.0000
  19     -113.578169966 -0.000000003  0.000017    7    4 8.346E-09  1   0.0000
  20     -113.578169966 -0.000000000  0.000031   17    9 7.627E-09  1   0.0000
 ENERGY HAS RISEN FROM PREVIOUS ITERATION, INITIATING LINE SEARCH...
 E=     -113.578169965 AT LINE SEARCH COORD=   1.000
 E=     -113.578169966 AT LINE SEARCH COORD=   0.000
 E=     -113.578169953 AT LINE SEARCH COORD=  -1.000
 E=     -113.578169968 AT LINE SEARCH COORD=  -0.392
 LINE SEARCH HAS RESULTED IN ENERGY LOWERING, RETURNING TO NEWTON-RAPHSON...
  21     -113.578169968 -0.000000001  0.000005    7    4 5.151E-10  1   0.0000

          --------------------
          LAGRANGIAN CONVERGED
          --------------------

 FINAL MCSCF ENERGY IS     -113.5781699676 AFTER  21 ITERATIONS

 -MCCI- BASED ON OPTIMIZED ORBITALS
 ----------------------------------

 PLEASE NOTE: IF THE ACTIVE ORBITALS ARE CANONICALIZED BELOW,
 THE FOLLOWING CI EXPANSION COEFFICIENTS AND THE DENSITY DO NOT
 CORRESPOND TO THE PRINTED ORBITALS.  THE PRINTED EXPANSIONS MATCH
 THE ORBITALS USED DURING THE LAST ITERATION.  IF YOU WISH TO SEE
 CI EXPANSIONS BASED ON THE CANONICAL (OR NATURAL) ORBITALS, YOU
 MUST RUN A CI CALCULATION WITH THAT ORBITAL CHOICE READ IN $VEC.

 CI EIGENVECTORS WILL BE LABELED IN GROUP=CS      
 PRINTING ALL NON-ZERO CI COEFFICIENTS

 STATE   1  ENERGY=      -113.6988159161  S=  0.00  SZ=  0.00  SPACE SYM=A'  

ALPHA |BETA  | CI COEFFICIENT
------|------|---------------
 1110 | 1110 |                                                                                                       0.8142233147
 0111 | 1110 |                                                                                                       0.3977861149
 1110 | 0111 |                                                                                                       0.3977861149
 1110 | 1011 |                                                                                                       0.0960265727
 1011 | 1110 |                                                                                                       0.0960265727
 1011 | 1011 |                                                                                                      -0.0321311507
 1101 | 1101 |                                                                                                      -0.0244748226
 0111 | 1011 |                                                                                                      -0.0156383950
 1011 | 0111 |                                                                                                      -0.0156383950
 0111 | 0111 |                                                                                                      -0.0031710321

 STATE   2  ENERGY=      -113.6074344199  S=  1.00  SZ=  0.00  SPACE SYM=A'  

ALPHA |BETA  | CI COEFFICIENT
------|------|---------------
 1011 | 1110 |                                                                                                       0.5577622277
 1110 | 1011 |                                                                                                      -0.5577622277
 0111 | 1110 |                                                                                                      -0.4320312858
 1110 | 0111 |                                                                                                       0.4320312858
 0111 | 1011 |                                                                                                      -0.0474369630
 1011 | 0111 |                                                                                                       0.0474369630
 1110 | 1110 |                                                                                                       0.0000000000
 1101 | 1101 |                                                                                                       0.0000000000
 0111 | 0111 |                                                                                                      -0.0000000000
 1011 | 1011 |                                                                                                       0.0000000000

 STATE   3  ENERGY=      -113.5781699676  S=  0.00  SZ=  0.00  SPACE SYM=A'  

ALPHA |BETA  | CI COEFFICIENT
------|------|---------------
 1110 | 1011 |                                                                                                       0.6233692656
 1011 | 1110 |                                                                                                       0.6233692656
 1110 | 0111 |                                                                                                      -0.3096921282
 0111 | 1110 |                                                                                                      -0.3096921282
 1110 | 1110 |                                                                                                       0.1565017901
 0111 | 0111 |                                                                                                      -0.0764012988
 1101 | 1101 |                                                                                                       0.0220866030
 1011 | 1011 |                                                                                                       0.0135367545
 0111 | 1011 |                                                                                                       0.0010145309
 1011 | 0111 |                                                                                                       0.0010145309

 STATE   4  ENERGY=      -113.4668835199  S=  1.00  SZ=  0.00  SPACE SYM=A'  

ALPHA |BETA  | CI COEFFICIENT
------|------|---------------
 1110 | 0111 |                                                                                                       0.5591292864
 0111 | 1110 |                                                                                                      -0.5591292864
 1011 | 1110 |                                                                                                      -0.4328591726
 1110 | 1011 |                                                                                                       0.4328591726
 0111 | 1011 |                                                                                                       0.0027161968
 1011 | 0111 |                                                                                                      -0.0027161968
 1101 | 1101 |                                                                                                      -0.0000000000
 0111 | 0111 |                                                                                                       0.0000000000
 1110 | 1110 |                                                                                                       0.0000000000
 1011 | 1011 |                                                                                                      -0.0000000000

 DENSITY MATRIX OVER ACTIVE MO-S

             1           2           3           4

    1    1.7965052
    2   -0.3862327   1.2224530
    3    0.0000000   0.0000000   1.9990244
    4   -0.0483481  -0.2113652   0.0000000   0.9820175

 FORMING THE "STANDARD FOCK OPERATOR" USING INTEGRALS FROM DISK...
 ONLY THE    5 CORE AND   13 VIRTUAL ORBITALS WILL BE CANONICALIZED

          ----------------------
          MCSCF NATURAL ORBITALS
          ----------------------

                      1          2          3          4          5
                  -20.5735   -11.3562    -1.2834    -0.7549    -0.6810
                     A'         A'         A'         A'         A'' 
    1  C  1  S   -0.000129   0.996471  -0.128431  -0.109570   0.000000
    2  C  1  S   -0.000062   0.022599   0.271397   0.225406   0.000000
    3  C  1  X    0.000045  -0.001549  -0.092973   0.198986   0.000000
    4  C  1  Y   -0.000089   0.001420   0.020104   0.185712   0.000000
    5  C  1  Z   -0.000000   0.000000  -0.000000  -0.000000   0.429933
    6  C  1  S    0.004670  -0.010717   0.102283   0.283444   0.000000
    7  C  1  X   -0.002625  -0.000554   0.043147   0.036407   0.000000
    8  C  1  Y    0.000103  -0.001117   0.011181   0.089671   0.000000
    9  C  1  Z   -0.000000   0.000000  -0.000000  -0.000000   0.164398
   10  O  2  S    0.996040  -0.000394  -0.175928   0.066058   0.000000
   11  O  2  S    0.021617   0.000780   0.389460  -0.144172   0.000000
   12  O  2  X    0.001173  -0.000370   0.140113  -0.070289   0.000000
   13  O  2  Y   -0.001023   0.000979  -0.100802   0.355201   0.000000
   14  O  2  Z   -0.000000   0.000000  -0.000000  -0.000000   0.292601
   15  O  2  S   -0.009746   0.001210   0.402460  -0.211958   0.000000
   16  O  2  X   -0.002523  -0.000916   0.086798  -0.075174   0.000000
   17  O  2  Y   -0.000619   0.000915  -0.078145   0.250013   0.000000
   18  O  2  Z   -0.000000   0.000000  -0.000000  -0.000000   0.174696
   19  H  3  S   -0.000076  -0.000472   0.076394   0.160215   0.205914
   20  H  3  S   -0.000009   0.002697   0.019869   0.053887   0.128811
   21  H  4  S   -0.000076  -0.000472   0.076394   0.160215  -0.205914
   22  H  4  S   -0.000009   0.002697   0.019869   0.053887  -0.128811

                      6          7          8          9
                    1.9990     1.9935     1.2154     0.7921
                     A''        A'         A'         A'  
    1  C  1  S    0.000000   0.085352   0.070888   0.028422
    2  C  1  S    0.000000  -0.203572  -0.170989  -0.056297
    3  C  1  X    0.000000  -0.080483   0.190411  -0.226398
    4  C  1  Y    0.000000   0.067622   0.399679   0.447304
    5  C  1  Z   -0.213079  -0.000000  -0.000000  -0.000000
    6  C  1  S    0.000000  -0.185280  -0.218418  -0.319339
    7  C  1  X    0.000000  -0.013690   0.004468  -0.033870
    8  C  1  Y    0.000000   0.037466   0.299594   0.329466
    9  C  1  Z   -0.033871  -0.000000  -0.000000  -0.000000
   10  O  2  S    0.000000  -0.112105  -0.057346   0.037077
   11  O  2  S    0.000000   0.253643   0.139450  -0.108183
   12  O  2  X    0.000000  -0.080184  -0.342989   0.443250
   13  O  2  Y    0.000000   0.463854  -0.280032  -0.061387
   14  O  2  Z    0.587542  -0.000000  -0.000000  -0.000000
   15  O  2  S    0.000000   0.330458   0.206200  -0.035249
   16  O  2  X    0.000000  -0.030523  -0.198279   0.294059
   17  O  2  Y    0.000000   0.350247  -0.282450  -0.121202
   18  O  2  Z    0.461592  -0.000000  -0.000000  -0.000000
   19  H  3  S   -0.168467  -0.095983   0.083075   0.005618
   20  H  3  S   -0.186625  -0.046177   0.109670   0.034686
   21  H  4  S    0.168467  -0.095983   0.083075   0.005618
   22  H  4  S    0.186625  -0.046177   0.109670   0.034686

          ------------------------
          MCSCF OPTIMIZED ORBITALS
          ------------------------

                      1          2          3          4          5
                  -20.5735   -11.3562    -1.2834    -0.7549    -0.6810
                     A'         A'         A'         A'         A'' 
    1  C  1  S   -0.000129   0.996471  -0.128431  -0.109570   0.000000
    2  C  1  S   -0.000062   0.022599   0.271397   0.225406   0.000000
    3  C  1  X    0.000045  -0.001549  -0.092973   0.198986   0.000000
    4  C  1  Y   -0.000089   0.001420   0.020104   0.185712   0.000000
    5  C  1  Z   -0.000000   0.000000  -0.000000  -0.000000   0.429933
    6  C  1  S    0.004670  -0.010717   0.102283   0.283444   0.000000
    7  C  1  X   -0.002625  -0.000554   0.043147   0.036407   0.000000
    8  C  1  Y    0.000103  -0.001117   0.011181   0.089671   0.000000
    9  C  1  Z   -0.000000   0.000000  -0.000000  -0.000000   0.164398
   10  O  2  S    0.996040  -0.000394  -0.175928   0.066058   0.000000
   11  O  2  S    0.021617   0.000780   0.389460  -0.144172   0.000000
   12  O  2  X    0.001173  -0.000370   0.140113  -0.070289   0.000000
   13  O  2  Y   -0.001023   0.000979  -0.100802   0.355201   0.000000
   14  O  2  Z   -0.000000   0.000000  -0.000000  -0.000000   0.292601
   15  O  2  S   -0.009746   0.001210   0.402460  -0.211958   0.000000
   16  O  2  X   -0.002523  -0.000916   0.086798  -0.075174   0.000000
   17  O  2  Y   -0.000619   0.000915  -0.078145   0.250013   0.000000
   18  O  2  Z   -0.000000   0.000000  -0.000000  -0.000000   0.174696
   19  H  3  S   -0.000076  -0.000472   0.076394   0.160215   0.205914
   20  H  3  S   -0.000009   0.002697   0.019869   0.053887   0.128811
   21  H  4  S   -0.000076  -0.000472   0.076394   0.160215  -0.205914
   22  H  4  S   -0.000009   0.002697   0.019869   0.053887  -0.128811

                      6          7          8          9         10
                    0.0000     0.0000     0.0000     0.0000     0.2501
                     A'         A'         A''        A'         A'  
    1  C  1  S    0.056787  -0.067751   0.000000   0.072822  -0.118007
    2  C  1  S   -0.131622   0.169825   0.000000  -0.166384   0.144244
    3  C  1  X   -0.203896  -0.224104   0.000000  -0.046836   0.155943
    4  C  1  Y    0.030862  -0.017441   0.000000   0.602611   0.151493
    5  C  1  Z    0.000000   0.000000  -0.213079   0.000000   0.000000
    6  C  1  S   -0.168628   0.032016   0.000000  -0.393131   2.019823
    7  C  1  X   -0.022960  -0.017226   0.000000  -0.023036   0.568305
    8  C  1  Y    0.009834  -0.010552   0.000000   0.446654   0.533766
    9  C  1  Z    0.000000   0.000000  -0.033871   0.000000   0.000000
   10  O  2  S   -0.067908   0.111132   0.000000  -0.016399  -0.000737
   11  O  2  S    0.143448  -0.272509   0.000000   0.025417   0.008615
   12  O  2  X    0.177164   0.528585   0.000000   0.098755  -0.041304
   13  O  2  Y    0.499803  -0.069007   0.000000  -0.206838  -0.039805
   14  O  2  Z    0.000000   0.000000   0.587542   0.000000   0.000000
   15  O  2  S    0.206233  -0.306569   0.000000   0.128245  -0.004866
   16  O  2  X    0.126667   0.321326   0.000000   0.086153  -0.073708
   17  O  2  Y    0.383808  -0.051712   0.000000  -0.259149  -0.110195
   18  O  2  Z    0.000000   0.000000   0.461592   0.000000   0.000000
   19  H  3  S   -0.114757  -0.006297  -0.168467   0.054193  -0.038208
   20  H  3  S   -0.072711  -0.028674  -0.186625   0.096197  -1.492046
   21  H  4  S   -0.114757  -0.006297   0.168467   0.054193  -0.038208
   22  H  4  S   -0.072711  -0.028674   0.186625   0.096197  -1.492046

                     11         12         13         14         15
                    0.3123     0.3503     0.7391     0.8092     0.8121
                     A''        A'         A'         A''        A'  
    1  C  1  S   -0.000000   0.073409  -0.024132   0.000000   0.054331
    2  C  1  S   -0.000000  -0.058251   0.162369   0.000000  -0.196989
    3  C  1  X   -0.000000   0.183599  -0.034915   0.000000   1.101177
    4  C  1  Y   -0.000000  -0.021938  -0.995622   0.000000  -0.139662
    5  C  1  Z   -0.412907   0.000000   0.000000  -0.768434   0.000000
    6  C  1  S   -0.000000  -1.275193   0.098524   0.000000  -0.366112
    7  C  1  X   -0.000000   1.636865   0.163236   0.000000  -1.045554
    8  C  1  Y   -0.000000  -0.054478   1.272020   0.000000  -0.067744
    9  C  1  Z   -1.541026   0.000000   0.000000   2.237670   0.000000
   10  O  2  S   -0.000000  -0.089878   0.002063   0.000000  -0.044690
   11  O  2  S   -0.000000   0.115050  -0.010785   0.000000   0.215259
   12  O  2  X   -0.000000   0.222059  -0.030315   0.000000   0.300424
   13  O  2  Y   -0.000000   0.011295  -0.073973   0.000000   0.020940
   14  O  2  Z    0.090402   0.000000   0.000000  -0.252774   0.000000
   15  O  2  S   -0.000000   1.500088   0.059098   0.000000  -0.324108
   16  O  2  X   -0.000000   0.872846   0.000350   0.000000   0.255898
   17  O  2  Y   -0.000000   0.004606  -0.191617   0.000000   0.013933
   18  O  2  Z    0.271460   0.000000   0.000000  -0.230926   0.000000
   19  H  3  S    0.003657  -0.036541  -0.096758  -0.390639   0.226678
   20  H  3  S    1.759267   0.018013  -0.142713  -0.825051   0.139547
   21  H  4  S   -0.003657  -0.036541  -0.096758   0.390639   0.226678
   22  H  4  S   -1.759267   0.018013  -0.142713   0.825051   0.139547

                     16         17         18         19         20
                    0.9198     1.1550     1.1582     1.2323     1.2471
                     A'         A''        A'         A'         A'  
    1  C  1  S   -0.034648  -0.000000   0.052787  -0.017270   0.023664
    2  C  1  S   -1.384357  -0.000000  -1.334230  -0.677080   0.314078
    3  C  1  X    0.215911  -0.000000  -0.457165  -0.031997  -0.045315
    4  C  1  Y    0.046374  -0.000000  -0.279687  -0.033380   0.017399
    5  C  1  Z    0.000000  -0.853273   0.000000  -0.000000   0.000000
    6  C  1  S    2.761749  -0.000000   2.767774   0.723053  -0.463450
    7  C  1  X   -0.008118  -0.000000   0.410041   0.084289  -0.071682
    8  C  1  Y    0.374569  -0.000000   0.454739  -0.008584  -0.448877
    9  C  1  Z    0.000000   1.318606   0.000000  -0.000000   0.000000
   10  O  2  S    0.026640  -0.000000   0.008612  -0.045628   0.013479
   11  O  2  S   -0.196445  -0.000000  -0.031339   0.491017  -0.134394
   12  O  2  X    0.155417  -0.000000   0.247839  -0.766009   0.317230
   13  O  2  Y   -0.121936  -0.000000   0.107718  -0.340080  -0.883943
   14  O  2  Z    0.000000   0.411875   0.000000  -0.000000   0.000000
   15  O  2  S   -0.370833  -0.000000  -0.280240  -0.479856   0.145689
   16  O  2  X   -0.259347  -0.000000  -0.450658   0.978073  -0.405238
   17  O  2  Y    0.017145  -0.000000  -0.143626   0.405138   1.121272
   18  O  2  Z    0.000000  -0.543080   0.000000  -0.000000   0.000000
   19  H  3  S   -0.592340   0.743176   0.661346   0.135286   0.122791
   20  H  3  S   -0.417260  -1.317061  -1.311647  -0.343617   0.132451
   21  H  4  S   -0.592340  -0.743176   0.661346   0.135286   0.122791
   22  H  4  S   -0.417260   1.317061  -1.311647  -0.343617   0.132451

                     21         22
                    1.3134     1.8752
                     A''        A'  
    1  C  1  S    0.000000   0.022956
    2  C  1  S    0.000000   0.040820
    3  C  1  X    0.000000   0.301334
    4  C  1  Y    0.000000  -0.024540
    5  C  1  Z   -0.180239   0.000000
    6  C  1  S    0.000000  -2.062556
    7  C  1  X    0.000000   1.036192
    8  C  1  Y    0.000000  -0.117876
    9  C  1  Z   -0.752400   0.000000
   10  O  2  S    0.000000   0.047026
   11  O  2  S    0.000000  -1.707905
   12  O  2  X    0.000000  -0.410745
   13  O  2  Y    0.000000  -0.018577
   14  O  2  Z   -0.839440   0.000000
   15  O  2  S    0.000000   3.191376
   16  O  2  X    0.000000   1.519419
   17  O  2  Y    0.000000   0.043335
   18  O  2  Z    1.231266   0.000000
   19  H  3  S    0.504981   0.222257
   20  H  3  S   -0.058298   0.050050
   21  H  4  S   -0.504981   0.222257
   22  H  4  S    0.058298   0.050050
 .....DONE WITH MCSCF ITERATIONS.....
 STEP CPU TIME =     0.14 TOTAL CPU TIME =        0.2 (    0.0 MIN)
 TOTAL WALL CLOCK TIME=        0.2 SECONDS, CPU UTILIZATION IS  94.44%

     ----------------------------------------------------------------
     PROPERTY VALUES FOR THE MCSCF SELF-CONSISTENT FIELD WAVEFUNCTION
     ----------------------------------------------------------------

          -----------------
          ENERGY COMPONENTS
          -----------------

         WAVEFUNCTION NORMALIZATION =       1.0000000000

                ONE ELECTRON ENERGY =    -212.4410156874
                TWO ELECTRON ENERGY =      69.8694045912
           NUCLEAR REPULSION ENERGY =      28.9934411286
                                      ------------------
                       TOTAL ENERGY =    -113.5781699676

 ELECTRON-ELECTRON POTENTIAL ENERGY =      69.8694045912
  NUCLEUS-ELECTRON POTENTIAL ENERGY =    -326.3046729769
   NUCLEUS-NUCLEUS POTENTIAL ENERGY =      28.9934411286
                                      ------------------
             TOTAL POTENTIAL ENERGY =    -227.4418272570
               TOTAL KINETIC ENERGY =     113.8636572895
                 VIRIAL RATIO (V/T) =       1.9974927266

          ---------------------------------------
          MULLIKEN AND LOWDIN POPULATION ANALYSES
          ---------------------------------------

     ATOMIC MULLIKEN POPULATION IN EACH MOLECULAR ORBITAL

                      1          2          3          4          5

                  2.000000   2.000000   2.000000   2.000000   2.000000

    1             0.000869   1.999098   0.503329   0.869014   0.938427
    2             1.999132  -0.000100   1.392727   0.746045   0.446539
    3            -0.000000   0.000501   0.051972   0.192470   0.307517
    4            -0.000000   0.000501   0.051972   0.192470   0.307517

                      6          7          8          9

                  1.999024   1.993459   1.215439   0.792078

    1             0.138891   0.334263   0.569915   0.473321
    2             1.502864   1.518808   0.600476   0.321588
    3             0.178635   0.070194   0.022524  -0.001416
    4             0.178635   0.070194   0.022524  -0.001416
 WARNING! MCSCF POPULATIONS SHOWN ABOVE ARE FOR THE NATURAL ORBITALS.
 IGNORE THE ABOVE DATA FOR MCSCF FUNCTIONS WHICH ARE NOT OF -FORS- TYPE.
 THE FOLLOWING POPULATIONS ARE CORRECT FOR ANY MCSCF WAVEFUNCTION.

               ----- POPULATIONS IN EACH AO -----
                             MULLIKEN      LOWDIN
              1  C  1  S      1.99756     1.98938
              2  C  1  S      0.73801     0.61544
              3  C  1  X      0.39263     0.37325
              4  C  1  Y      0.63048     0.60127
              5  C  1  Z      0.78744     0.69313
              6  C  1  S      0.58533     0.49067
              7  C  1  X      0.01510     0.27598
              8  C  1  Y      0.39070     0.43363
              9  C  1  Z      0.28988     0.44483
             10  O  2  S      1.99778     1.99392
             11  O  2  S      0.89635     0.88048
             12  O  2  X      0.53133     0.50326
             13  O  2  Y      1.10843     1.08657
             14  O  2  Z      1.18340     1.16037
             15  O  2  S      0.99629     0.75905
             16  O  2  X      0.29419     0.37340
             17  O  2  Y      0.75431     0.76780
             18  O  2  Z      0.76600     0.79423
             19  H  3  S      0.54639     0.51967
             20  H  3  S      0.27601     0.36200
             21  H  4  S      0.54639     0.51967
             22  H  4  S      0.27601     0.36200

          ----- MULLIKEN ATOMIC OVERLAP POPULATIONS -----
          (OFF-DIAGONAL ELEMENTS NEED TO BE MULTIPLIED BY 2)

             1           2           3           4

    1    5.1264506
    2   -0.0004240   8.6199745
    3    0.3505501  -0.0457351   0.5662975
    4    0.3505501  -0.0457351  -0.0487161   0.5662975

          TOTAL MULLIKEN AND LOWDIN ATOMIC POPULATIONS
       ATOM         MULL.POP.    CHARGE          LOW.POP.     CHARGE
    1 CARBON        5.827127    0.172873         5.917581    0.082419
    2 OXYGEN        8.528080   -0.528080         8.319082   -0.319082
    3 HYDROGEN      0.822396    0.177604         0.881669    0.118331
    4 HYDROGEN      0.822396    0.177604         0.881669    0.118331

          ---------------------
          ELECTROSTATIC MOMENTS
          ---------------------

 POINT   1           X           Y           Z (BOHR)    CHARGE
                -0.047506    0.014008    0.000000        0.00 (A.U.)
         DX          DY          DZ         /D/  (DEBYE)
     2.428684    0.495334    0.000000    2.478681
 ...... END OF PROPERTY EVALUATION ......
 STEP CPU TIME =     0.00 TOTAL CPU TIME =        0.2 (    0.0 MIN)
 TOTAL WALL CLOCK TIME=        0.2 SECONDS, CPU UTILIZATION IS  94.44%

 BEGINNING ONE ELECTRON GRADIENT...
 ..... END OF 1-ELECTRON GRADIENT ......
 STEP CPU TIME =     0.00 TOTAL CPU TIME =        0.2 (    0.0 MIN)
 TOTAL WALL CLOCK TIME=        0.2 SECONDS, CPU UTILIZATION IS  89.47%

          ----------------------
          GRADIENT OF THE ENERGY
          ----------------------
 THE COARSE/FINE SCHWARZ SCREENINGS SKIPPED            0/           0 BLOCKS.
 THE NUMBER OF GRADIENT INTEGRAL BLOCKS COMPUTED WAS       868
 ...... END OF 2-ELECTRON GRADIENT ......
 STEP CPU TIME =     0.01 TOTAL CPU TIME =        0.2 (    0.0 MIN)
 TOTAL WALL CLOCK TIME=        0.2 SECONDS, CPU UTILIZATION IS  94.74%

                         ----------------------
                         GRADIENT OF THE ENERGY
                         ----------------------

 UNITS ARE HARTREE/BOHR    E'X               E'Y               E'Z 
    1 CARBON          -0.112891162       0.009640666       0.000000000
    2 OXYGEN           0.104258863      -0.004783879       0.000000000
    3 HYDROGEN         0.004316150      -0.002428393       0.000953139
    4 HYDROGEN         0.004316150      -0.002428393      -0.000953139

                   MAXIMUM GRADIENT =    0.112891162
                       RMS GRADIENT =    0.044516872


                     --------------------
                     INTERNAL COORDINATES
                     --------------------

                 - - ATOMS - -         COORDINATE        GRADIENT
 NO.   TYPE    I  J  K  L  M  N         (ANG,DEG)     (H/B,H/RAD)
 ----------------------------------------------------------------
   1 STRETCH   1  2                     1.3596902      -0.1043033
   2 STRETCH   1  3                     1.0789193       0.0017883
   3 STRETCH   1  4                     1.0789193       0.0017883
   4 BEND      2  1  3                113.4178380       0.0032060
   5 BEND      2  1  4                113.4178380       0.0032060
   6 PLA.BEND  2  1  3  4              38.6557197      -0.0072683

                   MAXIMUM GRADIENT =    0.104303255
                       RMS GRADIENT =    0.042737472
  $VIB   
          IVIB=   0 IATOM=   0 ICOORD=   0 E=     -113.5781699676
 -1.128911617E-01 9.640666030E-03 0.000000000E+00 1.042588627E-01-4.783879159E-03
  0.000000000E+00 4.316149506E-03-2.428393436E-03 9.531390055E-04 4.316149506E-03
 -2.428393436E-03-9.531390055E-04
  2.428683665E+00 4.953341645E-01 6.208239700E-15

..... END OF SINGLE POINT GRADIENT .....
 STEP CPU TIME =     0.00 TOTAL CPU TIME =        0.2 (    0.0 MIN)
 TOTAL WALL CLOCK TIME=        0.2 SECONDS, CPU UTILIZATION IS  94.74%
               580000  WORDS OF DYNAMIC MEMORY USED
 EXECUTION OF GAMESS TERMINATED NORMALLY Fri Jun  2 04:10:12 2017
 DDI: 263640 bytes (0.3 MB / 0 MWords) used by master data server.

 ----------------------------------------
 CPU timing information for all processes
 ========================================
 0: 0.163 + 0.26 = 0.190
 ----------------------------------------
 ddikick.x: exited gracefully.
unset echo
----- accounting info -----
Files used on the master node compute-0-2.local were:
-rw-rw-r-- 1 sarom sarom    5140 Jun  2 04:10 /scratch/mc-psi-linser.F05
-rw-rw-r-- 1 sarom sarom  360032 Jun  2 04:10 /scratch/mc-psi-linser.F08
-rw-rw-r-- 1 sarom sarom  182048 Jun  2 04:10 /scratch/mc-psi-linser.F09
-rw-rw-r-- 1 sarom sarom 2126800 Jun  2 04:10 /scratch/mc-psi-linser.F10
-rw-rw-r-- 1 sarom sarom     376 Jun  2 04:10 /scratch/mc-psi-linser.F12
-rw-rw-r-- 1 sarom sarom  180384 Jun  2 04:10 /scratch/mc-psi-linser.F15
-rw-rw-r-- 1 sarom sarom   31320 Jun  2 04:10 /scratch/mc-psi-linser.F16
rm: cannot remove `/scratch/sarom': Is a directory
rm: cannot remove `/scratch/tmp': Is a directory
ls: No match.
ls: No match.
ls: No match.
Fri Jun  2 04:10:15 CDT 2017
0.151u 0.035s 0:03.45 5.2%	0+0k 16+384io 0pf+0w
Deleting shmid=3964928.
Deleting shmid=3997697.
Deleting shmid=4227074.
/opt/gridengine/default/spool/compute-0-2/active_jobs/23931.1/pe_hostfile compute-0-2.local
