-catch_rsh /opt/gridengine/default/spool/compute-0-2/active_jobs/23919.1/pe_hostfile
compute-0-2
The primary node assigned by SGE to this run is compute-0-2
Warning: no access to tty (Bad file descriptor).
Thus no job control in this shell.
Deleting shmid=3964928.
Deleting shmid=3997697.
Deleting shmid=4227074.
source /home/sarom/gamess.github.2017-05-31.14.06/install.info
setenv GMS_PATH /home/sarom/gamess.github.2017-05-31.14.06
setenv GMS_BUILD_DIR /home/sarom/gamess.github.2017-05-31.14.06
setenv GMS_TARGET linux64
setenv GMS_FORTRAN gfortran
setenv GMS_GFORTRAN_VERNO 4.4
setenv GMS_MATHLIB mkl-so
setenv GMS_MATHLIB_PATH /share/apps/intel/compilers_and_libraries_2017.1.132/linux/mkl/lib/intel64
setenv GMS_MKL_VERNO 12
setenv GMS_DDI_COMM sockets
setenv GMS_LIBCCHEM false
setenv GMS_EIGEN_PATH
setenv GMS_PHI false
setenv GMS_SHMTYPE sysv
setenv GMS_OPENMP false
unset echo
mc-psi-c6h6-olmo
tests/mcscf/psi
----- GAMESS execution script 'rungms' -----
This job is running on host compute-0-2.local
under operating system Linux at Fri Jun 2 04:05:27 CDT 2017
Available scratch disk space (Kbyte units) at beginning of the job is
Filesystem           1K-blocks      Used Available Use% Mounted on
/dev/sda1             16126920   3867312  11440408  26% /
GAMESS temporary binary files will be written to /scratch
GAMESS supplementary output files will be written to /home/sarom/restart
Copying input file mc-psi-c6h6-olmo.inp to your run's scratch directory...
cp tests/mcscf/psi/mc-psi-c6h6-olmo.inp /scratch/mc-psi-c6h6-olmo.F05
unset echo
The generated host list is
compute-0-2.local
/home/sarom/gamess.github.2017-05-31.14.06/ddikick.x /home/sarom/gamess.github.2017-05-31.14.06/gamess.00.x mc-psi-c6h6-olmo -ddi 1 1 compute-0-2.local -scr /scratch

 Distributed Data Interface kickoff program.
 Initiating 1 compute processes on 1 nodes to run the following command:
 /home/sarom/gamess.github.2017-05-31.14.06/gamess.00.x mc-psi-c6h6-olmo 

          ******************************************************
          *         GAMESS VERSION = 20 APR 2017 (R1)          *
          *             FROM IOWA STATE UNIVERSITY             *
          * M.W.SCHMIDT, K.K.BALDRIDGE, J.A.BOATZ, S.T.ELBERT, *
          *   M.S.GORDON, J.H.JENSEN, S.KOSEKI, N.MATSUNAGA,   *
          *          K.A.NGUYEN, S.J.SU, T.L.WINDUS,           *
          *       TOGETHER WITH M.DUPUIS, J.A.MONTGOMERY       *
          *         J.COMPUT.CHEM.  14, 1347-1363(1993)        *
          **************** 64 BIT LINUX VERSION ****************

  SINCE 1993, STUDENTS AND POSTDOCS WORKING AT IOWA STATE UNIVERSITY
  AND ALSO IN THEIR VARIOUS JOBS AFTER LEAVING ISU HAVE MADE IMPORTANT
  CONTRIBUTIONS TO THE CODE:
     IVANA ADAMOVIC, CHRISTINE AIKENS, YURI ALEXEEV, POOJA ARORA,
     ANDREY ASADCHEV, ROB BELL, PRADIPTA BANDYOPADHYAY, JONATHAN BENTZ,
     BRETT BODE, KURT BRORSEN, CALEB CARLIN, GALINA CHABAN, WEI CHEN,
     CHEOL HO CHOI, PAUL DAY, ALBERT DEFUSCO, NUWAN DESILVA, TIM DUDLEY,
     DMITRI FEDOROV, GRAHAM FLETCHER, MARK FREITAG, KURT GLAESEMANN,
     DAN KEMP, GRANT MERRILL, NORIYUKI MINEZAWA, JONATHAN MULLIN,
     TAKESHI NAGATA, SEAN NEDD, HEATHER NETZLOFF, BOSILJKA NJEGIC, RYAN OLSON,
     MIKE PAK, SPENCER PRUITT, LUKE ROSKOP, JIM SHOEMAKER, LYUDMILA SLIPCHENKO,
     TONY SMITH, SAROM SOK LEANG, JIE SONG, TETSUYA TAKETSUGU, SIMON WEBB,
     PENG XU, SOOHAENG YOO, FEDERICO ZAHARIEV

  ADDITIONAL CODE HAS BEEN PROVIDED BY COLLABORATORS IN OTHER GROUPS:
     IOWA STATE UNIVERSITY:
          JOE IVANIC, AARON WEST, LAIMUTIS BYTAUTAS, KLAUS RUEDENBERG
     UNIVERSITY OF TOKYO: KIMIHIKO HIRAO, TAKAHITO NAKAJIMA,
          TAKAO TSUNEDA, MUNEAKI KAMIYA, SUSUMU YANAGISAWA,
          KIYOSHI YAGI, MAHITO CHIBA, SEIKEN TOKURA, NAOAKI KAWAKAMI
     UNIVERSITY OF AARHUS: FRANK JENSEN
     UNIVERSITY OF IOWA: VISVALDAS KAIRYS, HUI LI
     NATIONAL INST. OF STANDARDS AND TECHNOLOGY: WALT STEVENS, DAVID GARMER
     UNIVERSITY OF PISA: BENEDETTA MENNUCCI, JACOPO TOMASI
     UNIVERSITY OF MEMPHIS: HENRY KURTZ, PRAKASHAN KORAMBATH
     UNIVERSITY OF ALBERTA: TOBY ZENG, MARIUSZ KLOBUKOWSKI
     UNIVERSITY OF NEW ENGLAND: MARK SPACKMAN
     MIE UNIVERSITY: HIROAKI UMEDA
     NAT. INST. OF ADVANCED INDUSTRIAL SCIENCE AND TECHNOLOGY: KAZUO KITAURA
     MICHIGAN STATE UNIVERSITY:
          KAROL KOWALSKI, MARTA WLOCH, JEFFREY GOUR, JESSE LUTZ,
          WEI LI, PIOTR PIECUCH
     UNIVERSITY OF SILESIA: MONIKA MUSIAL, STANISLAW KUCHARSKI
     FACULTES UNIVERSITAIRES NOTRE-DAME DE LA PAIX:
          OLIVIER QUINET, BENOIT CHAMPAGNE
     UNIVERSITY OF CALIFORNIA - SANTA BARBARA: BERNARD KIRTMAN
     INSTITUTE FOR MOLECULAR SCIENCE:
          KAZUYA ISHIMURA, MICHIO KATOUDA, AND SHIGERU NAGASE
     UNIVERSITY OF NOTRE DAME: ANNA POMOGAEVA, DAN CHIPMAN
     KYUSHU UNIVERSITY:
          HARUYUKI NAKANO,
          FENG LONG GU, JACEK KORCHOWIEC, MARCIN MAKOWSKI, AND YURIKO AOKI,
          HIROTOSHI MORI AND EISAKU MIYOSHI
     PENNSYLVANIA STATE UNIVERSITY:
          TZVETELIN IORDANOV, CHET SWALINA, JONATHAN SKONE,
          SHARON HAMMES-SCHIFFER
     WASEDA UNIVERSITY:
          MASATO KOBAYASHI, TOMOKO AKAMA, TSUGUKI TOUMA,
          TAKESHI YOSHIKAWA, YASUHIRO IKABATA, JUNJI SEINO,
          YUYA NAKAJIMA, HIROMI NAKAI
     NANJING UNIVERSITY: SHUHUA LI
     UNIVERSITY OF NEBRASKA:
          PEIFENG SU, DEJUN SI, NANDUN THELLAMUREGE, YALI WANG, HUI LI
     UNIVERSITY OF ZURICH: ROBERTO PEVERATI, KIM BALDRIDGE
     N. COPERNICUS UNIVERSITY AND JACKSON STATE UNIVERSITY:
          MARIA BARYSZ
     UNIVERSITY OF COPENHAGEN: Jimmy Kromann, CASPER STEINMANN
     TOKYO INSTITUTE OF TECHNOLOGY: HIROYA NAKATA
     NAGOYA UNIVERSITY: YOSHIO NISHIMOTO, STEPHAN IRLE
     MOSCOW STATE UNIVERSITY: VLADIMIR MIRONOV

 EXECUTION OF GAMESS BEGUN Fri Jun  2 04:05:27 2017

            ECHO OF THE FIRST FEW INPUT CARDS -
 INPUT CARD>!  This run reproduces the study of resonance in benzene found in               
 INPUT CARD>!    "A comparative study of the bonding in heteroatom analogues of benzene"    
 INPUT CARD>!     N.Matsunaga, T.R.Cundari, M.W.Schmidt, M.S.Gordon                         
 INPUT CARD>!     Theoret.Chim.Acta 83, 57-68(1992)                                         
 INPUT CARD>!                                                                               
 INPUT CARD>!  DENSITY MATRIX FOR QUASI-ATOMIC AND BONDING ORBITALS:                        
 INPUT CARD>!      diagonal population=  1.000 (integral, by symmetry)                      
 INPUT CARD>!      ortho CC bond order=  0.62                                               
 INPUT CARD>!       meta CC bond order=    smaller than the printing threshold              
 INPUT CARD>!       para CC bond order= -0.28                                               
 INPUT CARD>!                                                                               
 INPUT CARD>!  This run takes 7 seconds on 2.66 GHz Cloverton (27 Apr 2015)                 
 INPUT CARD>!                                                                               
 INPUT CARD>!  ------------------------------------------------------------------           
 INPUT CARD>!  The RHF energy is -36.3885739348 with gradient of 0.000039917                
 INPUT CARD>!  The FINAL MCSCF E= -36.4609488852 after 8 iterations                         
 INPUT CARD>!  The results of the oriented localized molecular orbital analysis             
 INPUT CARD>!  are of course exactly 1 electron in the 6 equivalent p orbitals              
 INPUT CARD>!  forming the pi system, an ortho bond order of 0.62, and a para               
 INPUT CARD>!  antibonding order of -0.28 (literature values 0.617 and -0.271).             
 INPUT CARD>!  The size of this ortho interaction should be compared to the                 
 INPUT CARD>!  literature bond order in ethylene of 0.897 for a full pi bond,               
 INPUT CARD>!  and this reference estimates the average pi bond order in benzene            
 INPUT CARD>!  as about one half, based on the para antibonding term.                       
 INPUT CARD>!                                                                               
 INPUT CARD>!  This first line indicates there is a bug in the MCCAS transformation,        
 INPUT CARD>!  which doesn't properly downshift to no symmetry in this non-Abelian group.   
 INPUT CARD> $contrl nosym=1 $end                                                           
 INPUT CARD>                                                                                
 INPUT CARD> $contrl scftyp=mcscf runtyp=energy local=ruednbrg ecp=sbkjc $end               
 INPUT CARD> $system mwords=10 memddi=0 $end                                                
 INPUT CARD>!         must bring the a1g bonding pi orbital 11 up into the active space,    
 INPUT CARD>!         the MVOQ=4 virtuals are in perfect order to be the three pi*'s        
 INPUT CARD> $guess  guess=moread norb=96 norder=1 iorder(11)=12,13,11 $end                 
 INPUT CARD> $basis  gbasis=sbkjc ndfunc=1 $end                                             
 INPUT CARD> $mcscf  cistep=aldet soscf=.true. $end                                         
 INPUT CARD> $det    ncore=12 nact=6 nels=6 $end                                            
 INPUT CARD> $local  orient=.true. $end                                                     
 INPUT CARD> $data                                                                          
 INPUT CARD>bonding in heteroatom analogues of benzene...C6H6 geometry from Table 1         
 INPUT CARD>Dnh 6                                                                           
 INPUT CARD>                                                                                
 INPUT CARD>C  6.0    1.406  0.0 0.0                                                        
 INPUT CARD>H  1.0    2.497  0.0 0.0                                                        
 INPUT CARD> $end                                                                           
 INPUT CARD>                                                                                
 INPUT CARD>CLOSED SHELL ORBITALS --- GENERATED 8:34:33 CST 26-OCT-2001, using MVOQ=4       
 INPUT CARD>E(RHF)=      -36.3885739348, E(NUC)=  102.3773346092,   10 ITERS                
 INPUT CARD> $VEC                                                                           
 INPUT CARD> 1  1 2.48415698E-01-3.24957938E-02-5.62843660E-02 0.00000000E+00 6.75600495E-03
   10000000 WORDS OF MEMORY AVAILABLE

     BASIS OPTIONS
     -------------
     GBASIS=SBKJC        IGAUSS=       0      POLAR=COMMON  
     NDFUNC=       1     NFFUNC=       0     DIFFSP=       F
     NPFUNC=       0      DIFFS=       F     BASNAM=        


     RUN TITLE
     ---------
 bonding in heteroatom analogues of benzene...C6H6 geometry from Table 1         

 THE POINT GROUP OF THE MOLECULE IS DNH     
 THE ORDER OF THE PRINCIPAL AXIS IS     6

 ATOM      ATOMIC                      COORDINATES (BOHR)
           CHARGE         X                   Y                   Z
 C           6.0     1.3284773694        2.3009903005        0.0000000000
 C           6.0    -1.3284773694        2.3009903005        0.0000000000
 C           6.0    -2.6569547387        0.0000000000        0.0000000000
 C           6.0    -1.3284773694       -2.3009903005        0.0000000000
 C           6.0     1.3284773694       -2.3009903005        0.0000000000
 C           6.0     2.6569547387        0.0000000000        0.0000000000
 H           1.0     2.3593228957        4.0864671268        0.0000000000
 H           1.0    -2.3593228957        4.0864671268        0.0000000000
 H           1.0    -4.7186457913        0.0000000000        0.0000000000
 H           1.0    -2.3593228957       -4.0864671268        0.0000000000
 H           1.0     2.3593228957       -4.0864671268        0.0000000000
 H           1.0     4.7186457913        0.0000000000        0.0000000000

          INTERNUCLEAR DISTANCES (ANGS.)
          ------------------------------

                1 C          2 C          3 C          4 C          5 C     

   1 C       0.0000000    1.4060000 *  2.4352634 *  2.8120000 *  2.4352634 *
   2 C       1.4060000 *  0.0000000    1.4060000 *  2.4352634 *  2.8120000 *
   3 C       2.4352634 *  1.4060000 *  0.0000000    1.4060000 *  2.4352634 *
   4 C       2.8120000 *  2.4352634 *  1.4060000 *  0.0000000    1.4060000 *
   5 C       2.4352634 *  2.8120000 *  2.4352634 *  1.4060000 *  0.0000000  
   6 C       1.4060000 *  2.4352634 *  2.8120000 *  2.4352634 *  1.4060000 *
   7 H       1.0910000 *  2.1681935 *  3.4238322    3.9030000    3.4238322  
   8 H       2.1681935 *  1.0910000 *  2.1681935 *  3.4238322    3.9030000  
   9 H       3.4238322    2.1681935 *  1.0910000 *  2.1681935 *  3.4238322  
  10 H       3.9030000    3.4238322    2.1681935 *  1.0910000 *  2.1681935 *
  11 H       3.4238322    3.9030000    3.4238322    2.1681935 *  1.0910000 *
  12 H       2.1681935 *  3.4238322    3.9030000    3.4238322    2.1681935 *

                6 C          7 H          8 H          9 H         10 H     

   1 C       1.4060000 *  1.0910000 *  2.1681935 *  3.4238322    3.9030000  
   2 C       2.4352634 *  2.1681935 *  1.0910000 *  2.1681935 *  3.4238322  
   3 C       2.8120000 *  3.4238322    2.1681935 *  1.0910000 *  2.1681935 *
   4 C       2.4352634 *  3.9030000    3.4238322    2.1681935 *  1.0910000 *
   5 C       1.4060000 *  3.4238322    3.9030000    3.4238322    2.1681935 *
   6 C       0.0000000    2.1681935 *  3.4238322    3.9030000    3.4238322  
   7 H       2.1681935 *  0.0000000    2.4970000 *  4.3249309    4.9940000  
   8 H       3.4238322    2.4970000 *  0.0000000    2.4970000 *  4.3249309  
   9 H       3.9030000    4.3249309    2.4970000 *  0.0000000    2.4970000 *
  10 H       3.4238322    4.9940000    4.3249309    2.4970000 *  0.0000000  
  11 H       2.1681935 *  4.3249309    4.9940000    4.3249309    2.4970000 *
  12 H       1.0910000 *  2.4970000 *  4.3249309    4.9940000    4.3249309  

               11 H         12 H     

   1 C       3.4238322    2.1681935 *
   2 C       3.9030000    3.4238322  
   3 C       3.4238322    3.9030000  
   4 C       2.1681935 *  3.4238322  
   5 C       1.0910000 *  2.1681935 *
   6 C       2.1681935 *  1.0910000 *
   7 H       4.3249309    2.4970000 *
   8 H       4.9940000    4.3249309  
   9 H       4.3249309    4.9940000  
  10 H       2.4970000 *  4.3249309  
  11 H       0.0000000    2.4970000 *
  12 H       2.4970000 *  0.0000000  

  * ... LESS THAN  3.000


     ATOMIC BASIS SET
     ----------------
 THE CONTRACTED PRIMITIVE FUNCTIONS HAVE BEEN UNNORMALIZED
 THE CONTRACTED BASIS FUNCTIONS ARE NOW NORMALIZED TO UNITY

  SHELL TYPE  PRIMITIVE        EXPONENT          CONTRACTION COEFFICIENT(S)

 C         

     16   L       1             4.2860000   -0.201519462736    0.129228777258
     16   L       2             1.0460000    0.111217608663    0.415605896012
     16   L       3             0.3447000    0.976798591283    0.607426909344

     17   L       4             0.1128000    1.000000000000    1.000000000000

     18   D       5             0.8000000    1.000000000000

 H         

     29   S       6            13.0077340    0.033494604338
     29   S       7             1.9620794    0.234726953484
     29   S       8             0.4445290    0.813757326146

     30   S       9             0.1219492    1.000000000000

 TOTAL NUMBER OF BASIS SET SHELLS             =   30
 NUMBER OF CARTESIAN GAUSSIAN BASIS FUNCTIONS =   96
 NUMBER OF ELECTRONS                          =   42
 CHARGE OF MOLECULE                           =    0
 SPIN MULTIPLICITY                            =    1
 NUMBER OF OCCUPIED ORBITALS (ALPHA)          =   21
 NUMBER OF OCCUPIED ORBITALS (BETA )          =   21
 TOTAL NUMBER OF ATOMS                        =   12
 THE NUCLEAR REPULSION ENERGY IS      201.9230205573
 NOTE THIS RUN IS USING CORE POTENTIALS, AND THE NUMBER OF ELECTRONS,
 OCCUPIED ORBITALS, AND NUCLEAR REPULSION ENERGY WILL BE ADJUSTED BELOW
 AFTER REMOVAL OF THE CORE CHARGES.

     $CONTRL OPTIONS
     ---------------
 SCFTYP=MCSCF        RUNTYP=ENERGY       EXETYP=RUN     
 MPLEVL=       0     CITYP =NONE         CCTYP =NONE         VBTYP =NONE    
 DFTTYP=NONE         TDDFT =NONE    
 MULT  =       1     ICHARG=       0     NZVAR =       0     COORD =UNIQUE  
 PP    =SBKJC        RELWFN=NONE         LOCAL =RUEDNBRG     NUMGRD=       F
 ISPHER=      -1     NOSYM =       1     MAXIT =      30     UNITS =ANGS    
 PLTORB=       F     MOLPLT=       F     AIMPAC=       F     FRIEND=        
 NPRINT=       7     IREST =       0     GEOM  =INPUT   
 NORMF =       0     NORMP =       0     ITOL  =      20     ICUT  =       9
 INTTYP=BEST         GRDTYP=BEST         QMTTOL= 1.0E-06

     $SYSTEM OPTIONS
     ---------------
  REPLICATED MEMORY=    10000000 WORDS (ON EVERY NODE).
 DISTRIBUTED MEMDDI=           0 MILLION WORDS IN AGGREGATE,
 MEMDDI DISTRIBUTED OVER   1 PROCESSORS IS           0 WORDS/PROCESSOR.
 TOTAL MEMORY REQUESTED ON EACH PROCESSOR=    10000000 WORDS.
 TIMLIM=      525600.00 MINUTES, OR     365.0 DAYS.
 PARALL= F  BALTYP=  DLB     KDIAG=    0  COREFL= F
 MXSEQ2=     300 MXSEQ3=     150  mem10=         0

          --------------
          ECP POTENTIALS
          --------------

 PARAMETERS FOR "SBKJC- 6" ON ATOM    1 WITH ZCORE   2 AND LMAX  1 ARE
 FOR L= 1      COEFF    N           ZETA
    1       -0.89371    1        8.56468
 FOR L= 0      COEFF    N           ZETA
    1        1.92926    0        2.81497
    2       14.88199    2        8.11296

 PARAMETERS FOR "SBKJC- 6" ON ATOM    2 ARE THE SAME AS ATOM   1

 PARAMETERS FOR "SBKJC- 6" ON ATOM    3 ARE THE SAME AS ATOM   1

 PARAMETERS FOR "SBKJC- 6" ON ATOM    4 ARE THE SAME AS ATOM   1

 PARAMETERS FOR "SBKJC- 6" ON ATOM    5 ARE THE SAME AS ATOM   1

 PARAMETERS FOR "SBKJC- 6" ON ATOM    6 ARE THE SAME AS ATOM   1

 THE ECP RUN REMOVES   12 CORE ELECTRONS, AND THE SAME NUMBER OF PROTONS.
 NUMBER OF ELECTRONS KEPT IN THE CALCULATION IS =   30
 NUMBER OF OCCUPIED ORBITALS (ALPHA) KEPT IS    =   15
 NUMBER OF OCCUPIED ORBITALS (BETA ) KEPT IS    =   15
 THE ADJUSTED NUCLEAR REPULSION ENERGY=      102.3773346092
          ECP ANGULAR INTS.........     0.00 SECONDS

          ----------------
          PROPERTIES INPUT
          ----------------

     MOMENTS            FIELD           POTENTIAL          DENSITY
 IEMOM =       1   IEFLD =       0   IEPOT =       0   IEDEN =       0
 WHERE =COMASS     WHERE =NUCLEI     WHERE =NUCLEI     WHERE =NUCLEI  
 OUTPUT=BOTH       OUTPUT=BOTH       OUTPUT=BOTH       OUTPUT=BOTH    
 IEMINT=       0   IEFINT=       0                     IEDINT=       0
                                                       MORB  =       0

     -------------------------------
     INTEGRAL TRANSFORMATION OPTIONS
     -------------------------------
     NWORD  =            0
     CUTOFF = 1.0E-09     MPTRAN =       0
     DIRTRF =       F     AOINTS =DUP     

          ----------------------
          MCSCF INPUT PARAMETERS
          ----------------------
 CONVERGER SELECTION: FOCAS = F  SOSCF = T  FULLNR = F  QUD = F  JACOBI = F
 SECULAR EQUATION METHOD CISTEP = ALDET   
 --- GENERAL INPUT OPTIONS:
 MAXIT =      60  MICIT =       5  ACURCY= 1.000E-05
 DAMP  =   0.000  CANONC=       T  ENGTOL= 1.000E-10
 EKT   =       F  NPUNCH=       2  NWORD =         0
 REGENERATE CI AFTER CONVERGENCE = NONE    
 DIABATIZATION AFTER CONVERGENCE =        F
 --- INPUT FOR SOSCF CONVERGER:
 FORS  =       T  NOFO  =       1

          -----------------------------
          LOCALIZATION INPUT PARAMETERS
          -----------------------------
           LOCAL=RUEDNBRG      NOUTA=       0
          PRTLOC=       F      NOUTB=       0
          MAXLOC=     250     CVGLOC=1.00E-06
           FCORE=       T     SYMLOC=       F
          MOIDON=       F     EDCOMP=       F
          DIPDCM=       F      NPROT=       0
          QADDCM=       F     DEPRNT=       F
          POLNUM=       F     ORIENT=       T
          POLDYN=       F      VMTOL=1.50E-01
          NPRDTL=       2

          ----------------------
          INTEGRAL INPUT OPTIONS
          ----------------------
 NOPK  =       1 NORDER=       0 SCHWRZ=       T

     ------------------------------------------
     THE POINT GROUP IS C1 , NAXIS= 1, ORDER= 1
     ------------------------------------------

     DIMENSIONS OF THE SYMMETRY SUBSPACES ARE
 A   =   96

 ..... DONE SETTING UP THE RUN .....
 STEP CPU TIME =     0.12 TOTAL CPU TIME =        0.1 (    0.0 MIN)
 TOTAL WALL CLOCK TIME=        0.1 SECONDS, CPU UTILIZATION IS  92.31%

          ********************
          1 ELECTRON INTEGRALS
          ********************
 TIME TO DO ORDINARY INTEGRALS=      0.01
 TIME TO DO      ECP INTEGRALS=      0.02
 TIME TO DO   DIPOLE INTEGRALS=      0.01
 ...... END OF ONE-ELECTRON INTEGRALS ......
 STEP CPU TIME =     0.04 TOTAL CPU TIME =        0.2 (    0.0 MIN)
 TOTAL WALL CLOCK TIME=        0.2 SECONDS, CPU UTILIZATION IS  94.12%

          -------------
          GUESS OPTIONS
          -------------
          GUESS =MOREAD            NORB  =      96          NORDER=       1
          MIX   =       F          PRTMO =       F          PUNMO =       F
          TOLZ  = 1.0E-08          TOLE  = 1.0E-05
          SYMDEN=       F          PURIFY=       F

 INITIAL GUESS ORBITALS GENERATED BY MOREAD   ROUTINE.

 SYMMETRIES FOR INITIAL GUESS ORBITALS FOLLOW.   BOTH SET(S).
    15 ORBITALS ARE OCCUPIED (    0 CORE ORBITALS).
     1=A        2=A        3=A        4=A        5=A        6=A        7=A   
     8=A        9=A       10=A       11=A       12=A       13=A       14=A   
    15=A       16=A       17=A       18=A       19=A       20=A       21=A   
    22=A       23=A       24=A       25=A       26=A       27=A       28=A   
    29=A       30=A       31=A       32=A       33=A       34=A       35=A   
    36=A       37=A       38=A       39=A       40=A       41=A       42=A   
    43=A       44=A       45=A       46=A       47=A       48=A       49=A   
    50=A       51=A       52=A       53=A       54=A       55=A       56=A   
    57=A       58=A       59=A       60=A       61=A       62=A       63=A   
    64=A       65=A       66=A       67=A       68=A       69=A       70=A   
    71=A       72=A       73=A       74=A       75=A       76=A       77=A   
    78=A       79=A       80=A       81=A       82=A       83=A       84=A   
    85=A       86=A       87=A       88=A       89=A       90=A       91=A   
    92=A       93=A       94=A       95=A       96=A   
 ...... END OF INITIAL ORBITAL SELECTION ......
 STEP CPU TIME =     0.01 TOTAL CPU TIME =        0.2 (    0.0 MIN)
 TOTAL WALL CLOCK TIME=        0.2 SECONDS, CPU UTILIZATION IS  89.47%

                    ----------------------
                    AO INTEGRAL TECHNOLOGY
                    ----------------------
     S,P,L SHELL ROTATED AXIS INTEGRALS, REPROGRAMMED BY
        KAZUYA ISHIMURA (IMS) AND JOSE SIERRA (SYNSTAR).
     S,P,D,L SHELL ROTATED AXIS INTEGRALS PROGRAMMED BY
        KAZUYA ISHIMURA (INSTITUTE FOR MOLECULAR SCIENCE).
     S,P,D,F,G SHELL TO TOTAL QUARTET ANGULAR MOMENTUM SUM 5,
        ERIC PROGRAM BY GRAHAM FLETCHER (ELORET AND NASA ADVANCED
        SUPERCOMPUTING DIVISION, AMES RESEARCH CENTER).
     S,P,D,F,G,L SHELL GENERAL RYS QUADRATURE PROGRAMMED BY
        MICHEL DUPUIS (PACIFIC NORTHWEST NATIONAL LABORATORY).

          --------------------
          2 ELECTRON INTEGRALS
          --------------------

 THE -PK- OPTION IS OFF, THE INTEGRALS ARE NOT IN SUPERMATRIX FORM.
 STORING   15000 INTEGRALS/RECORD ON DISK, USING 12 BYTES/INTEGRAL.
 TWO ELECTRON INTEGRAL EVALUATION REQUIRES   90861 WORDS OF MEMORY.
 SCHWARZ INEQUALITY OVERHEAD:      4656 INTEGRALS, T=        0.00
 II,JST,KST,LST =  1  1  1  1 NREC =         1 INTLOC =    1
 II,JST,KST,LST =  2  1  1  1 NREC =         1 INTLOC =   17
 II,JST,KST,LST =  3  1  1  1 NREC =         1 INTLOC =  139
 II,JST,KST,LST =  4  1  1  1 NREC =         1 INTLOC =  880
 II,JST,KST,LST =  5  1  1  1 NREC =         1 INTLOC = 3453
 II,JST,KST,LST =  6  1  1  1 NREC =         1 INTLOC = 8282
 II,JST,KST,LST =  7  1  1  1 NREC =         2 INTLOC = 6282
 II,JST,KST,LST =  8  1  1  1 NREC =         4 INTLOC = 6212
 II,JST,KST,LST =  9  1  1  1 NREC =         7 INTLOC = 4332
 II,JST,KST,LST = 10  1  1  1 NREC =        13 INTLOC = 8611
 II,JST,KST,LST = 11  1  1  1 NREC =        19 INTLOC = 8642
 II,JST,KST,LST = 12  1  1  1 NREC =        27 INTLOC = 3565
 II,JST,KST,LST = 13  1  1  1 NREC =        42 INTLOC = 2432
 II,JST,KST,LST = 14  1  1  1 NREC =        55 INTLOC =12196
 II,JST,KST,LST = 15  1  1  1 NREC =        72 INTLOC = 3759
 II,JST,KST,LST = 16  1  1  1 NREC =       102 INTLOC = 4731
 II,JST,KST,LST = 17  1  1  1 NREC =       128 INTLOC = 9020
 II,JST,KST,LST = 18  1  1  1 NREC =       159 INTLOC = 5785
 II,JST,KST,LST = 19  1  1  1 NREC =       213 INTLOC =14900
 II,JST,KST,LST = 20  1  1  1 NREC =       224 INTLOC =11856
 II,JST,KST,LST = 21  1  1  1 NREC =       236 INTLOC = 5006
 II,JST,KST,LST = 22  1  1  1 NREC =       247 INTLOC =14632
 II,JST,KST,LST = 23  1  1  1 NREC =       260 INTLOC = 6358
 II,JST,KST,LST = 24  1  1  1 NREC =       272 INTLOC = 9821
 II,JST,KST,LST = 25  1  1  1 NREC =       285 INTLOC =12024
 II,JST,KST,LST = 26  1  1  1 NREC =       299 INTLOC =  790
 II,JST,KST,LST = 27  1  1  1 NREC =       313 INTLOC = 6571
 II,JST,KST,LST = 28  1  1  1 NREC =       327 INTLOC = 9124
 II,JST,KST,LST = 29  1  1  1 NREC =       343 INTLOC =  686
 II,JST,KST,LST = 30  1  1  1 NREC =       357 INTLOC =13976
 SCHWARZ INEQUALITY TEST SKIPPED        2028 INTEGRAL BLOCKS.
 TOTAL NUMBER OF NONZERO TWO-ELECTRON INTEGRALS =             5597893
        374 INTEGRAL RECORDS WERE STORED ON DISK FILE  8.
  ...... END OF TWO-ELECTRON INTEGRALS .....
 STEP CPU TIME =     0.46 TOTAL CPU TIME =        0.6 (    0.0 MIN)
 TOTAL WALL CLOCK TIME=        0.6 SECONDS, CPU UTILIZATION IS  96.92%

          -----------------
          MCSCF CALCULATION
          -----------------

 ----- NUCLEAR ENERGY ----- =       102.3773346092

     --------------------------------------------------
          AMES LABORATORY DETERMINANTAL FULL CI
     PROGRAM WRITTEN BY JOE IVANIC AND KLAUS RUEDENBERG
     --------------------------------------------------

 THE POINT GROUP                  =   C1      
 THE STATE SYMMETRY               =   A       
 NUMBER OF CORE ORBITALS          =   12
 NUMBER OF ACTIVE ORBITALS        =    6
 NUMBER OF ALPHA ELECTRONS        =   15 (   3 ACTIVE)
 NUMBER OF BETA ELECTRONS         =   15 (   3 ACTIVE)
 NUMBER OF OCCUPIED ORBITALS      =   18
 NUMBER OF CI STATES REQUESTED    =    1
 NUMBER OF CI STARTING VECTORS    =    1
 MAX. NO. OF CI EXPANSION VECTORS =   10
 SIZE OF INITIAL CI GUESS MATRIX  =  300
 MAX. NO. OF CI ITERS/STATE       =  100
 CI DIAGONALIZATION CRITERION     = 1.00E-05
 PURE SPIN STATE AVERAGED 1E- AND 2E- DENSITY MATRIX OPTION=.T.
 STATE=   1 DM2 WEIGHT=   1.00000

 CORRELATION ENERGY ANALYSIS      =    F

 SYMMETRIES FOR THE  12 CORE,   6 ACTIVE ARE

     CORE= A     A     A     A     A     A     A     A     A     A   
           A     A   

   ACTIVE= A     A     A     A     A     A   
 OPENING FILE DAFL30 WITH      81 LOGICAL RECORDS OF    9216 WORDS
 WITH A MAXIMUM OF         405 PHYSICAL RECORDS OF    2048 WORDS

          ------------------------------
          CASSCF INTEGRAL TRANSFORMATION
          ------------------------------
 AO INTEGRALS WILL BE READ IN FROM DISK...

 NUMBER OF CORE MOLECULAR ORBITALS     =    12
 NUMBER OF OCCUPIED MOLECULAR ORBITALS =    18
 TOTAL NUMBER OF MOLECULAR ORBITALS    =    96
 TOTAL NUMBER OF ATOMIC ORBITALS       =    96

 ----- CHOOSING THREE STEPS TRANSFORMATION -----
 NUMBER OF WORDS USED      =    2862913
 NUMBER OF WORDS AVAILABLE =   10000000
 NUMBER OF PASSES          =          1

 ----- NUCLEAR REPULSION ENERGY =    102.37733461
 ----- FROZEN CORE ENERGY       =   -132.47252227

 ... SYMMETRY ...           CPU =    0.00
 ... (PQ|RS) -> (PQ|KL) ... CPU =    0.25
 ... (PQ|KL) -> (IJ|KL) ... CPU =    0.00

 NUMBER OF (PQ|KL) INTEGRALS WRITTEN      56574
 NUMBER OF (IJ|KL) INTEGRALS WRITTEN         65
 ..... END OF CAS INTEGRAL TRANSFORMATION .....
 STEP CPU TIME =     0.26 TOTAL CPU TIME =        0.9 (    0.0 MIN)
 TOTAL WALL CLOCK TIME=        0.9 SECONDS, CPU UTILIZATION IS  97.80%

     --------------------------------------------------
          AMES LABORATORY DETERMINANTAL FULL CI
     PROGRAM WRITTEN BY JOE IVANIC AND KLAUS RUEDENBERG
     --------------------------------------------------

 THE NUMBER OF DETERMINANTS HAVING SPACE SYMMETRY A  
 IN POINT GROUP C1   WITH SZ=  0.0 IS            400
 WHICH INCLUDES            175 CSFS WITH S=  0.0
 WHICH INCLUDES            189 CSFS WITH S=  1.0
 WHICH INCLUDES             35 CSFS WITH S=  2.0
 WHICH INCLUDES              1 CSFS WITH S=  3.0
 THE DETERMINANT FULL CI REQUIRES          188576 WORDS
 INITIAL CI VECTOR GUESS TIME  :          0.0
 INITIAL FULL CI ITERATION TIME:          0.0

 ITERATION      ENERGY           GRADIENT
     0      -36.4568927851     0.04640191
     1      -36.4581438617     0.01159942
     2      -36.4582332606     0.00385646
     3      -36.4582447927     0.00090925
     4      -36.4582458478     0.00039861
     5      -36.4582459942     0.00014408
     6      -36.4582460149     0.00003074
     7      -36.4582460158     0.00000830

 CONVERGED STATE    1 ENERGY=      -36.4582460158 IN    7 ITERS

 ALL STATES CONVERGED.

 CI EIGENVECTORS WILL BE LABELED IN GROUP=C1      
 PRINTING CI COEFFICIENTS LARGER THAN 5.000E-02

 STATE   1  ENERGY=       -36.4582460158  S=  0.00  SZ=  0.00  SPACE SYM=A   

 ALPHA  | BETA   | CI COEFFICIENT
--------|--------|---------------
 111000 | 111000 |   0.9433390078
 101100 | 101100 |  -0.1433193322
 110010 | 110010 |  -0.1433130951
 110100 | 101010 |   0.0929009306
 101010 | 110100 |   0.0929009306
 111000 | 100110 |   0.0793338321
 100110 | 111000 |   0.0793338321
 101001 | 011100 |   0.0625198704
 011100 | 101001 |   0.0625198704
 110001 | 011010 |  -0.0625197449
 011010 | 110001 |  -0.0625197449
 ..... DONE WITH DETERMINANT CI COMPUTATION .....
 STEP CPU TIME =     0.04 TOTAL CPU TIME =        0.9 (    0.0 MIN)
 TOTAL WALL CLOCK TIME=        1.0 SECONDS, CPU UTILIZATION IS  96.88%

     --------------------------------------------------
      ONE AND TWO PARTICLE DENSITY MATRIX COMPUTATION
     PROGRAM WRITTEN BY JOE IVANIC AND KLAUS RUEDENBERG
     --------------------------------------------------

      31985 WORDS WILL BE USED TO FORM THE DENSITIES
 THE DENSITIES ARE STATE AVERAGED OVER   1 ROOT(S)
 STATE=   1   ENERGY=      -36.4582460158   WEIGHT= 1.00000   S=  0.00
 SIEVING THE A    SYMMETRY NONZERO DENSITY ELEMENTS IN GROUP C1      
         71 NONZERO DM2 ELEMENTS WRITTEN IN       1 RECORDS TO FILE 15
 ..... DONE WITH 1 AND 2 PARTICLE DENSITY MATRIX .....
 STEP CPU TIME =     0.00 TOTAL CPU TIME =        0.9 (    0.0 MIN)
 TOTAL WALL CLOCK TIME=        1.0 SECONDS, CPU UTILIZATION IS  96.88%

          --------------------------------------
          APPROXIMATE SECOND-ORDER MCSCF PROGRAM
          --------------------------------------
          PROGRAM WRITTEN BY G.CHABAN, A.MARQUEZ, AND M.DUPUIS

  NUMBER OF WORDS NEEDED     =     183234
  NUMBER AVAILABLE           =   10000000

 ----- GAMMA(IJKL)*(PQ|KL) PRODUCTS ----- CPU TIME =      0.010
 ----- ORBITAL SYMMETRY             ----- CPU TIME =      0.000
 ----- FOCK OPERATORS CONSTRUCTION  ----- CPU TIME =      0.070
 ----- WARNING : CORE-ACTIVE GAP    =    0.00978
     MICIT =   1 ASYMM =    0.022371 ROTMAX =    0.012073
 ----- EFFECTIVE FOCK + ROTATE ORBS ----- CPU TIME =      0.010
     MICIT =   2 ASYMM =    0.013879 ROTMAX =    0.003562
     MICIT =   3 ASYMM =    0.012202 ROTMAX =    0.006555
     MICIT =   4 ASYMM =    0.010139 ROTMAX =    0.009347
     MICIT =   5 ASYMM =    0.008403 ROTMAX =    0.009971
 ..... DONE WITH CASSCF ORBITAL UPDATE .....
 STEP CPU TIME =     0.13 TOTAL CPU TIME =        1.1 (    0.0 MIN)
 TOTAL WALL CLOCK TIME=        1.1 SECONDS, CPU UTILIZATION IS  97.25%

 ITER     TOTAL ENERGY      DEL(E)  LAGRANGIAN ASYMMETRY   SQCDF  MICIT   DAMP
   1      -36.458246016 -0.458246016  0.022371   32   14 1.207E-02  5   0.0000
       ----------START APPROXIMATE SECOND ORDER MCSCF----------
   2      -36.460271637 -0.002025622  0.005021   32   14 4.453E-03  1   0.0000
   3      -36.460878689 -0.000607052  0.003831   33   15 6.019E-04  1   0.0000
   4      -36.460943375 -0.000064686  0.000982   21    6 8.356E-06  1   0.0000
   5      -36.460948333 -0.000004958  0.000271   60   14 2.244E-06  1   0.0000
   6      -36.460948858 -0.000000525  0.000060   45   10 4.897E-08  1   0.0000
   7      -36.460948884 -0.000000025  0.000010   27    9 1.772E-09  1   0.0000
   8      -36.460948885 -0.000000001  0.000003   25   13 2.316E-10  1   0.0000

          --------------------
          LAGRANGIAN CONVERGED
          --------------------

 FINAL MCSCF ENERGY IS      -36.4609488852 AFTER   8 ITERATIONS

 -MCCI- BASED ON OPTIMIZED ORBITALS
 ----------------------------------

 PLEASE NOTE: IF THE ACTIVE ORBITALS ARE CANONICALIZED BELOW,
 THE FOLLOWING CI EXPANSION COEFFICIENTS AND THE DENSITY DO NOT
 CORRESPOND TO THE PRINTED ORBITALS.  THE PRINTED EXPANSIONS MATCH
 THE ORBITALS USED DURING THE LAST ITERATION.  IF YOU WISH TO SEE
 CI EXPANSIONS BASED ON THE CANONICAL (OR NATURAL) ORBITALS, YOU
 MUST RUN A CI CALCULATION WITH THAT ORBITAL CHOICE READ IN $VEC.

 CI EIGENVECTORS WILL BE LABELED IN GROUP=C1      
 PRINTING CI COEFFICIENTS LARGER THAN 5.000E-02

 STATE   1  ENERGY=       -36.4609488852  S=  0.00  SZ=  0.00  SPACE SYM=A   

 ALPHA  | BETA   | CI COEFFICIENT
--------|--------|---------------
 111000 | 111000 |   0.9404453596
 110010 | 110010 |  -0.1477841229
 101100 | 101100 |  -0.1477841149
 110100 | 101010 |   0.0966037198
 101010 | 110100 |   0.0966037198
 111000 | 100110 |   0.0788261535
 100110 | 111000 |   0.0788261535
 110001 | 011010 |  -0.0641568295
 011010 | 110001 |  -0.0641568295
 101001 | 011100 |   0.0641568259
 011100 | 101001 |   0.0641568259

 DENSITY MATRIX OVER ACTIVE MO-S

             1           2           3           4           5

    1    1.9599079
    2    0.0000000   1.9004452
    3   -0.0000000   0.0000000   1.9004452
    4    0.0000000  -0.0000000  -0.0000000   0.1009666
    5   -0.0000000   0.0000000   0.0000000  -0.0000000   0.1009666
    6   -0.0000000  -0.0000000  -0.0000000  -0.0000000  -0.0000000

             6

    6    0.0372686

 FORMING THE "STANDARD FOCK OPERATOR" USING INTEGRALS FROM DISK...
    12 FILLED,    6 ACTIVE, AND   78 VIRTUAL ORBITALS  WILL BE CANONICALIZED

          ----------------------
          MCSCF NATURAL ORBITALS
          ----------------------

                      1          2          3          4          5
                   -1.1414    -1.0092    -1.0092    -0.8165    -0.8165
                     A          A          A          A          A   
    1  C  1  S    0.247917  -0.317426   0.172637   0.260571  -0.146565
    2  C  1  X   -0.032474   0.067300   0.087409   0.130152   0.156983
    3  C  1  Y   -0.056247  -0.003637  -0.069620  -0.001719  -0.131934
    4  C  1  Z   -0.000000   0.000000  -0.000000  -0.000000  -0.000000
    5  C  1  S    0.006243  -0.002436   0.001325  -0.167312   0.094109
    6  C  1  X   -0.000795  -0.016666   0.039437   0.104944  -0.019261
    7  C  1  Y   -0.001377  -0.058306   0.014175   0.142526  -0.103128
    8  C  1  Z   -0.000000   0.000000  -0.000000  -0.000000  -0.000000
    9  C  1 XX    0.013239  -0.019192   0.001134   0.004045  -0.012796
   10  C  1 YY    0.012871  -0.010114   0.014805   0.016756   0.001096
   11  C  1 ZZ   -0.001191  -0.000582   0.000317   0.000092  -0.000052
   12  C  1 XY   -0.000368  -0.001336  -0.005476   0.000724  -0.007421
   13  C  1 XZ   -0.000000   0.000000  -0.000000  -0.000000  -0.000000
   14  C  1 YZ   -0.000000   0.000000  -0.000000  -0.000000  -0.000000
   15  C  2  S    0.247917  -0.308221  -0.188580  -0.257215  -0.152379
   16  C  2  X    0.032474  -0.071665   0.083868   0.133644  -0.154021
   17  C  2  Y   -0.056247  -0.007178   0.069345   0.004680  -0.131862
   18  C  2  Z   -0.000000   0.000000  -0.000000  -0.000000  -0.000000
   19  C  2  S    0.006243  -0.002366  -0.001447   0.165157   0.097842
   20  C  2  X    0.000795   0.014635   0.040234   0.104485   0.021612
   21  C  2  Y   -0.001377  -0.057508  -0.017126  -0.140175  -0.106302
   22  C  2  Z   -0.000000   0.000000  -0.000000  -0.000000  -0.000000
   23  C  2 XX    0.013239  -0.019109  -0.002110  -0.003757  -0.012883
   24  C  2 YY    0.012871  -0.009347  -0.015301  -0.016777   0.000719
   25  C  2 ZZ   -0.001191  -0.000565  -0.000346  -0.000091  -0.000054
   26  C  2 XY    0.000368   0.001613  -0.005401   0.000557   0.007435
   27  C  2 XZ   -0.000000   0.000000  -0.000000  -0.000000  -0.000000
   28  C  2 YZ   -0.000000   0.000000  -0.000000  -0.000000  -0.000000
   29  C  3  S    0.247917   0.009205  -0.361217  -0.003356   0.298944
   30  C  3  X    0.064949   0.000884  -0.034708   0.000819  -0.072952
   31  C  3  Y    0.000000  -0.125754  -0.003205  -0.231653  -0.002601
   32  C  3  Z   -0.000000   0.000000  -0.000000  -0.000000  -0.000000
   33  C  3  S    0.006243   0.000071  -0.002773   0.002155  -0.191951
   34  C  3  X    0.001590  -0.001706   0.066943   0.002266  -0.201808
   35  C  3  Y    0.000000  -0.030800  -0.000785  -0.040021  -0.000449
   36  C  3  Z   -0.000000   0.000000  -0.000000  -0.000000  -0.000000
   37  C  3 XX    0.012687   0.000388  -0.015232  -0.000182   0.016201
   38  C  3 YY    0.013423   0.000462  -0.018117  -0.000086   0.007664
   39  C  3 ZZ   -0.001191   0.000017  -0.000662  -0.000001   0.000105
   40  C  3 XY    0.000000  -0.010895  -0.000278  -0.012225  -0.000137
   41  C  3 XZ   -0.000000   0.000000  -0.000000  -0.000000  -0.000000
   42  C  3 YZ   -0.000000   0.000000  -0.000000  -0.000000  -0.000000
   43  C  4  S    0.247917   0.317426  -0.172637   0.260571  -0.146565
   44  C  4  X    0.032474   0.067300   0.087409  -0.130152  -0.156983
   45  C  4  Y    0.056247  -0.003637  -0.069620   0.001719   0.131934
   46  C  4  Z   -0.000000   0.000000  -0.000000  -0.000000  -0.000000
   47  C  4  S    0.006243   0.002436  -0.001325  -0.167312   0.094109
   48  C  4  X    0.000795  -0.016666   0.039437  -0.104944   0.019261
   49  C  4  Y    0.001377  -0.058306   0.014175  -0.142526   0.103128
   50  C  4  Z   -0.000000   0.000000  -0.000000  -0.000000  -0.000000
   51  C  4 XX    0.013239   0.019192  -0.001134   0.004045  -0.012796
   52  C  4 YY    0.012871   0.010114  -0.014805   0.016756   0.001096
   53  C  4 ZZ   -0.001191   0.000582  -0.000317   0.000092  -0.000052
   54  C  4 XY   -0.000368   0.001336   0.005476   0.000724  -0.007421
   55  C  4 XZ   -0.000000   0.000000  -0.000000  -0.000000  -0.000000
   56  C  4 YZ   -0.000000   0.000000  -0.000000  -0.000000  -0.000000
   57  C  5  S    0.247917   0.308221   0.188580  -0.257215  -0.152379
   58  C  5  X   -0.032474  -0.071665   0.083868  -0.133644   0.154021
   59  C  5  Y    0.056247  -0.007178   0.069345  -0.004680   0.131862
   60  C  5  Z   -0.000000   0.000000  -0.000000  -0.000000  -0.000000
   61  C  5  S    0.006243   0.002366   0.001447   0.165157   0.097842
   62  C  5  X   -0.000795   0.014635   0.040234  -0.104485  -0.021612
   63  C  5  Y    0.001377  -0.057508  -0.017126   0.140175   0.106302
   64  C  5  Z   -0.000000   0.000000  -0.000000  -0.000000  -0.000000
   65  C  5 XX    0.013239   0.019109   0.002110  -0.003757  -0.012883
   66  C  5 YY    0.012871   0.009347   0.015301  -0.016777   0.000719
   67  C  5 ZZ   -0.001191   0.000565   0.000346  -0.000091  -0.000054
   68  C  5 XY    0.000368  -0.001613   0.005401   0.000557   0.007435
   69  C  5 XZ   -0.000000   0.000000  -0.000000  -0.000000  -0.000000
   70  C  5 YZ   -0.000000   0.000000  -0.000000  -0.000000  -0.000000
   71  C  6  S    0.247917  -0.009205   0.361217  -0.003356   0.298944
   72  C  6  X   -0.064949   0.000884  -0.034708  -0.000819   0.072952
   73  C  6  Y   -0.000000  -0.125754  -0.003205   0.231653   0.002601
   74  C  6  Z   -0.000000   0.000000  -0.000000  -0.000000  -0.000000
   75  C  6  S    0.006243  -0.000071   0.002773   0.002155  -0.191951
   76  C  6  X   -0.001590  -0.001706   0.066943  -0.002266   0.201808
   77  C  6  Y   -0.000000  -0.030800  -0.000785   0.040021   0.000449
   78  C  6  Z   -0.000000   0.000000  -0.000000  -0.000000  -0.000000
   79  C  6 XX    0.012687  -0.000388   0.015232  -0.000182   0.016201
   80  C  6 YY    0.013423  -0.000462   0.018117  -0.000086   0.007664
   81  C  6 ZZ   -0.001191  -0.000017   0.000662  -0.000001   0.000105
   82  C  6 XY    0.000000   0.010895   0.000278  -0.012225  -0.000137
   83  C  6 XZ   -0.000000   0.000000  -0.000000  -0.000000  -0.000000
   84  C  6 YZ   -0.000000   0.000000  -0.000000  -0.000000  -0.000000
   85  H  7  S    0.040078  -0.078739   0.042824   0.123088  -0.069234
   86  H  7  S    0.015276   0.027504  -0.014959  -0.049152   0.027647
   87  H  8  S    0.040078  -0.076456  -0.046778  -0.121503  -0.071980
   88  H  8  S    0.015276   0.026707   0.016340   0.048519   0.028743
   89  H  9  S    0.040078   0.002283  -0.089602  -0.001585   0.141215
   90  H  9  S    0.015276  -0.000798   0.031299   0.000633  -0.056390
   91  H 10  S    0.040078   0.078739  -0.042824   0.123088  -0.069234
   92  H 10  S    0.015276  -0.027504   0.014959  -0.049152   0.027647
   93  H 11  S    0.040078   0.076456   0.046778  -0.121503  -0.071980
   94  H 11  S    0.015276  -0.026707  -0.016340   0.048519   0.028743
   95  H 12  S    0.040078  -0.002283   0.089602  -0.001585   0.141215
   96  H 12  S    0.015276   0.000798  -0.031299   0.000633  -0.056390

                      6          7          8          9         10
                   -0.6952    -0.6388    -0.6012    -0.5767    -0.5767
                     A          A          A          A          A   
    1  C  1  S    0.020278   0.172628   0.000000  -0.054989  -0.031980
    2  C  1  X    0.112386   0.076243   0.269611   0.190659   0.011872
    3  C  1  Y    0.194659   0.132058  -0.155660   0.230862   0.191425
    4  C  1  Z    0.000000   0.000000  -0.000000   0.000000  -0.000000
    5  C  1  S    0.019573  -0.236834   0.000000  -0.096357  -0.056038
    6  C  1  X    0.012627   0.095468   0.031866  -0.019684   0.058271
    7  C  1  Y    0.021870   0.165356  -0.018398   0.035877  -0.019387
    8  C  1  Z    0.000000   0.000000  -0.000000   0.000000  -0.000000
    9  C  1 XX    0.001955  -0.000240  -0.008671  -0.008758   0.008308
   10  C  1 YY    0.004105   0.014968   0.008671   0.013571  -0.005509
   11  C  1 ZZ    0.000883   0.000717  -0.000000  -0.000708  -0.000412
   12  C  1 XY    0.002150   0.015208  -0.005781   0.006798   0.012888
   13  C  1 XZ    0.000000   0.000000  -0.000000   0.000000  -0.000000
   14  C  1 YZ    0.000000   0.000000  -0.000000   0.000000  -0.000000
   15  C  2  S    0.020278  -0.172628  -0.000000  -0.055190   0.031632
   16  C  2  X   -0.112386   0.076244  -0.269611  -0.190730   0.010667
   17  C  2  Y    0.194659  -0.132058  -0.155660   0.232066  -0.189964
   18  C  2  Z    0.000000   0.000000  -0.000000   0.000000  -0.000000
   19  C  2  S    0.019573   0.236834   0.000000  -0.096708   0.055428
   20  C  2  X   -0.012627   0.095468  -0.031866   0.019316   0.058394
   21  C  2  Y    0.021870  -0.165356  -0.018398   0.035754   0.019613
   22  C  2  Z    0.000000   0.000000  -0.000000   0.000000  -0.000000
   23  C  2 XX    0.001955   0.000240  -0.008671  -0.008705  -0.008363
   24  C  2 YY    0.004105  -0.014968   0.008671   0.013536   0.005595
   25  C  2 ZZ    0.000883  -0.000717  -0.000000  -0.000711   0.000407
   26  C  2 XY   -0.002150   0.015208   0.005781  -0.006879   0.012845
   27  C  2 XZ    0.000000   0.000000  -0.000000   0.000000  -0.000000
   28  C  2 YZ    0.000000   0.000000  -0.000000   0.000000  -0.000000
   29  C  3  S    0.020278   0.172628   0.000000  -0.000201   0.063612
   30  C  3  X   -0.224773  -0.152487   0.000000  -0.001078   0.341562
   31  C  3  Y    0.000000  -0.000000   0.311320  -0.098828  -0.000312
   32  C  3  Z    0.000000   0.000000  -0.000000   0.000000  -0.000000
   33  C  3  S    0.019573  -0.236834  -0.000000  -0.000352   0.111466
   34  C  3  X   -0.025253  -0.190937   0.000000  -0.000078   0.024557
   35  C  3  Y   -0.000000   0.000000   0.036796   0.069591   0.000220
   36  C  3  Z    0.000000   0.000000  -0.000000   0.000000  -0.000000
   37  C  3 XX    0.005179   0.022572   0.000000   0.000048  -0.015139
   38  C  3 YY    0.000880  -0.007844   0.000000  -0.000030   0.009572
   39  C  3 ZZ    0.000883   0.000717   0.000000  -0.000003   0.000819
   40  C  3 XY    0.000000   0.000000   0.011562  -0.015446  -0.000049
   41  C  3 XZ    0.000000   0.000000  -0.000000   0.000000  -0.000000
   42  C  3 YZ    0.000000   0.000000  -0.000000   0.000000  -0.000000
   43  C  4  S    0.020278  -0.172628  -0.000000   0.054989   0.031980
   44  C  4  X   -0.112386   0.076243   0.269611   0.190659   0.011872
   45  C  4  Y   -0.194659   0.132058  -0.155660   0.230862   0.191425
   46  C  4  Z    0.000000   0.000000  -0.000000   0.000000  -0.000000
   47  C  4  S    0.019573   0.236834  -0.000000   0.096357   0.056038
   48  C  4  X   -0.012627   0.095468   0.031866  -0.019684   0.058271
   49  C  4  Y   -0.021870   0.165356  -0.018398   0.035877  -0.019387
   50  C  4  Z    0.000000   0.000000  -0.000000   0.000000  -0.000000
   51  C  4 XX    0.001955   0.000240   0.008671   0.008758  -0.008308
   52  C  4 YY    0.004105  -0.014968  -0.008671  -0.013571   0.005509
   53  C  4 ZZ    0.000883  -0.000717   0.000000   0.000708   0.000412
   54  C  4 XY    0.002150  -0.015208   0.005781  -0.006798  -0.012888
   55  C  4 XZ    0.000000   0.000000  -0.000000   0.000000  -0.000000
   56  C  4 YZ    0.000000   0.000000  -0.000000   0.000000  -0.000000
   57  C  5  S    0.020278   0.172628   0.000000   0.055190  -0.031632
   58  C  5  X    0.112386   0.076244  -0.269611  -0.190730   0.010667
   59  C  5  Y   -0.194659  -0.132058  -0.155660   0.232066  -0.189964
   60  C  5  Z    0.000000   0.000000  -0.000000   0.000000  -0.000000
   61  C  5  S    0.019573  -0.236834  -0.000000   0.096708  -0.055428
   62  C  5  X    0.012627   0.095468  -0.031866   0.019316   0.058394
   63  C  5  Y   -0.021870  -0.165356  -0.018398   0.035754   0.019613
   64  C  5  Z    0.000000   0.000000  -0.000000   0.000000  -0.000000
   65  C  5 XX    0.001955  -0.000240   0.008671   0.008705   0.008363
   66  C  5 YY    0.004105   0.014968  -0.008671  -0.013536  -0.005595
   67  C  5 ZZ    0.000883   0.000717   0.000000   0.000711  -0.000407
   68  C  5 XY   -0.002150  -0.015208  -0.005781   0.006879  -0.012845
   69  C  5 XZ    0.000000   0.000000  -0.000000   0.000000  -0.000000
   70  C  5 YZ    0.000000   0.000000  -0.000000   0.000000  -0.000000
   71  C  6  S    0.020278  -0.172628  -0.000000   0.000201  -0.063612
   72  C  6  X    0.224773  -0.152487   0.000000  -0.001078   0.341562
   73  C  6  Y   -0.000000  -0.000000   0.311320  -0.098828  -0.000312
   74  C  6  Z    0.000000   0.000000  -0.000000   0.000000  -0.000000
   75  C  6  S    0.019573   0.236834   0.000000   0.000352  -0.111466
   76  C  6  X    0.025253  -0.190937   0.000000  -0.000078   0.024557
   77  C  6  Y    0.000000   0.000000   0.036796   0.069591   0.000220
   78  C  6  Z    0.000000   0.000000  -0.000000   0.000000  -0.000000
   79  C  6 XX    0.005179  -0.022572  -0.000000  -0.000048   0.015139
   80  C  6 YY    0.000880   0.007844  -0.000000   0.000030  -0.009572
   81  C  6 ZZ    0.000883  -0.000717  -0.000000   0.000003  -0.000819
   82  C  6 XY    0.000000  -0.000000  -0.011562   0.015446   0.000049
   83  C  6 XZ    0.000000   0.000000  -0.000000   0.000000  -0.000000
   84  C  6 YZ    0.000000   0.000000  -0.000000   0.000000  -0.000000
   85  H  7  S    0.138814   0.176690   0.000000   0.185800   0.108055
   86  H  7  S    0.037332  -0.000017   0.000000   0.094820   0.055144
   87  H  8  S    0.138814  -0.176690   0.000000   0.186478  -0.106880
   88  H  8  S    0.037332   0.000017  -0.000000   0.095166  -0.054544
   89  H  9  S    0.138814   0.176690   0.000000   0.000679  -0.214935
   90  H  9  S    0.037332  -0.000017   0.000000   0.000346  -0.109688
   91  H 10  S    0.138814  -0.176690  -0.000000  -0.185800  -0.108055
   92  H 10  S    0.037332   0.000017  -0.000000  -0.094820  -0.055144
   93  H 11  S    0.138814   0.176690  -0.000000  -0.186478   0.106880
   94  H 11  S    0.037332  -0.000017   0.000000  -0.095166   0.054544
   95  H 12  S    0.138814  -0.176690  -0.000000  -0.000679   0.214935
   96  H 12  S    0.037332   0.000017  -0.000000  -0.000346   0.109688

                     11         12         13         14         15
                   -0.4839    -0.4839     1.9599     1.9004     1.9004
                     A          A          A          A          A   
    1  C  1  S   -0.016729  -0.009695  -0.000000  -0.000000   0.000000
    2  C  1  X   -0.017347   0.290893  -0.000000  -0.000000   0.000000
    3  C  1  Y    0.271466  -0.016429  -0.000000  -0.000000   0.000000
    4  C  1  Z   -0.000000  -0.000000   0.260448  -0.344183   0.201577
    5  C  1  S    0.046251   0.026804  -0.000000  -0.000000   0.000000
    6  C  1  X   -0.030968   0.030358  -0.000000  -0.000000   0.000000
    7  C  1  Y   -0.005243  -0.030927  -0.000000  -0.000000   0.000000
    8  C  1  Z   -0.000000  -0.000000   0.077116  -0.158701   0.092946
    9  C  1 XX   -0.000533  -0.015166  -0.000000  -0.000000   0.000000
   10  C  1 YY    0.005603   0.018104  -0.000000  -0.000000   0.000000
   11  C  1 ZZ   -0.000431  -0.000250  -0.000000  -0.000000   0.000000
   12  C  1 XY    0.023324   0.003612  -0.000000  -0.000000   0.000000
   13  C  1 XZ   -0.000000  -0.000000  -0.005652   0.012791   0.013510
   14  C  1 YZ   -0.000000  -0.000000  -0.009790   0.001005  -0.012713
   15  C  2  S    0.016760  -0.009640  -0.000000  -0.000000   0.000000
   16  C  2  X   -0.016397  -0.290948  -0.000000  -0.000000   0.000000
   17  C  2  Y   -0.271411  -0.017315  -0.000000  -0.000000   0.000000
   18  C  2  Z   -0.000000  -0.000000   0.260448  -0.346662  -0.197283
   19  C  2  S   -0.046338   0.026652  -0.000000  -0.000000   0.000000
   20  C  2  X   -0.030869  -0.030459  -0.000000  -0.000000   0.000000
   21  C  2  Y    0.005344  -0.030910  -0.000000  -0.000000   0.000000
   22  C  2  Z   -0.000000  -0.000000   0.077116  -0.159844  -0.090966
   23  C  2 XX    0.000583  -0.015165  -0.000000  -0.000000   0.000000
   24  C  2 YY   -0.005662   0.018086  -0.000000  -0.000000   0.000000
   25  C  2 ZZ    0.000432  -0.000249  -0.000000  -0.000000   0.000000
   26  C  2 XY    0.023336  -0.003536  -0.000000  -0.000000   0.000000
   27  C  2 XZ   -0.000000  -0.000000   0.005652  -0.012622   0.013668
   28  C  2 YZ   -0.000000  -0.000000  -0.009790   0.001163   0.012700
   29  C  3  S   -0.000032   0.019335  -0.000000  -0.000000   0.000000
   30  C  3  X   -0.000427   0.261697  -0.000000  -0.000000   0.000000
   31  C  3  Y    0.300662   0.000491  -0.000000  -0.000000   0.000000
   32  C  3  Z   -0.000000  -0.000000   0.260448  -0.002480  -0.398860
   33  C  3  S    0.000087  -0.053456  -0.000000  -0.000000   0.000000
   34  C  3  X    0.000038  -0.023144  -0.000000  -0.000000   0.000000
   35  C  3  Y    0.048260   0.000079  -0.000000  -0.000000   0.000000
   36  C  3  Z   -0.000000  -0.000000   0.077116  -0.001143  -0.183912
   37  C  3 XX    0.000041  -0.024921  -0.000000  -0.000000   0.000000
   38  C  3 YY   -0.000031   0.019062  -0.000000  -0.000000   0.000000
   39  C  3 ZZ   -0.000001   0.000499  -0.000000  -0.000000   0.000000
   40  C  3 XY    0.017140   0.000028  -0.000000  -0.000000   0.000000
   41  C  3 XZ   -0.000000  -0.000000   0.011305  -0.000052  -0.008420
   42  C  3 YZ   -0.000000  -0.000000   0.000000  -0.020925   0.000130
   43  C  4  S   -0.016729  -0.009695  -0.000000  -0.000000   0.000000
   44  C  4  X    0.017347  -0.290893  -0.000000  -0.000000   0.000000
   45  C  4  Y   -0.271466   0.016429  -0.000000  -0.000000   0.000000
   46  C  4  Z   -0.000000  -0.000000   0.260448   0.344183  -0.201577
   47  C  4  S    0.046251   0.026804  -0.000000  -0.000000   0.000000
   48  C  4  X    0.030968  -0.030358  -0.000000  -0.000000   0.000000
   49  C  4  Y    0.005243   0.030927  -0.000000  -0.000000   0.000000
   50  C  4  Z   -0.000000  -0.000000   0.077116   0.158701  -0.092946
   51  C  4 XX   -0.000533  -0.015166  -0.000000  -0.000000   0.000000
   52  C  4 YY    0.005603   0.018104  -0.000000  -0.000000   0.000000
   53  C  4 ZZ   -0.000431  -0.000250  -0.000000  -0.000000   0.000000
   54  C  4 XY    0.023324   0.003612  -0.000000  -0.000000   0.000000
   55  C  4 XZ   -0.000000  -0.000000   0.005652   0.012791   0.013510
   56  C  4 YZ   -0.000000  -0.000000   0.009790   0.001005  -0.012713
   57  C  5  S    0.016760  -0.009640  -0.000000  -0.000000   0.000000
   58  C  5  X    0.016397   0.290948  -0.000000  -0.000000   0.000000
   59  C  5  Y    0.271411   0.017315  -0.000000  -0.000000   0.000000
   60  C  5  Z   -0.000000  -0.000000   0.260448   0.346662   0.197283
   61  C  5  S   -0.046338   0.026652  -0.000000  -0.000000   0.000000
   62  C  5  X    0.030869   0.030459  -0.000000  -0.000000   0.000000
   63  C  5  Y   -0.005344   0.030910  -0.000000  -0.000000   0.000000
   64  C  5  Z   -0.000000  -0.000000   0.077116   0.159844   0.090966
   65  C  5 XX    0.000583  -0.015165  -0.000000  -0.000000   0.000000
   66  C  5 YY   -0.005662   0.018086  -0.000000  -0.000000   0.000000
   67  C  5 ZZ    0.000432  -0.000249  -0.000000  -0.000000   0.000000
   68  C  5 XY    0.023336  -0.003536  -0.000000  -0.000000   0.000000
   69  C  5 XZ   -0.000000  -0.000000  -0.005652  -0.012622   0.013668
   70  C  5 YZ   -0.000000  -0.000000   0.009790   0.001163   0.012700
   71  C  6  S   -0.000032   0.019335  -0.000000  -0.000000   0.000000
   72  C  6  X    0.000427  -0.261697  -0.000000  -0.000000   0.000000
   73  C  6  Y   -0.300662  -0.000491  -0.000000  -0.000000   0.000000
   74  C  6  Z   -0.000000  -0.000000   0.260448   0.002480   0.398860
   75  C  6  S    0.000087  -0.053456  -0.000000  -0.000000   0.000000
   76  C  6  X   -0.000038   0.023144  -0.000000  -0.000000   0.000000
   77  C  6  Y   -0.048260  -0.000079  -0.000000  -0.000000   0.000000
   78  C  6  Z   -0.000000  -0.000000   0.077116   0.001143   0.183912
   79  C  6 XX    0.000041  -0.024921  -0.000000  -0.000000   0.000000
   80  C  6 YY   -0.000031   0.019062  -0.000000  -0.000000   0.000000
   81  C  6 ZZ   -0.000001   0.000499  -0.000000  -0.000000   0.000000
   82  C  6 XY    0.017140   0.000028  -0.000000  -0.000000   0.000000
   83  C  6 XZ   -0.000000  -0.000000  -0.011305  -0.000052  -0.008420
   84  C  6 YZ   -0.000000  -0.000000  -0.000000  -0.020925   0.000130
   85  H  7  S    0.187245   0.108514  -0.000000  -0.000000   0.000000
   86  H  7  S    0.127655   0.073980  -0.000000  -0.000000   0.000000
   87  H  8  S   -0.187599   0.107902  -0.000000  -0.000000   0.000000
   88  H  8  S   -0.127896   0.073562  -0.000000  -0.000000   0.000000
   89  H  9  S    0.000353  -0.216416  -0.000000  -0.000000   0.000000
   90  H  9  S    0.000241  -0.147542  -0.000000  -0.000000   0.000000
   91  H 10  S    0.187245   0.108514  -0.000000  -0.000000   0.000000
   92  H 10  S    0.127655   0.073980  -0.000000  -0.000000   0.000000
   93  H 11  S   -0.187599   0.107902  -0.000000  -0.000000   0.000000
   94  H 11  S   -0.127896   0.073562  -0.000000  -0.000000   0.000000
   95  H 12  S    0.000353  -0.216416  -0.000000  -0.000000   0.000000
   96  H 12  S    0.000241  -0.147542  -0.000000  -0.000000   0.000000

                     16         17         18
                    0.1010     0.1010     0.0373
                     A          A          A   
    1  C  1  S   -0.000000  -0.000000  -0.000000
    2  C  1  X   -0.000000  -0.000000  -0.000000
    3  C  1  Y   -0.000000  -0.000000  -0.000000
    4  C  1  Z   -0.278295  -0.473257  -0.467305
    5  C  1  S   -0.000000  -0.000000  -0.000000
    6  C  1  X   -0.000000  -0.000000  -0.000000
    7  C  1  Y   -0.000000  -0.000000  -0.000000
    8  C  1  Z   -0.131416  -0.223481  -0.211148
    9  C  1 XX   -0.000000  -0.000000  -0.000000
   10  C  1 YY   -0.000000  -0.000000  -0.000000
   11  C  1 ZZ   -0.000000  -0.000000  -0.000000
   12  C  1 XY   -0.000000  -0.000000  -0.000000
   13  C  1 XZ    0.021016  -0.012635  -0.001632
   14  C  1 YZ   -0.012413   0.006819  -0.002826
   15  C  2  S   -0.000000  -0.000000  -0.000000
   16  C  2  X   -0.000000  -0.000000  -0.000000
   17  C  2  Y   -0.000000  -0.000000  -0.000000
   18  C  2  Z   -0.270705   0.477639   0.467305
   19  C  2  S   -0.000000  -0.000000  -0.000000
   20  C  2  X   -0.000000  -0.000000  -0.000000
   21  C  2  Y   -0.000000  -0.000000  -0.000000
   22  C  2  Z   -0.127832   0.225550   0.211148
   23  C  2 XX   -0.000000  -0.000000  -0.000000
   24  C  2 YY   -0.000000  -0.000000  -0.000000
   25  C  2 ZZ   -0.000000  -0.000000  -0.000000
   26  C  2 XY   -0.000000  -0.000000  -0.000000
   27  C  2 XZ   -0.021215  -0.012298  -0.001632
   28  C  2 YZ   -0.012520  -0.006620   0.002826
   29  C  3  S   -0.000000  -0.000000  -0.000000
   30  C  3  X   -0.000000  -0.000000  -0.000000
   31  C  3  Y   -0.000000  -0.000000  -0.000000
   32  C  3  Z    0.549000  -0.004382  -0.467305
   33  C  3  S   -0.000000  -0.000000  -0.000000
   34  C  3  X   -0.000000  -0.000000  -0.000000
   35  C  3  Y   -0.000000  -0.000000  -0.000000
   36  C  3  Z    0.259248  -0.002069  -0.211148
   37  C  3 XX   -0.000000  -0.000000  -0.000000
   38  C  3 YY   -0.000000  -0.000000  -0.000000
   39  C  3 ZZ   -0.000000  -0.000000  -0.000000
   40  C  3 XY   -0.000000  -0.000000  -0.000000
   41  C  3 XZ   -0.000478   0.000004   0.003264
   42  C  3 YZ    0.000226   0.028313  -0.000000
   43  C  4  S   -0.000000  -0.000000  -0.000000
   44  C  4  X   -0.000000  -0.000000  -0.000000
   45  C  4  Y   -0.000000  -0.000000  -0.000000
   46  C  4  Z   -0.278295  -0.473257   0.467305
   47  C  4  S   -0.000000  -0.000000  -0.000000
   48  C  4  X   -0.000000  -0.000000  -0.000000
   49  C  4  Y   -0.000000  -0.000000  -0.000000
   50  C  4  Z   -0.131416  -0.223481   0.211148
   51  C  4 XX   -0.000000  -0.000000  -0.000000
   52  C  4 YY   -0.000000  -0.000000  -0.000000
   53  C  4 ZZ   -0.000000  -0.000000  -0.000000
   54  C  4 XY   -0.000000  -0.000000  -0.000000
   55  C  4 XZ   -0.021016   0.012635  -0.001632
   56  C  4 YZ    0.012413  -0.006819  -0.002826
   57  C  5  S   -0.000000  -0.000000  -0.000000
   58  C  5  X   -0.000000  -0.000000  -0.000000
   59  C  5  Y   -0.000000  -0.000000  -0.000000
   60  C  5  Z   -0.270705   0.477639  -0.467305
   61  C  5  S   -0.000000  -0.000000  -0.000000
   62  C  5  X   -0.000000  -0.000000  -0.000000
   63  C  5  Y   -0.000000  -0.000000  -0.000000
   64  C  5  Z   -0.127832   0.225550  -0.211148
   65  C  5 XX   -0.000000  -0.000000  -0.000000
   66  C  5 YY   -0.000000  -0.000000  -0.000000
   67  C  5 ZZ   -0.000000  -0.000000  -0.000000
   68  C  5 XY   -0.000000  -0.000000  -0.000000
   69  C  5 XZ    0.021215   0.012298  -0.001632
   70  C  5 YZ    0.012520   0.006620   0.002826
   71  C  6  S   -0.000000  -0.000000  -0.000000
   72  C  6  X   -0.000000  -0.000000  -0.000000
   73  C  6  Y   -0.000000  -0.000000  -0.000000
   74  C  6  Z    0.549000  -0.004382   0.467305
   75  C  6  S   -0.000000  -0.000000  -0.000000
   76  C  6  X   -0.000000  -0.000000  -0.000000
   77  C  6  Y   -0.000000  -0.000000  -0.000000
   78  C  6  Z    0.259248  -0.002069   0.211148
   79  C  6 XX   -0.000000  -0.000000  -0.000000
   80  C  6 YY   -0.000000  -0.000000  -0.000000
   81  C  6 ZZ   -0.000000  -0.000000  -0.000000
   82  C  6 XY   -0.000000  -0.000000  -0.000000
   83  C  6 XZ    0.000478  -0.000004   0.003264
   84  C  6 YZ   -0.000226  -0.028313  -0.000000
   85  H  7  S   -0.000000  -0.000000  -0.000000
   86  H  7  S   -0.000000  -0.000000  -0.000000
   87  H  8  S   -0.000000  -0.000000  -0.000000
   88  H  8  S   -0.000000  -0.000000  -0.000000
   89  H  9  S   -0.000000  -0.000000  -0.000000
   90  H  9  S   -0.000000  -0.000000  -0.000000
   91  H 10  S   -0.000000  -0.000000  -0.000000
   92  H 10  S   -0.000000  -0.000000  -0.000000
   93  H 11  S   -0.000000  -0.000000  -0.000000
   94  H 11  S   -0.000000  -0.000000  -0.000000
   95  H 12  S   -0.000000  -0.000000  -0.000000
   96  H 12  S   -0.000000  -0.000000  -0.000000

          ------------------------
          MCSCF OPTIMIZED ORBITALS
          ------------------------

                      1          2          3          4          5
                   -1.1414    -1.0092    -1.0092    -0.8165    -0.8165
                     A          A          A          A          A   
    1  C  1  S    0.247917  -0.317426   0.172637   0.260571  -0.146565
    2  C  1  X   -0.032474   0.067300   0.087409   0.130152   0.156983
    3  C  1  Y   -0.056247  -0.003637  -0.069620  -0.001719  -0.131934
    4  C  1  Z   -0.000000   0.000000  -0.000000  -0.000000  -0.000000
    5  C  1  S    0.006243  -0.002436   0.001325  -0.167312   0.094109
    6  C  1  X   -0.000795  -0.016666   0.039437   0.104944  -0.019261
    7  C  1  Y   -0.001377  -0.058306   0.014175   0.142526  -0.103128
    8  C  1  Z   -0.000000   0.000000  -0.000000  -0.000000  -0.000000
    9  C  1 XX    0.013239  -0.019192   0.001134   0.004045  -0.012796
   10  C  1 YY    0.012871  -0.010114   0.014805   0.016756   0.001096
   11  C  1 ZZ   -0.001191  -0.000582   0.000317   0.000092  -0.000052
   12  C  1 XY   -0.000368  -0.001336  -0.005476   0.000724  -0.007421
   13  C  1 XZ   -0.000000   0.000000  -0.000000  -0.000000  -0.000000
   14  C  1 YZ   -0.000000   0.000000  -0.000000  -0.000000  -0.000000
   15  C  2  S    0.247917  -0.308221  -0.188580  -0.257215  -0.152379
   16  C  2  X    0.032474  -0.071665   0.083868   0.133644  -0.154021
   17  C  2  Y   -0.056247  -0.007178   0.069345   0.004680  -0.131862
   18  C  2  Z   -0.000000   0.000000  -0.000000  -0.000000  -0.000000
   19  C  2  S    0.006243  -0.002366  -0.001447   0.165157   0.097842
   20  C  2  X    0.000795   0.014635   0.040234   0.104485   0.021612
   21  C  2  Y   -0.001377  -0.057508  -0.017126  -0.140175  -0.106302
   22  C  2  Z   -0.000000   0.000000  -0.000000  -0.000000  -0.000000
   23  C  2 XX    0.013239  -0.019109  -0.002110  -0.003757  -0.012883
   24  C  2 YY    0.012871  -0.009347  -0.015301  -0.016777   0.000719
   25  C  2 ZZ   -0.001191  -0.000565  -0.000346  -0.000091  -0.000054
   26  C  2 XY    0.000368   0.001613  -0.005401   0.000557   0.007435
   27  C  2 XZ   -0.000000   0.000000  -0.000000  -0.000000  -0.000000
   28  C  2 YZ   -0.000000   0.000000  -0.000000  -0.000000  -0.000000
   29  C  3  S    0.247917   0.009205  -0.361217  -0.003356   0.298944
   30  C  3  X    0.064949   0.000884  -0.034708   0.000819  -0.072952
   31  C  3  Y    0.000000  -0.125754  -0.003205  -0.231653  -0.002601
   32  C  3  Z   -0.000000   0.000000  -0.000000  -0.000000  -0.000000
   33  C  3  S    0.006243   0.000071  -0.002773   0.002155  -0.191951
   34  C  3  X    0.001590  -0.001706   0.066943   0.002266  -0.201808
   35  C  3  Y    0.000000  -0.030800  -0.000785  -0.040021  -0.000449
   36  C  3  Z   -0.000000   0.000000  -0.000000  -0.000000  -0.000000
   37  C  3 XX    0.012687   0.000388  -0.015232  -0.000182   0.016201
   38  C  3 YY    0.013423   0.000462  -0.018117  -0.000086   0.007664
   39  C  3 ZZ   -0.001191   0.000017  -0.000662  -0.000001   0.000105
   40  C  3 XY    0.000000  -0.010895  -0.000278  -0.012225  -0.000137
   41  C  3 XZ   -0.000000   0.000000  -0.000000  -0.000000  -0.000000
   42  C  3 YZ   -0.000000   0.000000  -0.000000  -0.000000  -0.000000
   43  C  4  S    0.247917   0.317426  -0.172637   0.260571  -0.146565
   44  C  4  X    0.032474   0.067300   0.087409  -0.130152  -0.156983
   45  C  4  Y    0.056247  -0.003637  -0.069620   0.001719   0.131934
   46  C  4  Z   -0.000000   0.000000  -0.000000  -0.000000  -0.000000
   47  C  4  S    0.006243   0.002436  -0.001325  -0.167312   0.094109
   48  C  4  X    0.000795  -0.016666   0.039437  -0.104944   0.019261
   49  C  4  Y    0.001377  -0.058306   0.014175  -0.142526   0.103128
   50  C  4  Z   -0.000000   0.000000  -0.000000  -0.000000  -0.000000
   51  C  4 XX    0.013239   0.019192  -0.001134   0.004045  -0.012796
   52  C  4 YY    0.012871   0.010114  -0.014805   0.016756   0.001096
   53  C  4 ZZ   -0.001191   0.000582  -0.000317   0.000092  -0.000052
   54  C  4 XY   -0.000368   0.001336   0.005476   0.000724  -0.007421
   55  C  4 XZ   -0.000000   0.000000  -0.000000  -0.000000  -0.000000
   56  C  4 YZ   -0.000000   0.000000  -0.000000  -0.000000  -0.000000
   57  C  5  S    0.247917   0.308221   0.188580  -0.257215  -0.152379
   58  C  5  X   -0.032474  -0.071665   0.083868  -0.133644   0.154021
   59  C  5  Y    0.056247  -0.007178   0.069345  -0.004680   0.131862
   60  C  5  Z   -0.000000   0.000000  -0.000000  -0.000000  -0.000000
   61  C  5  S    0.006243   0.002366   0.001447   0.165157   0.097842
   62  C  5  X   -0.000795   0.014635   0.040234  -0.104485  -0.021612
   63  C  5  Y    0.001377  -0.057508  -0.017126   0.140175   0.106302
   64  C  5  Z   -0.000000   0.000000  -0.000000  -0.000000  -0.000000
   65  C  5 XX    0.013239   0.019109   0.002110  -0.003757  -0.012883
   66  C  5 YY    0.012871   0.009347   0.015301  -0.016777   0.000719
   67  C  5 ZZ   -0.001191   0.000565   0.000346  -0.000091  -0.000054
   68  C  5 XY    0.000368  -0.001613   0.005401   0.000557   0.007435
   69  C  5 XZ   -0.000000   0.000000  -0.000000  -0.000000  -0.000000
   70  C  5 YZ   -0.000000   0.000000  -0.000000  -0.000000  -0.000000
   71  C  6  S    0.247917  -0.009205   0.361217  -0.003356   0.298944
   72  C  6  X   -0.064949   0.000884  -0.034708  -0.000819   0.072952
   73  C  6  Y   -0.000000  -0.125754  -0.003205   0.231653   0.002601
   74  C  6  Z   -0.000000   0.000000  -0.000000  -0.000000  -0.000000
   75  C  6  S    0.006243  -0.000071   0.002773   0.002155  -0.191951
   76  C  6  X   -0.001590  -0.001706   0.066943  -0.002266   0.201808
   77  C  6  Y   -0.000000  -0.030800  -0.000785   0.040021   0.000449
   78  C  6  Z   -0.000000   0.000000  -0.000000  -0.000000  -0.000000
   79  C  6 XX    0.012687  -0.000388   0.015232  -0.000182   0.016201
   80  C  6 YY    0.013423  -0.000462   0.018117  -0.000086   0.007664
   81  C  6 ZZ   -0.001191  -0.000017   0.000662  -0.000001   0.000105
   82  C  6 XY    0.000000   0.010895   0.000278  -0.012225  -0.000137
   83  C  6 XZ   -0.000000   0.000000  -0.000000  -0.000000  -0.000000
   84  C  6 YZ   -0.000000   0.000000  -0.000000  -0.000000  -0.000000
   85  H  7  S    0.040078  -0.078739   0.042824   0.123088  -0.069234
   86  H  7  S    0.015276   0.027504  -0.014959  -0.049152   0.027647
   87  H  8  S    0.040078  -0.076456  -0.046778  -0.121503  -0.071980
   88  H  8  S    0.015276   0.026707   0.016340   0.048519   0.028743
   89  H  9  S    0.040078   0.002283  -0.089602  -0.001585   0.141215
   90  H  9  S    0.015276  -0.000798   0.031299   0.000633  -0.056390
   91  H 10  S    0.040078   0.078739  -0.042824   0.123088  -0.069234
   92  H 10  S    0.015276  -0.027504   0.014959  -0.049152   0.027647
   93  H 11  S    0.040078   0.076456   0.046778  -0.121503  -0.071980
   94  H 11  S    0.015276  -0.026707  -0.016340   0.048519   0.028743
   95  H 12  S    0.040078  -0.002283   0.089602  -0.001585   0.141215
   96  H 12  S    0.015276   0.000798  -0.031299   0.000633  -0.056390

                      6          7          8          9         10
                   -0.6952    -0.6388    -0.6012    -0.5767    -0.5767
                     A          A          A          A          A   
    1  C  1  S    0.020278   0.172628   0.000000  -0.054989  -0.031980
    2  C  1  X    0.112386   0.076243   0.269611   0.190659   0.011872
    3  C  1  Y    0.194659   0.132058  -0.155660   0.230862   0.191425
    4  C  1  Z    0.000000   0.000000  -0.000000   0.000000  -0.000000
    5  C  1  S    0.019573  -0.236834   0.000000  -0.096357  -0.056038
    6  C  1  X    0.012627   0.095468   0.031866  -0.019684   0.058271
    7  C  1  Y    0.021870   0.165356  -0.018398   0.035877  -0.019387
    8  C  1  Z    0.000000   0.000000  -0.000000   0.000000  -0.000000
    9  C  1 XX    0.001955  -0.000240  -0.008671  -0.008758   0.008308
   10  C  1 YY    0.004105   0.014968   0.008671   0.013571  -0.005509
   11  C  1 ZZ    0.000883   0.000717  -0.000000  -0.000708  -0.000412
   12  C  1 XY    0.002150   0.015208  -0.005781   0.006798   0.012888
   13  C  1 XZ    0.000000   0.000000  -0.000000   0.000000  -0.000000
   14  C  1 YZ    0.000000   0.000000  -0.000000   0.000000  -0.000000
   15  C  2  S    0.020278  -0.172628  -0.000000  -0.055190   0.031632
   16  C  2  X   -0.112386   0.076244  -0.269611  -0.190730   0.010667
   17  C  2  Y    0.194659  -0.132058  -0.155660   0.232066  -0.189964
   18  C  2  Z    0.000000   0.000000  -0.000000   0.000000  -0.000000
   19  C  2  S    0.019573   0.236834   0.000000  -0.096708   0.055428
   20  C  2  X   -0.012627   0.095468  -0.031866   0.019316   0.058394
   21  C  2  Y    0.021870  -0.165356  -0.018398   0.035754   0.019613
   22  C  2  Z    0.000000   0.000000  -0.000000   0.000000  -0.000000
   23  C  2 XX    0.001955   0.000240  -0.008671  -0.008705  -0.008363
   24  C  2 YY    0.004105  -0.014968   0.008671   0.013536   0.005595
   25  C  2 ZZ    0.000883  -0.000717  -0.000000  -0.000711   0.000407
   26  C  2 XY   -0.002150   0.015208   0.005781  -0.006879   0.012845
   27  C  2 XZ    0.000000   0.000000  -0.000000   0.000000  -0.000000
   28  C  2 YZ    0.000000   0.000000  -0.000000   0.000000  -0.000000
   29  C  3  S    0.020278   0.172628   0.000000  -0.000201   0.063612
   30  C  3  X   -0.224773  -0.152487   0.000000  -0.001078   0.341562
   31  C  3  Y    0.000000  -0.000000   0.311320  -0.098828  -0.000312
   32  C  3  Z    0.000000   0.000000  -0.000000   0.000000  -0.000000
   33  C  3  S    0.019573  -0.236834  -0.000000  -0.000352   0.111466
   34  C  3  X   -0.025253  -0.190937   0.000000  -0.000078   0.024557
   35  C  3  Y   -0.000000   0.000000   0.036796   0.069591   0.000220
   36  C  3  Z    0.000000   0.000000  -0.000000   0.000000  -0.000000
   37  C  3 XX    0.005179   0.022572   0.000000   0.000048  -0.015139
   38  C  3 YY    0.000880  -0.007844   0.000000  -0.000030   0.009572
   39  C  3 ZZ    0.000883   0.000717   0.000000  -0.000003   0.000819
   40  C  3 XY    0.000000   0.000000   0.011562  -0.015446  -0.000049
   41  C  3 XZ    0.000000   0.000000  -0.000000   0.000000  -0.000000
   42  C  3 YZ    0.000000   0.000000  -0.000000   0.000000  -0.000000
   43  C  4  S    0.020278  -0.172628  -0.000000   0.054989   0.031980
   44  C  4  X   -0.112386   0.076243   0.269611   0.190659   0.011872
   45  C  4  Y   -0.194659   0.132058  -0.155660   0.230862   0.191425
   46  C  4  Z    0.000000   0.000000  -0.000000   0.000000  -0.000000
   47  C  4  S    0.019573   0.236834  -0.000000   0.096357   0.056038
   48  C  4  X   -0.012627   0.095468   0.031866  -0.019684   0.058271
   49  C  4  Y   -0.021870   0.165356  -0.018398   0.035877  -0.019387
   50  C  4  Z    0.000000   0.000000  -0.000000   0.000000  -0.000000
   51  C  4 XX    0.001955   0.000240   0.008671   0.008758  -0.008308
   52  C  4 YY    0.004105  -0.014968  -0.008671  -0.013571   0.005509
   53  C  4 ZZ    0.000883  -0.000717   0.000000   0.000708   0.000412
   54  C  4 XY    0.002150  -0.015208   0.005781  -0.006798  -0.012888
   55  C  4 XZ    0.000000   0.000000  -0.000000   0.000000  -0.000000
   56  C  4 YZ    0.000000   0.000000  -0.000000   0.000000  -0.000000
   57  C  5  S    0.020278   0.172628   0.000000   0.055190  -0.031632
   58  C  5  X    0.112386   0.076244  -0.269611  -0.190730   0.010667
   59  C  5  Y   -0.194659  -0.132058  -0.155660   0.232066  -0.189964
   60  C  5  Z    0.000000   0.000000  -0.000000   0.000000  -0.000000
   61  C  5  S    0.019573  -0.236834  -0.000000   0.096708  -0.055428
   62  C  5  X    0.012627   0.095468  -0.031866   0.019316   0.058394
   63  C  5  Y   -0.021870  -0.165356  -0.018398   0.035754   0.019613
   64  C  5  Z    0.000000   0.000000  -0.000000   0.000000  -0.000000
   65  C  5 XX    0.001955  -0.000240   0.008671   0.008705   0.008363
   66  C  5 YY    0.004105   0.014968  -0.008671  -0.013536  -0.005595
   67  C  5 ZZ    0.000883   0.000717   0.000000   0.000711  -0.000407
   68  C  5 XY   -0.002150  -0.015208  -0.005781   0.006879  -0.012845
   69  C  5 XZ    0.000000   0.000000  -0.000000   0.000000  -0.000000
   70  C  5 YZ    0.000000   0.000000  -0.000000   0.000000  -0.000000
   71  C  6  S    0.020278  -0.172628  -0.000000   0.000201  -0.063612
   72  C  6  X    0.224773  -0.152487   0.000000  -0.001078   0.341562
   73  C  6  Y   -0.000000  -0.000000   0.311320  -0.098828  -0.000312
   74  C  6  Z    0.000000   0.000000  -0.000000   0.000000  -0.000000
   75  C  6  S    0.019573   0.236834   0.000000   0.000352  -0.111466
   76  C  6  X    0.025253  -0.190937   0.000000  -0.000078   0.024557
   77  C  6  Y    0.000000   0.000000   0.036796   0.069591   0.000220
   78  C  6  Z    0.000000   0.000000  -0.000000   0.000000  -0.000000
   79  C  6 XX    0.005179  -0.022572  -0.000000  -0.000048   0.015139
   80  C  6 YY    0.000880   0.007844  -0.000000   0.000030  -0.009572
   81  C  6 ZZ    0.000883  -0.000717  -0.000000   0.000003  -0.000819
   82  C  6 XY    0.000000  -0.000000  -0.011562   0.015446   0.000049
   83  C  6 XZ    0.000000   0.000000  -0.000000   0.000000  -0.000000
   84  C  6 YZ    0.000000   0.000000  -0.000000   0.000000  -0.000000
   85  H  7  S    0.138814   0.176690   0.000000   0.185800   0.108055
   86  H  7  S    0.037332  -0.000017   0.000000   0.094820   0.055144
   87  H  8  S    0.138814  -0.176690   0.000000   0.186478  -0.106880
   88  H  8  S    0.037332   0.000017  -0.000000   0.095166  -0.054544
   89  H  9  S    0.138814   0.176690   0.000000   0.000679  -0.214935
   90  H  9  S    0.037332  -0.000017   0.000000   0.000346  -0.109688
   91  H 10  S    0.138814  -0.176690  -0.000000  -0.185800  -0.108055
   92  H 10  S    0.037332   0.000017  -0.000000  -0.094820  -0.055144
   93  H 11  S    0.138814   0.176690  -0.000000  -0.186478   0.106880
   94  H 11  S    0.037332  -0.000017   0.000000  -0.095166   0.054544
   95  H 12  S    0.138814  -0.176690  -0.000000  -0.000679   0.214935
   96  H 12  S    0.037332   0.000017  -0.000000  -0.000346   0.109688

                     11         12         13         14         15
                   -0.4839    -0.4839    -0.4811    -0.3167    -0.3167
                     A          A          A          A          A   
    1  C  1  S   -0.016729  -0.009695  -0.000000   0.000000   0.000000
    2  C  1  X   -0.017347   0.290893  -0.000000   0.000000   0.000000
    3  C  1  Y    0.271466  -0.016429  -0.000000   0.000000   0.000000
    4  C  1  Z   -0.000000  -0.000000   0.260448   0.345429   0.199433
    5  C  1  S    0.046251   0.026804  -0.000000   0.000000   0.000000
    6  C  1  X   -0.030968   0.030358  -0.000000   0.000000   0.000000
    7  C  1  Y   -0.005243  -0.030927  -0.000000   0.000000   0.000000
    8  C  1  Z   -0.000000  -0.000000   0.077116   0.159275   0.091958
    9  C  1 XX   -0.000533  -0.015166  -0.000000   0.000000   0.000000
   10  C  1 YY    0.005603   0.018104  -0.000000   0.000000   0.000000
   11  C  1 ZZ   -0.000431  -0.000250  -0.000000   0.000000   0.000000
   12  C  1 XY    0.023324   0.003612  -0.000000   0.000000   0.000000
   13  C  1 XZ   -0.000000  -0.000000  -0.005652  -0.012707   0.013589
   14  C  1 YZ   -0.000000  -0.000000  -0.009790  -0.001084  -0.012707
   15  C  2  S    0.016760  -0.009640  -0.000000   0.000000   0.000000
   16  C  2  X   -0.016397  -0.290948  -0.000000   0.000000   0.000000
   17  C  2  Y   -0.271411  -0.017315  -0.000000   0.000000   0.000000
   18  C  2  Z   -0.000000  -0.000000   0.260448   0.345429  -0.199434
   19  C  2  S   -0.046338   0.026652  -0.000000   0.000000   0.000000
   20  C  2  X   -0.030869  -0.030459  -0.000000   0.000000   0.000000
   21  C  2  Y    0.005344  -0.030910  -0.000000   0.000000   0.000000
   22  C  2  Z   -0.000000  -0.000000   0.077116   0.159275  -0.091958
   23  C  2 XX    0.000583  -0.015165  -0.000000   0.000000   0.000000
   24  C  2 YY   -0.005662   0.018086  -0.000000   0.000000   0.000000
   25  C  2 ZZ    0.000432  -0.000249  -0.000000   0.000000   0.000000
   26  C  2 XY    0.023336  -0.003536  -0.000000   0.000000   0.000000
   27  C  2 XZ   -0.000000  -0.000000   0.005652   0.012707   0.013589
   28  C  2 YZ   -0.000000  -0.000000  -0.009790  -0.001084   0.012707
   29  C  3  S   -0.000032   0.019335  -0.000000   0.000000   0.000000
   30  C  3  X   -0.000427   0.261697  -0.000000   0.000000   0.000000
   31  C  3  Y    0.300662   0.000491  -0.000000   0.000000   0.000000
   32  C  3  Z   -0.000000  -0.000000   0.260448  -0.000000  -0.398867
   33  C  3  S    0.000087  -0.053456  -0.000000   0.000000   0.000000
   34  C  3  X    0.000038  -0.023144  -0.000000   0.000000   0.000000
   35  C  3  Y    0.048260   0.000079  -0.000000   0.000000   0.000000
   36  C  3  Z   -0.000000  -0.000000   0.077116  -0.000000  -0.183915
   37  C  3 XX    0.000041  -0.024921  -0.000000   0.000000   0.000000
   38  C  3 YY   -0.000031   0.019062  -0.000000   0.000000   0.000000
   39  C  3 ZZ   -0.000001   0.000499  -0.000000   0.000000   0.000000
   40  C  3 XY    0.017140   0.000028  -0.000000   0.000000   0.000000
   41  C  3 XZ   -0.000000  -0.000000   0.011305  -0.000000  -0.008420
   42  C  3 YZ   -0.000000  -0.000000   0.000000   0.020925  -0.000000
   43  C  4  S   -0.016729  -0.009695  -0.000000   0.000000   0.000000
   44  C  4  X    0.017347  -0.290893  -0.000000   0.000000   0.000000
   45  C  4  Y   -0.271466   0.016429  -0.000000   0.000000   0.000000
   46  C  4  Z   -0.000000  -0.000000   0.260448  -0.345429  -0.199433
   47  C  4  S    0.046251   0.026804  -0.000000   0.000000   0.000000
   48  C  4  X    0.030968  -0.030358  -0.000000   0.000000   0.000000
   49  C  4  Y    0.005243   0.030927  -0.000000   0.000000   0.000000
   50  C  4  Z   -0.000000  -0.000000   0.077116  -0.159275  -0.091958
   51  C  4 XX   -0.000533  -0.015166  -0.000000   0.000000   0.000000
   52  C  4 YY    0.005603   0.018104  -0.000000   0.000000   0.000000
   53  C  4 ZZ   -0.000431  -0.000250  -0.000000   0.000000   0.000000
   54  C  4 XY    0.023324   0.003612  -0.000000   0.000000   0.000000
   55  C  4 XZ   -0.000000  -0.000000   0.005652  -0.012707   0.013589
   56  C  4 YZ   -0.000000  -0.000000   0.009790  -0.001084  -0.012707
   57  C  5  S    0.016760  -0.009640  -0.000000   0.000000   0.000000
   58  C  5  X    0.016397   0.290948  -0.000000   0.000000   0.000000
   59  C  5  Y    0.271411   0.017315  -0.000000   0.000000   0.000000
   60  C  5  Z   -0.000000  -0.000000   0.260448  -0.345429   0.199434
   61  C  5  S   -0.046338   0.026652  -0.000000   0.000000   0.000000
   62  C  5  X    0.030869   0.030459  -0.000000   0.000000   0.000000
   63  C  5  Y   -0.005344   0.030910  -0.000000   0.000000   0.000000
   64  C  5  Z   -0.000000  -0.000000   0.077116  -0.159275   0.091958
   65  C  5 XX    0.000583  -0.015165  -0.000000   0.000000   0.000000
   66  C  5 YY   -0.005662   0.018086  -0.000000   0.000000   0.000000
[...]
    3  C  1  Y    0.000000  -0.371505   0.357763  -0.003284   0.002988
    4  C  1  Z   -0.127794   0.000000   0.000000   0.000000   0.000000
    5  C  1  S    0.000000   0.196807   0.019334   0.019334  -0.100157
    6  C  1  X    0.000000  -0.096145  -0.068509   0.005361   0.029356
    7  C  1  Y    0.000000  -0.166528  -0.033363  -0.076012   0.095104
    8  C  1  Z   -0.076467   0.000000   0.000000   0.000000   0.000000
    9  C  1 XX    0.000000  -0.007150  -0.001459  -0.031696  -0.001487
   10  C  1 YY    0.000000  -0.030426  -0.023682   0.006555  -0.000003
   11  C  1 ZZ    0.000000  -0.000096  -0.000038  -0.000038   0.000831
   12  C  1 XY    0.000000  -0.023276   0.018093  -0.002065  -0.009371
   13  C  1 XZ    0.017063   0.000000   0.000000   0.000000   0.000000
   14  C  1 YZ   -0.019685   0.000000   0.000000   0.000000   0.000000
   15  C  2  S    0.000000   0.039715   0.040301  -0.324986  -0.324986
   16  C  2  X    0.000000   0.039471   0.038784  -0.415005   0.210346
   17  C  2  Y    0.000000  -0.001832   0.002988  -0.003284   0.357763
   18  C  2  Z    0.023474   0.000000   0.000000   0.000000   0.000000
   19  C  2  S    0.000000  -0.106313  -0.100157   0.019333   0.019334
   20  C  2  X    0.000000  -0.073772  -0.029356  -0.005361   0.068509
   21  C  2  Y    0.000000   0.059144   0.095104  -0.076012  -0.033363
   22  C  2  Z   -0.010249   0.000000   0.000000   0.000000   0.000000
   23  C  2 XX    0.000000  -0.000475  -0.001487  -0.031696  -0.001459
   24  C  2 YY    0.000000  -0.000371  -0.000003   0.006555  -0.023682
   25  C  2 ZZ    0.000000   0.000151   0.000831  -0.000038  -0.000038
   26  C  2 XY    0.000000  -0.010754   0.009371   0.002065  -0.018093
   27  C  2 XZ   -0.002704   0.000000   0.000000   0.000000   0.000000
   28  C  2 YZ   -0.002705   0.000000   0.000000   0.000000   0.000000
   29  C  3  S    0.000000  -0.017775   0.012226   0.040301  -0.324986
   30  C  3  X    0.000000  -0.008234   0.011368   0.016805  -0.204659
   31  C  3  Y    0.000000  -0.019420   0.014842   0.035082  -0.361047
   32  C  3  Z    0.002240   0.000000   0.000000   0.000000   0.000000
   33  C  3  S    0.000000   0.034080   0.082671  -0.100157   0.019333
   34  C  3  X    0.000000   0.034764   0.020549  -0.097040   0.063148
   35  C  3  Y    0.000000  -0.040787   0.019713   0.022129  -0.042649
   36  C  3  Z   -0.011220   0.000000   0.000000   0.000000   0.000000
   37  C  3 XX    0.000000   0.001369  -0.000092  -0.007402  -0.004556
   38  C  3 YY    0.000000  -0.001007  -0.000179   0.005912  -0.020585
   39  C  3 ZZ    0.000000  -0.000620   0.000965   0.000831  -0.000038
   40  C  3 XY    0.000000   0.001636   0.000570  -0.005427  -0.020158
   41  C  3 XZ    0.000811   0.000000   0.000000   0.000000   0.000000
   42  C  3 YZ    0.000000   0.000000   0.000000   0.000000   0.000000
   43  C  4  S    0.000000  -0.004302   0.012226   0.012226   0.040301
   44  C  4  X    0.000000  -0.001824   0.018537  -0.007169  -0.021979
   45  C  4  Y    0.000000  -0.003160   0.002424   0.017265   0.032094
   46  C  4  Z    0.023473   0.000000   0.000000   0.000000   0.000000
   47  C  4  S    0.000000  -0.102529   0.082671   0.082671  -0.100157
   48  C  4  X    0.000000  -0.014833   0.027346  -0.006797  -0.067684
   49  C  4  Y    0.000000  -0.025692   0.007940   0.027652  -0.072975
   50  C  4  Z   -0.010249   0.000000   0.000000   0.000000   0.000000
   51  C  4 XX    0.000000   0.000374   0.000271  -0.000584   0.006654
   52  C  4 YY    0.000000   0.000543  -0.000541   0.000314  -0.008144
   53  C  4 ZZ    0.000000   0.000116   0.000965   0.000965   0.000831
   54  C  4 XY    0.000000   0.000169   0.000328  -0.000242  -0.003943
   55  C  4 XZ   -0.002704   0.000000   0.000000   0.000000   0.000000
   56  C  4 YZ    0.002705   0.000000   0.000000   0.000000   0.000000
   57  C  5  S    0.000000  -0.017775   0.040301   0.012226   0.012226
   58  C  5  X    0.000000  -0.012701   0.021979   0.007169  -0.018537
   59  C  5  Y    0.000000  -0.016840   0.032094   0.017266   0.002424
   60  C  5  Z   -0.127794   0.000000   0.000000   0.000000   0.000000
   61  C  5  S    0.000000   0.034080  -0.100157   0.082671   0.082671
   62  C  5  X    0.000000  -0.052705   0.067685   0.006797  -0.027346
   63  C  5  Y    0.000000   0.009713  -0.072975   0.027653   0.007940
   64  C  5  Z   -0.076467   0.000000   0.000000   0.000000   0.000000
   65  C  5 XX    0.000000  -0.001640   0.006654  -0.000584   0.000271
   66  C  5 YY    0.000000   0.002002  -0.008144   0.000314  -0.000541
   67  C  5 ZZ    0.000000  -0.000620   0.000831   0.000965   0.000965
   68  C  5 XY    0.000000  -0.000370   0.003943   0.000242  -0.000328
   69  C  5 XZ    0.017063   0.000000   0.000000   0.000000   0.000000
   70  C  5 YZ    0.019685   0.000000   0.000000   0.000000   0.000000
   71  C  6  S    0.000000   0.039715  -0.324986   0.040301   0.012226
   72  C  6  X    0.000000  -0.021322   0.204659  -0.016804  -0.011368
   73  C  6  Y    0.000000   0.033266  -0.361047   0.035082   0.014841
   74  C  6  Z    0.844366   0.000000   0.000000   0.000000   0.000000
   75  C  6  S    0.000000  -0.106313   0.019334  -0.100157   0.082671
   76  C  6  X    0.000000   0.088106  -0.063148   0.097040  -0.020549
   77  C  6  Y    0.000000  -0.034317  -0.042649   0.022129   0.019713
   78  C  6  Z    0.373549   0.000000   0.000000   0.000000   0.000000
   79  C  6 XX    0.000000   0.007668  -0.004556  -0.007402  -0.000092
   80  C  6 YY    0.000000  -0.008514  -0.020585   0.005912  -0.000178
   81  C  6 ZZ    0.000000   0.000151  -0.000038   0.000831   0.000965
   82  C  6 XY    0.000000  -0.005325   0.020158   0.005427  -0.000570
   83  C  6 XZ   -0.007868   0.000000   0.000000   0.000000   0.000000
   84  C  6 YZ   -0.000000   0.000000   0.000000   0.000000   0.000000
   85  H  7  S    0.000000  -0.409311   0.041871   0.041870  -0.023225
   86  H  7  S    0.000000  -0.097636   0.084454   0.084454  -0.082968
   87  H  8  S    0.000000   0.020519  -0.023225   0.041870   0.041871
   88  H  8  S    0.000000  -0.018990  -0.082968   0.084454   0.084454
   89  H  9  S    0.000000   0.008430  -0.000774  -0.023226   0.041871
   90  H  9  S    0.000000   0.024128  -0.001791  -0.082968   0.084454
   91  H 10  S    0.000000  -0.000689  -0.000775  -0.000775  -0.023225
   92  H 10  S    0.000000  -0.011443  -0.001791  -0.001791  -0.082968
   93  H 11  S    0.000000   0.008430  -0.023225  -0.000775  -0.000774
   94  H 11  S    0.000000   0.024128  -0.082968  -0.001791  -0.001791
   95  H 12  S    0.000000   0.020519   0.041871  -0.023225  -0.000775
   96  H 12  S    0.000000  -0.018990   0.084454  -0.082968  -0.001791

                     11         12         13         14         15

    1  C  1  S    0.039715  -0.012226  -0.017775  -0.012226  -0.004301
    2  C  1  X   -0.039471   0.018537   0.020934  -0.007169   0.001824
    3  C  1  Y   -0.001832   0.002425  -0.002579   0.017265   0.003160
    4  C  1  Z    0.000000   0.000000   0.000000   0.000000   0.000000
    5  C  1  S   -0.106313  -0.082671   0.034080  -0.082671  -0.102529
    6  C  1  X    0.073772   0.027346   0.017941  -0.006797   0.014833
    7  C  1  Y    0.059144   0.007940  -0.050500   0.027653   0.025692
    8  C  1  Z    0.000000   0.000000   0.000000   0.000000   0.000000
    9  C  1 XX   -0.000475  -0.000271   0.000814   0.000584   0.000374
   10  C  1 YY   -0.000371   0.000541  -0.000452  -0.000314   0.000543
   11  C  1 ZZ    0.000151  -0.000965  -0.000620  -0.000965   0.000116
   12  C  1 XY    0.010754  -0.000328   0.002006   0.000242   0.000169
   13  C  1 XZ    0.000000   0.000000   0.000000   0.000000   0.000000
   14  C  1 YZ    0.000000   0.000000   0.000000   0.000000   0.000000
   15  C  2  S   -0.312172  -0.040301   0.039715  -0.012226  -0.017775
   16  C  2  X    0.214489   0.021980  -0.018148   0.007169   0.012701
   17  C  2  Y   -0.371505   0.032094  -0.035098   0.017266   0.016840
   18  C  2  Z    0.000000   0.000000   0.000000   0.000000   0.000000
   19  C  2  S    0.196807   0.100157  -0.106313  -0.082671   0.034080
   20  C  2  X    0.096145   0.067685  -0.014334   0.006797   0.052705
   21  C  2  Y   -0.166528  -0.072975   0.093460   0.027653  -0.009713
   22  C  2  Z    0.000000   0.000000   0.000000   0.000000   0.000000
   23  C  2 XX   -0.007150  -0.006654  -0.008463   0.000584  -0.001640
   24  C  2 YY   -0.030426   0.008144   0.007616  -0.000314   0.002002
   25  C  2 ZZ   -0.000096  -0.000831   0.000151  -0.000965  -0.000620
   26  C  2 XY    0.023276  -0.003943  -0.005429  -0.000242  -0.000370
   27  C  2 XZ    0.000000   0.000000   0.000000   0.000000   0.000000
   28  C  2 YZ    0.000000   0.000000   0.000000   0.000000   0.000000
   29  C  3  S    0.039715   0.324986  -0.312173  -0.040301   0.039715
   30  C  3  X    0.021322   0.204658   0.428977  -0.016805   0.021322
   31  C  3  Y    0.033266  -0.361047  -0.000000   0.035082  -0.033266
   32  C  3  Z    0.000000   0.000000   0.000000   0.000000   0.000000
   33  C  3  S   -0.106313  -0.019333   0.196807   0.100157  -0.106313
   34  C  3  X   -0.088106  -0.063148   0.192290   0.097040  -0.088106
   35  C  3  Y   -0.034317  -0.042649  -0.000000   0.022129   0.034317
   36  C  3  Z    0.000000   0.000000   0.000000   0.000000   0.000000
   37  C  3 XX    0.007668   0.004556  -0.042063   0.007402   0.007668
   38  C  3 YY   -0.008514   0.020585   0.004488  -0.005912  -0.008514
   39  C  3 ZZ    0.000151   0.000038  -0.000096  -0.000831   0.000151
   40  C  3 XY    0.005325  -0.020158   0.000000  -0.005427  -0.005325
   41  C  3 XZ    0.000000   0.000000   0.000000   0.000000   0.000000
   42  C  3 YZ    0.000000   0.000000   0.000000   0.000000   0.000000
   43  C  4  S   -0.017775   0.324986   0.039715   0.324986  -0.312172
   44  C  4  X    0.012701  -0.210346  -0.018148   0.415005   0.214489
   45  C  4  Y   -0.016840   0.357763   0.035098  -0.003284   0.371505
   46  C  4  Z    0.000000   0.000000   0.000000   0.000000   0.000000
   47  C  4  S    0.034080  -0.019334  -0.106313  -0.019334   0.196807
   48  C  4  X    0.052705  -0.068509  -0.014334   0.005361   0.096145
   49  C  4  Y    0.009713  -0.033363  -0.093460  -0.076012   0.166528
   50  C  4  Z    0.000000   0.000000   0.000000   0.000000   0.000000
   51  C  4 XX   -0.001640   0.001459  -0.008463   0.031696  -0.007150
   52  C  4 YY    0.002002   0.023682   0.007617  -0.006555  -0.030426
   53  C  4 ZZ   -0.000620   0.000038   0.000151   0.000038  -0.000096
   54  C  4 XY    0.000370  -0.018093   0.005429   0.002065  -0.023276
   55  C  4 XZ    0.000000   0.000000   0.000000   0.000000   0.000000
   56  C  4 YZ    0.000000   0.000000   0.000000   0.000000   0.000000
   57  C  5  S   -0.004302  -0.040301  -0.017775   0.324986   0.039715
   58  C  5  X    0.001824   0.038784   0.020934  -0.415005  -0.039471
   59  C  5  Y   -0.003160   0.002988   0.002579  -0.003284   0.001832
   60  C  5  Z    0.000000   0.000000   0.000000   0.000000   0.000000
   61  C  5  S   -0.102529   0.100157   0.034080  -0.019334  -0.106313
   62  C  5  X    0.014833  -0.029356   0.017941  -0.005361   0.073772
   63  C  5  Y   -0.025692   0.095104   0.050500  -0.076012  -0.059144
   64  C  5  Z    0.000000   0.000000   0.000000   0.000000   0.000000
   65  C  5 XX    0.000374   0.001487   0.000814   0.031696  -0.000475
   66  C  5 YY    0.000543   0.000003  -0.000452  -0.006555  -0.000371
   67  C  5 ZZ    0.000116  -0.000831  -0.000620   0.000038   0.000151
   68  C  5 XY   -0.000169  -0.009371  -0.002006  -0.002065  -0.010754
   69  C  5 XZ    0.000000   0.000000   0.000000   0.000000   0.000000
   70  C  5 YZ    0.000000   0.000000   0.000000   0.000000   0.000000
   71  C  6  S   -0.017775  -0.012227  -0.004301  -0.040301  -0.017775
   72  C  6  X    0.008234   0.011368   0.003649   0.016804   0.008234
   73  C  6  Y   -0.019419   0.014841  -0.000000   0.035082   0.019419
   74  C  6  Z    0.000000   0.000000   0.000000   0.000000   0.000000
   75  C  6  S    0.034080  -0.082671  -0.102529   0.100157   0.034080
   76  C  6  X   -0.034764   0.020549   0.029667  -0.097040  -0.034764
   77  C  6  Y   -0.040787   0.019713  -0.000000   0.022129   0.040787
   78  C  6  Z    0.000000   0.000000   0.000000   0.000000   0.000000
   79  C  6 XX    0.001369   0.000092   0.000627   0.007402   0.001369
   80  C  6 YY   -0.001007   0.000178   0.000289  -0.005912  -0.001007
   81  C  6 ZZ   -0.000620  -0.000965   0.000116  -0.000831  -0.000620
   82  C  6 XY   -0.001636  -0.000570   0.000000   0.005427   0.001636
   83  C  6 XZ    0.000000   0.000000   0.000000   0.000000   0.000000
   84  C  6 YZ    0.000000   0.000000   0.000000   0.000000   0.000000
   85  H  7  S    0.020519   0.000775   0.008430   0.000774  -0.000689
   86  H  7  S   -0.018990   0.001791   0.024128   0.001791  -0.011443
   87  H  8  S   -0.409311   0.023225   0.020519   0.000775   0.008430
   88  H  8  S   -0.097636   0.082968  -0.018990   0.001791   0.024128
   89  H  9  S    0.020519  -0.041871  -0.409311   0.023226   0.020519
   90  H  9  S   -0.018990  -0.084454  -0.097636   0.082968  -0.018990
   91  H 10  S    0.008430  -0.041871   0.020519  -0.041870  -0.409311
   92  H 10  S    0.024128  -0.084454  -0.018990  -0.084454  -0.097636
   93  H 11  S   -0.000689   0.023225   0.008430  -0.041870   0.020519
   94  H 11  S   -0.011443   0.082968   0.024128  -0.084454  -0.018990
   95  H 12  S    0.008430   0.000775  -0.000689   0.023225   0.008430
   96  H 12  S    0.024128   0.001791  -0.011443   0.082968   0.024128

                     16         17         18

    1  C  1  S   -0.040301  -0.017775  -0.039714
    2  C  1  X   -0.021979  -0.012701  -0.018149
    3  C  1  Y    0.032094   0.016840   0.035098
    4  C  1  Z    0.000000   0.000000   0.000000
    5  C  1  S    0.100157   0.034080   0.106313
    6  C  1  X   -0.067684  -0.052705  -0.014334
    7  C  1  Y   -0.072975  -0.009713  -0.093460
    8  C  1  Z    0.000000   0.000000   0.000000
    9  C  1 XX   -0.006654  -0.001640   0.008463
   10  C  1 YY    0.008144   0.002002  -0.007616
   11  C  1 ZZ   -0.000831  -0.000620  -0.000151
   12  C  1 XY    0.003943   0.000370  -0.005429
   13  C  1 XZ    0.000000   0.000000   0.000000
   14  C  1 YZ    0.000000   0.000000   0.000000
   15  C  2  S   -0.012226  -0.004302   0.017775
   16  C  2  X   -0.018537  -0.001824   0.020934
   17  C  2  Y    0.002424   0.003160   0.002579
   18  C  2  Z    0.000000   0.000000   0.000000
   19  C  2  S   -0.082671  -0.102529  -0.034080
   20  C  2  X   -0.027346  -0.014833   0.017941
   21  C  2  Y    0.007940   0.025692   0.050500
   22  C  2  Z    0.000000   0.000000   0.000000
   23  C  2 XX   -0.000271   0.000374  -0.000814
   24  C  2 YY    0.000541   0.000543   0.000452
   25  C  2 ZZ   -0.000965   0.000116   0.000620
   26  C  2 XY    0.000328  -0.000169   0.002006
   27  C  2 XZ    0.000000   0.000000   0.000000
   28  C  2 YZ    0.000000   0.000000   0.000000
   29  C  3  S   -0.012226  -0.017775   0.004302
   30  C  3  X   -0.011368  -0.008234   0.003648
   31  C  3  Y    0.014841   0.019419  -0.000000
   32  C  3  Z    0.000000   0.000000   0.000000
   33  C  3  S   -0.082671   0.034080   0.102529
   34  C  3  X   -0.020549   0.034764   0.029666
   35  C  3  Y    0.019713   0.040787   0.000000
   36  C  3  Z    0.000000   0.000000   0.000000
   37  C  3 XX    0.000092   0.001369  -0.000627
   38  C  3 YY    0.000179  -0.001007  -0.000289
   39  C  3 ZZ   -0.000965  -0.000620  -0.000116
   40  C  3 XY    0.000570  -0.001636  -0.000000
   41  C  3 XZ    0.000000   0.000000   0.000000
   42  C  3 YZ    0.000000   0.000000   0.000000
   43  C  4  S   -0.040301   0.039715   0.017775
   44  C  4  X   -0.038784   0.039471   0.020934
   45  C  4  Y    0.002988   0.001832  -0.002579
   46  C  4  Z    0.000000   0.000000   0.000000
   47  C  4  S    0.100157  -0.106313  -0.034080
   48  C  4  X    0.029356  -0.073772   0.017941
   49  C  4  Y    0.095104  -0.059144  -0.050500
   50  C  4  Z    0.000000   0.000000   0.000000
   51  C  4 XX    0.001487  -0.000475  -0.000814
   52  C  4 YY    0.000003  -0.000371   0.000452
   53  C  4 ZZ   -0.000831   0.000151   0.000620
   54  C  4 XY    0.009371   0.010754  -0.002006
   55  C  4 XZ    0.000000   0.000000   0.000000
   56  C  4 YZ    0.000000   0.000000   0.000000
   57  C  5  S    0.324986  -0.312172  -0.039715
   58  C  5  X    0.210346  -0.214489  -0.018149
   59  C  5  Y    0.357763   0.371505  -0.035098
   60  C  5  Z    0.000000   0.000000   0.000000
   61  C  5  S   -0.019334   0.196807   0.106313
   62  C  5  X    0.068509  -0.096145  -0.014334
   63  C  5  Y   -0.033363   0.166528   0.093460
   64  C  5  Z    0.000000   0.000000   0.000000
   65  C  5 XX    0.001459  -0.007150   0.008463
   66  C  5 YY    0.023682  -0.030426  -0.007617
   67  C  5 ZZ    0.000038  -0.000096  -0.000151
   68  C  5 XY    0.018093   0.023276   0.005429
   69  C  5 XZ    0.000000   0.000000   0.000000
   70  C  5 YZ    0.000000   0.000000   0.000000
   71  C  6  S    0.324986   0.039714   0.312173
   72  C  6  X   -0.204658  -0.021322   0.428977
   73  C  6  Y   -0.361047  -0.033266   0.000000
   74  C  6  Z    0.000000   0.000000   0.000000
   75  C  6  S   -0.019333  -0.106313  -0.196807
   76  C  6  X    0.063148   0.088106   0.192290
   77  C  6  Y   -0.042649   0.034317   0.000000
   78  C  6  Z    0.000000   0.000000   0.000000
   79  C  6 XX    0.004556   0.007668   0.042063
   80  C  6 YY    0.020585  -0.008514  -0.004488
   81  C  6 ZZ    0.000038   0.000151   0.000096
   82  C  6 XY    0.020158   0.005325  -0.000000
   83  C  6 XZ    0.000000   0.000000   0.000000
   84  C  6 YZ    0.000000   0.000000   0.000000
   85  H  7  S    0.023226   0.008430  -0.020519
   86  H  7  S    0.082968   0.024128   0.018990
   87  H  8  S    0.000775  -0.000689  -0.008430
   88  H  8  S    0.001791  -0.011443  -0.024128
   89  H  9  S    0.000775   0.008430   0.000690
   90  H  9  S    0.001791   0.024128   0.011443
   91  H 10  S    0.023225   0.020519  -0.008430
   92  H 10  S    0.082968  -0.018990  -0.024128
   93  H 11  S   -0.041871  -0.409311  -0.020519
   94  H 11  S   -0.084454  -0.097636   0.018990
   95  H 12  S   -0.041871   0.020519   0.409311
   96  H 12  S   -0.084454  -0.018990   0.097636
 ... DONE WITH ORIENTATION ...
 STEP CPU TIME =     0.01 TOTAL CPU TIME =        4.1 (    0.1 MIN)
 TOTAL WALL CLOCK TIME=        4.2 SECONDS, CPU UTILIZATION IS  99.28%
              8170730  WORDS OF DYNAMIC MEMORY USED
 EXECUTION OF GAMESS TERMINATED NORMALLY Fri Jun  2 04:05:31 2017
 DDI: 263640 bytes (0.3 MB / 0 MWords) used by master data server.

 ----------------------------------------
 CPU timing information for all processes
 ========================================
 0: 3.896 + 0.255 = 4.152
 ----------------------------------------
 ddikick.x: exited gracefully.
unset echo
----- accounting info -----
Files used on the master node compute-0-2.local were:
-rw-rw-r-- 1 sarom sarom   151961 Jun  2 04:05 /scratch/mc-psi-c6h6-olmo.F05
-rw-rw-r-- 1 sarom sarom 67325984 Jun  2 04:05 /scratch/mc-psi-c6h6-olmo.F08
-rw-rw-r-- 1 sarom sarom   181392 Jun  2 04:05 /scratch/mc-psi-c6h6-olmo.F09
-rw-rw-r-- 1 sarom sarom  3337440 Jun  2 04:05 /scratch/mc-psi-c6h6-olmo.F10
-rw-rw-r-- 1 sarom sarom     3232 Jun  2 04:05 /scratch/mc-psi-c6h6-olmo.F12
-rw-rw-r-- 1 sarom sarom   580184 Jun  2 04:05 /scratch/mc-psi-c6h6-olmo.F13
-rw-rw-r-- 1 sarom sarom   181392 Jun  2 04:05 /scratch/mc-psi-c6h6-olmo.F15
-rw-rw-r-- 1 sarom sarom   212688 Jun  2 04:05 /scratch/mc-psi-c6h6-olmo.F23
rm: cannot remove `/scratch/sarom': Is a directory
rm: cannot remove `/scratch/tmp': Is a directory
ls: No match.
ls: No match.
ls: No match.
Fri Jun  2 04:05:34 CDT 2017
0.153u 0.048s 0:07.46 2.5%	0+0k 304+680io 0pf+0w
Deleting shmid=3964928.
Deleting shmid=3997697.
Deleting shmid=4227074.
/opt/gridengine/default/spool/compute-0-2/active_jobs/23919.1/pe_hostfile compute-0-2.local
