----- GAMESS execution script 'rungms' -----
This job is running on host compute-3-0
under operating system Linux at Mon Nov 28 21:27:45 CST 2016
Available scratch disk space (Kbyte units) at beginning of the job is
Filesystem            1K-blocks       Used  Available Use% Mounted on
bolt.local:/export/home/sarom
                     9590469632 1552982016 7550320640  18% /home/sarom
Copying input file mc-psi-c4h4.inp to your run's scratch directory...
cp mc-psi-c4h4.inp .//mc-psi-c4h4.F05
unset echo
/home/sarom/gamessGH/ddikick.x /home/sarom/gamessGH/gamess.00.x mc-psi-c4h4 -ddi 1 1 localhost -scr ./

 Distributed Data Interface kickoff program.
 Initiating 1 compute processes on 1 nodes to run the following command:
 /home/sarom/gamessGH/gamess.00.x mc-psi-c4h4 

          ******************************************************
          *         GAMESS VERSION = 18 AUG 2016 (R1)          *
          *             FROM IOWA STATE UNIVERSITY             *
          * M.W.SCHMIDT, K.K.BALDRIDGE, J.A.BOATZ, S.T.ELBERT, *
          *   M.S.GORDON, J.H.JENSEN, S.KOSEKI, N.MATSUNAGA,   *
          *          K.A.NGUYEN, S.J.SU, T.L.WINDUS,           *
          *       TOGETHER WITH M.DUPUIS, J.A.MONTGOMERY       *
          *         J.COMPUT.CHEM.  14, 1347-1363(1993)        *
          **************** 64 BIT LINUX VERSION ****************

  SINCE 1993, STUDENTS AND POSTDOCS WORKING AT IOWA STATE UNIVERSITY
  AND ALSO IN THEIR VARIOUS JOBS AFTER LEAVING ISU HAVE MADE IMPORTANT
  CONTRIBUTIONS TO THE CODE:
     IVANA ADAMOVIC, CHRISTINE AIKENS, YURI ALEXEEV, POOJA ARORA,
     ANDREY ASADCHEV, ROB BELL, PRADIPTA BANDYOPADHYAY, JONATHAN BENTZ,
     BRETT BODE, KURT BRORSEN, CALEB CARLIN, GALINA CHABAN, WEI CHEN,
     CHEOL HO CHOI, PAUL DAY, ALBERT DEFUSCO, NUWAN DESILVA, TIM DUDLEY,
     DMITRI FEDOROV, GRAHAM FLETCHER, MARK FREITAG, KURT GLAESEMANN,
     DAN KEMP, GRANT MERRILL, NORIYUKI MINEZAWA, JONATHAN MULLIN,
     TAKESHI NAGATA, SEAN NEDD, HEATHER NETZLOFF, BOSILJKA NJEGIC, RYAN OLSON,
     MIKE PAK, SPENCER PRUITT, LUKE ROSKOP, JIM SHOEMAKER, LYUDMILA SLIPCHENKO,
     TONY SMITH, SAROM SOK LEANG, JIE SONG, TETSUYA TAKETSUGU, SIMON WEBB,
     PENG XU, SOOHAENG YOO, FEDERICO ZAHARIEV

  ADDITIONAL CODE HAS BEEN PROVIDED BY COLLABORATORS IN OTHER GROUPS:
     IOWA STATE UNIVERSITY:
          JOE IVANIC, AARON WEST, LAIMUTIS BYTAUTAS, KLAUS RUEDENBERG
     UNIVERSITY OF TOKYO: KIMIHIKO HIRAO, TAKAHITO NAKAJIMA,
          TAKAO TSUNEDA, MUNEAKI KAMIYA, SUSUMU YANAGISAWA,
          KIYOSHI YAGI, MAHITO CHIBA, SEIKEN TOKURA, NAOAKI KAWAKAMI
     UNIVERSITY OF AARHUS: FRANK JENSEN
     UNIVERSITY OF IOWA: VISVALDAS KAIRYS, HUI LI
     NATIONAL INST. OF STANDARDS AND TECHNOLOGY: WALT STEVENS, DAVID GARMER
     UNIVERSITY OF PISA: BENEDETTA MENNUCCI, JACOPO TOMASI
     UNIVERSITY OF MEMPHIS: HENRY KURTZ, PRAKASHAN KORAMBATH
     UNIVERSITY OF ALBERTA: TOBY ZENG, MARIUSZ KLOBUKOWSKI
     UNIVERSITY OF NEW ENGLAND: MARK SPACKMAN
     MIE UNIVERSITY: HIROAKI UMEDA
     NAT. INST. OF ADVANCED INDUSTRIAL SCIENCE AND TECHNOLOGY: KAZUO KITAURA
     MICHIGAN STATE UNIVERSITY:
          KAROL KOWALSKI, MARTA WLOCH, JEFFREY GOUR, JESSE LUTZ,
          WEI LI, PIOTR PIECUCH
     UNIVERSITY OF SILESIA: MONIKA MUSIAL, STANISLAW KUCHARSKI
     FACULTES UNIVERSITAIRES NOTRE-DAME DE LA PAIX:
          OLIVIER QUINET, BENOIT CHAMPAGNE
     UNIVERSITY OF CALIFORNIA - SANTA BARBARA: BERNARD KIRTMAN
     INSTITUTE FOR MOLECULAR SCIENCE:
          KAZUYA ISHIMURA, MICHIO KATOUDA, AND SHIGERU NAGASE
     UNIVERSITY OF NOTRE DAME: ANNA POMOGAEVA, DAN CHIPMAN
     KYUSHU UNIVERSITY:
          HARUYUKI NAKANO,
          FENG LONG GU, JACEK KORCHOWIEC, MARCIN MAKOWSKI, AND YURIKO AOKI,
          HIROTOSHI MORI AND EISAKU MIYOSHI
     PENNSYLVANIA STATE UNIVERSITY:
          TZVETELIN IORDANOV, CHET SWALINA, JONATHAN SKONE,
          SHARON HAMMES-SCHIFFER
     WASEDA UNIVERSITY:
          MASATO KOBAYASHI, TOMOKO AKAMA, TSUGUKI TOUMA,
          TAKESHI YOSHIKAWA, YASUHIRO IKABATA, JUNJI SEINO,
          YUYA NAKAJIMA, HIROMI NAKAI
     NANJING UNIVERSITY: SHUHUA LI
     UNIVERSITY OF NEBRASKA:
          PEIFENG SU, DEJUN SI, NANDUN THELLAMUREGE, YALI WANG, HUI LI
     UNIVERSITY OF ZURICH: ROBERTO PEVERATI, KIM BALDRIDGE
     N. COPERNICUS UNIVERSITY AND JACKSON STATE UNIVERSITY:
          MARIA BARYSZ
     UNIVERSITY OF COPENHAGEN: Jimmy Kromann, CASPER STEINMANN
     TOKYO INSTITUTE OF TECHNOLOGY: HIROYA NAKATA
     NAGOYA UNIVERSITY: YOSHIO NISHIMOTO, STEPHAN IRLE
     MOSCOW STATE UNIVERSITY: VLADIMIR MIRONOV

 EXECUTION OF GAMESS BEGUN Mon Nov 28 21:27:46 2016

            ECHO OF THE FIRST FEW INPUT CARDS -
 INPUT CARD>!  ground state 1-A-1 C4H4...MCSCF gradient using old GUGA program.             
 INPUT CARD>!  R.P.Johnson, M.W.Schmidt, J.Am.Chem.Soc. 103,3244-9(1981)                    
 INPUT CARD>!  There are 100 AOs, and 18 1-A-1 determinants in C2v group                    
 INPUT CARD>!  Diffuse functions are important in the many zwitterionic                     
 INPUT CARD>!  excited states, so the basis is much bigger than in JACS.                    
 INPUT CARD>!                                                                               
 INPUT CARD>!  FINAL E= -153.7290601802, 12 iters, RMS grad= 0.006707939                    
 INPUT CARD>!                                                                               
 INPUT CARD>!  This run takes 6 seconds on a 2.66 GHz Cloverton (26 Apr 2015)               
 INPUT CARD>!  results have not changed substantially since 2005                            
 INPUT CARD>!                                                                               
 INPUT CARD> $contrl scftyp=mcscf runtyp=gradient coord=zmt nzvar=22 $end                   
 INPUT CARD> $system mwords=2 memddi=0 $end                                                 
 INPUT CARD> $basis  gbasis=n31 ngauss=6 ndfunc=1 npfunc=1 diffsp=.t. diffs=.t. $end        
 INPUT CARD> $guess  guess=moread norb=100 norder=1 iorder(12)=13,12  $end                  
 INPUT CARD> $mcscf  cistep=guga focas=.true. $end                                          
 INPUT CARD> $drt    group=c2v fors=.true. nmcc=12 ndoc=2 nval=2 $end                       
 INPUT CARD> $data                                                                          
 INPUT CARD>methylenecyclopropene...RHF/6-31++G(d,p) geometry                               
 INPUT CARD>Cnv 2                                                                           
 INPUT CARD>                                                                                
 INPUT CARD>C                                                                               
 INPUT CARD>C 1 rCCa                                                                        
 INPUT CARD>C 2 rCCb 1 aCCC                                                                 
 INPUT CARD>C 2 rCCb 1 aCCC  3 180.0                                                        
 INPUT CARD>H 1 rCHa 2 aHCCa 3   0.0                                                        
 INPUT CARD>H 1 rCHa 2 aHCCa 3 180.0                                                        
 INPUT CARD>H 3 rCHb 2 aHCCb 1   0.0                                                        
 INPUT CARD>H 4 rCHb 2 aHCCb 1   0.0                                                        
 INPUT CARD>                                                                                
 INPUT CARD>rCCa=1.3255845                                                                  
 INPUT CARD>rCCb=1.4259892                                                                  
 INPUT CARD>rCHa=1.0741248                                                                  
 INPUT CARD>rCHb=1.0686219                                                                  
 INPUT CARD>aCCC=152.77249                                                                  
 INPUT CARD>aHCCa=120.75970                                                                 
 INPUT CARD>aHCCb=148.83911                                                                 
 INPUT CARD> $end                                                                           
 INPUT CARD> $zmat  izmat(1)=1,1,2, 1,2,3, 1,2,4, 1,3,4, 1,1,5, 1,1,6, 1,3,7, 1,4,8,        
 INPUT CARD>           2,1,2,3,  2,1,2,4,  4,1,2,3,4,                                       
 INPUT CARD>           2,5,1,6,  2,5,1,2,  2,6,1,2,  4,2,1,5,6,   3,3,2,1,5,                
 INPUT CARD>           2,7,3,2,  2,7,3,4,  4,7,3,2,4,                                       
 INPUT CARD>           2,8,4,2,  2,8,4,3,  4,8,4,2,3                                        
 INPUT CARD>                                                                                
 INPUT CARD>        ijs(1)= 1,1,  2,2,  3,3,  4,4,  5,5,  6,6,  7,7,  8,8,                  
 INPUT CARD>            9, 9,10, 9,   11,10,                                                
 INPUT CARD>           12,11,13,11,14,11,   13,12,14,12,   15,13,   16,14,                  
 INPUT CARD>           17,15,18,15,   19,16,                                                
 INPUT CARD>           20,17,21,17,   22,18                                                 
 INPUT CARD>                                                                                
    2000000 WORDS OF MEMORY AVAILABLE

     BASIS OPTIONS
     -------------
     GBASIS=N31          IGAUSS=       6      POLAR=POPN31  
     NDFUNC=       1     NFFUNC=       0     DIFFSP=       T
     NPFUNC=       1      DIFFS=       T     BASNAM=        


     RUN TITLE
     ---------
 methylenecyclopropene...RHF/6-31++G(d,p) geometry                               

 THE POINT GROUP OF THE MOLECULE IS CNV     
 THE ORDER OF THE PRINCIPAL AXIS IS     2

 YOUR FULLY SUBSTITUTED Z-MATRIX IS
 C   
 C      1   1.3255845
 C      2   1.4259892  1  152.7725
 C      2   1.4259892  1  152.7725  3  180.0000  0
 H      1   1.0741248  2  120.7597  3    0.0000  0
 H      1   1.0741248  2  120.7597  3  180.0000  0
 H      3   1.0686219  2  148.8391  1    0.0000  0
 H      4   1.0686219  2  148.8391  1    0.0000  0

 THE MOMENTS OF INERTIA ARE (AMU-ANGSTROM**2)
 IXX=    69.493   IYY=    86.347   IZZ=    16.854

 ATOM      ATOMIC                      COORDINATES (BOHR)
           CHARGE         X                   Y                   Z
 C           6.0     0.0000000000        0.0000000000       -3.0290841182
 C           6.0     0.0000000000        0.0000000000       -0.5240926396
 C           6.0    -1.2329055980        0.0000000000        1.8720516295
 C           6.0     1.2329055980        0.0000000000        1.8720516295
 H           1.0    -1.7442487396        0.0000000000       -4.0672029269
 H           1.0     1.7442487396        0.0000000000       -4.0672029269
 H           1.0    -2.9526708984        0.0000000000        2.9305383198
 H           1.0     2.9526708984        0.0000000000        2.9305383198

          INTERNUCLEAR DISTANCES (ANGS.)
          ------------------------------

                1 C          2 C          3 C          4 C          5 H     

   1 C       0.0000000    1.3255845 *  2.6743713 *  2.6743713 *  1.0741248 *
   2 C       1.3255845 *  0.0000000    1.4259892 *  1.4259892 *  2.0898170 *
   3 C       2.6743713 *  1.4259892 *  0.0000000    1.3048512 *  3.1545452  
   4 C       2.6743713 *  1.4259892 *  1.3048512 *  0.0000000    3.5156727  
   5 H       1.0741248 *  2.0898170 *  3.1545452    3.5156727    0.0000000  
   6 H       1.0741248 *  2.0898170 *  3.5156727    3.1545452    1.8460335 *
   7 H       3.5195405    2.4048612 *  1.0686219 *  2.2846393 *  3.7578540  
   8 H       3.5195405    2.4048612 *  2.2846393 *  1.0686219 *  4.4598510  

                6 H          7 H          8 H     

   1 C       1.0741248 *  3.5195405    3.5195405  
   2 C       2.0898170 *  2.4048612 *  2.4048612 *
   3 C       3.5156727    1.0686219 *  2.2846393 *
   4 C       3.1545452    2.2846393 *  1.0686219 *
   5 H       1.8460335 *  3.7578540    4.4598510  
   6 H       0.0000000    4.4598510    3.7578540  
   7 H       4.4598510    0.0000000    3.1249725  
   8 H       3.7578540    3.1249725    0.0000000  

  * ... LESS THAN  3.000


     ATOMIC BASIS SET
     ----------------
 THE CONTRACTED PRIMITIVE FUNCTIONS HAVE BEEN UNNORMALIZED
 THE CONTRACTED BASIS FUNCTIONS ARE NOW NORMALIZED TO UNITY

  SHELL TYPE  PRIMITIVE        EXPONENT          CONTRACTION COEFFICIENT(S)

 C         

      1   S       1          3047.5248800    0.001834737132
      1   S       2           457.3695180    0.014037322813
      1   S       3           103.9486850    0.068842622264
      1   S       4            29.2101553    0.232184443216
      1   S       5             9.2866630    0.467941348435
      1   S       6             3.1639270    0.362311985337

      2   L       7             7.8682723   -0.119332419775    0.068999066591
      2   L       8             1.8812885   -0.160854151696    0.316423960957
      2   L       9             0.5442493    1.143456437840    0.744308290898

      3   L      10             0.1687145    1.000000000000    1.000000000000

      4   L      11             0.0438000    1.000000000000    1.000000000000

      5   D      12             0.8000000    1.000000000000

 C         

      6   S      13          3047.5248800    0.001834737132
      6   S      14           457.3695180    0.014037322813
      6   S      15           103.9486850    0.068842622264
      6   S      16            29.2101553    0.232184443216
      6   S      17             9.2866630    0.467941348435
      6   S      18             3.1639270    0.362311985337

      7   L      19             7.8682723   -0.119332419775    0.068999066591
      7   L      20             1.8812885   -0.160854151696    0.316423960957
      7   L      21             0.5442493    1.143456437840    0.744308290898

      8   L      22             0.1687145    1.000000000000    1.000000000000

      9   L      23             0.0438000    1.000000000000    1.000000000000

     10   D      24             0.8000000    1.000000000000

 C         

     16   S      25          3047.5248800    0.001834737132
     16   S      26           457.3695180    0.014037322813
     16   S      27           103.9486850    0.068842622264
     16   S      28            29.2101553    0.232184443216
     16   S      29             9.2866630    0.467941348435
     16   S      30             3.1639270    0.362311985337

     17   L      31             7.8682723   -0.119332419775    0.068999066591
     17   L      32             1.8812885   -0.160854151696    0.316423960957
     17   L      33             0.5442493    1.143456437840    0.744308290898

     18   L      34             0.1687145    1.000000000000    1.000000000000

     19   L      35             0.0438000    1.000000000000    1.000000000000

     20   D      36             0.8000000    1.000000000000

 H         

     25   S      37            18.7311370    0.033494604338
     25   S      38             2.8253944    0.234726953484
     25   S      39             0.6401217    0.813757326146

     26   S      40             0.1612778    1.000000000000

     27   S      41             0.0360000    1.000000000000

     28   P      42             1.1000000    1.000000000000

 H         

     33   S      43            18.7311370    0.033494604338
     33   S      44             2.8253944    0.234726953484
     33   S      45             0.6401217    0.813757326146

     34   S      46             0.1612778    1.000000000000

     35   S      47             0.0360000    1.000000000000

     36   P      48             1.1000000    1.000000000000

 TOTAL NUMBER OF BASIS SET SHELLS             =   36
 NUMBER OF CARTESIAN GAUSSIAN BASIS FUNCTIONS =  100
 NUMBER OF ELECTRONS                          =   28
 CHARGE OF MOLECULE                           =    0
 SPIN MULTIPLICITY                            =    1
 NUMBER OF OCCUPIED ORBITALS (ALPHA)          =   14
 NUMBER OF OCCUPIED ORBITALS (BETA )          =   14
 TOTAL NUMBER OF ATOMS                        =    8
 THE NUCLEAR REPULSION ENERGY IS       96.8477377928

     $CONTRL OPTIONS
     ---------------
 SCFTYP=MCSCF        RUNTYP=GRADIENT     EXETYP=RUN     
 MPLEVL=       0     CITYP =NONE         CCTYP =NONE         VBTYP =NONE    
 DFTTYP=NONE         TDDFT =NONE    
 MULT  =       1     ICHARG=       0     NZVAR =      22     COORD =ZMT     
 PP    =NONE         RELWFN=NONE         LOCAL =NONE         NUMGRD=       F
 ISPHER=      -1     NOSYM =       0     MAXIT =      30     UNITS =ANGS    
 PLTORB=       F     MOLPLT=       F     AIMPAC=       F     FRIEND=        
 NPRINT=       7     IREST =       0     GEOM  =INPUT   
 NORMF =       0     NORMP =       0     ITOL  =      20     ICUT  =       9
 INTTYP=BEST         GRDTYP=BEST         QMTTOL= 1.0E-06

     $SYSTEM OPTIONS
     ---------------
  REPLICATED MEMORY=     2000000 WORDS (ON EVERY NODE).
 DISTRIBUTED MEMDDI=           0 MILLION WORDS IN AGGREGATE,
 MEMDDI DISTRIBUTED OVER   1 PROCESSORS IS           0 WORDS/PROCESSOR.
 TOTAL MEMORY REQUESTED ON EACH PROCESSOR=     2000000 WORDS.
 TIMLIM=      525600.00 MINUTES, OR     365.0 DAYS.
 PARALL= F  BALTYP=  DLB     KDIAG=    0  COREFL= F
 MXSEQ2=     300 MXSEQ3=     150  mem10=         0

          ----------------
          PROPERTIES INPUT
          ----------------

     MOMENTS            FIELD           POTENTIAL          DENSITY
 IEMOM =       1   IEFLD =       0   IEPOT =       0   IEDEN =       0
 WHERE =COMASS     WHERE =NUCLEI     WHERE =NUCLEI     WHERE =NUCLEI  
 OUTPUT=BOTH       OUTPUT=BOTH       OUTPUT=BOTH       OUTPUT=BOTH    
 IEMINT=       0   IEFINT=       0                     IEDINT=       0
                                                       MORB  =       0

     -------------------------------
     INTEGRAL TRANSFORMATION OPTIONS
     -------------------------------
     NWORD  =            0
     CUTOFF = 1.0E-09     MPTRAN =       0
     DIRTRF =       F     AOINTS =DUP     

          ----------------------
          MCSCF INPUT PARAMETERS
          ----------------------
 CONVERGER SELECTION: FOCAS = T  SOSCF = F  FULLNR = F  QUD = F  JACOBI = F
 SECULAR EQUATION METHOD CISTEP = GUGA    
 --- GENERAL INPUT OPTIONS:
 MAXIT =     100  MICIT =       5  ACURCY= 1.000E-05
 DAMP  =   0.000  CANONC=       T  ENGTOL= 1.000E-10
 EKT   =       F  NPUNCH=       2  NWORD =         0
 REGENERATE CI AFTER CONVERGENCE = NONE    
 DIABATIZATION AFTER CONVERGENCE =        F
 --- INPUT FOR FOCAS CONVERGER:
 CASHFT= 1.000E+00    CASDII= 5.000E-02    NRMCAS=       1

          ----------------------
          INTEGRAL INPUT OPTIONS
          ----------------------
 NOPK  =       1 NORDER=       0 SCHWRZ=       T

   --- ENCODED Z MATRIX ---
 COORD  TYPE   I   J   K   L   M   N
    1      1    1   2
    2      1    2   3
    3      1    2   4
    4      1    3   4
    5      1    1   5
    6      1    1   6
    7      1    3   7
    8      1    4   8
    9      2    1   2   3
   10      2    1   2   4
   11      4    1   2   3   4
   12      2    5   1   6
   13      2    5   1   2
   14      2    6   1   2
   15      4    2   1   5   6
   16      3    3   2   1   5
   17      2    7   3   2
   18      2    7   3   4
   19      4    7   3   2   4
   20      2    8   4   2
   21      2    8   4   3
   22      4    8   4   2   3

          INDEP./SYM. INTERNAL COORDINATES
          --------------------------------
 CRD  1=   1.0000 (  1)
 CRD  2=   1.0000 (  2)
 CRD  3=   1.0000 (  3)
 CRD  4=   1.0000 (  4)
 CRD  5=   1.0000 (  5)
 CRD  6=   1.0000 (  6)
 CRD  7=   1.0000 (  7)
 CRD  8=   1.0000 (  8)
 CRD  9=   0.7071 (  9) -0.7071 ( 10)
 CRD 10=   1.0000 ( 11)
 CRD 11=   0.8165 ( 12) -0.4082 ( 13) -0.4082 ( 14)
 CRD 12=   0.7071 ( 13) -0.7071 ( 14)
 CRD 13=   1.0000 ( 15)
 CRD 14=   1.0000 ( 16)
 CRD 15=   0.7071 ( 17) -0.7071 ( 18)
 CRD 16=   1.0000 ( 19)
 CRD 17=   0.7071 ( 20) -0.7071 ( 21)
 CRD 18=   1.0000 ( 22)

 THE DETERMINANT OF THE G MATRIX IS 10**(    -9)


                     --------------------
                     INTERNAL COORDINATES
                     --------------------

                 - - ATOMS - -         COORDINATE      COORDINATE
 NO.   TYPE    I  J  K  L  M  N        (BOHR,RAD)       (ANG,DEG)
 ----------------------------------------------------------------
   1 STRETCH   1  2                     2.5049915       1.3255845
   2 STRETCH   2  3                     2.6947288       1.4259892
   3 STRETCH   2  4                     2.6947288       1.4259892
   4 STRETCH   3  4                     2.4658112       1.3048512
   5 STRETCH   1  5                     2.0298015       1.0741248
   6 STRETCH   1  6                     2.0298015       1.0741248
   7 STRETCH   3  7                     2.0194026       1.0686219
   8 STRETCH   4  8                     2.0194026       1.0686219
   9 BEND      1  2  3                  2.6663830     152.7724900
  10 BEND      1  2  4                  2.6663830     152.7724900
  11 PLA.BEND  1  2  3  4               0.0000000       0.0000000
  12 BEND      5  1  6                  2.0678766     118.4806000
  13 BEND      5  1  2                  2.1076544     120.7597000
  14 BEND      6  1  2                  2.1076544     120.7597000
  15 PLA.BEND  2  1  5  6               0.0000000       0.0000000
  16 TORSION   3  2  1  5               0.0000000       0.0000000
  17 BEND      7  3  2                  2.5977325     148.8391100
  18 BEND      7  3  4                  2.5898662     148.3884000
  19 PLA.BEND  7  3  2  4               0.0000000       0.0000000
  20 BEND      8  4  2                  2.5977325     148.8391100
  21 BEND      8  4  3                  2.5898662     148.3884000
  22 PLA.BEND  8  4  2  3               0.0000000       0.0000000

     ------------------------------------------
     THE POINT GROUP IS CNV, NAXIS= 2, ORDER= 4
     ------------------------------------------

     DIMENSIONS OF THE SYMMETRY SUBSPACES ARE
 A1  =   44     A2  =    9     B1  =   32     B2  =   15

 ..... DONE SETTING UP THE RUN .....
 STEP CPU TIME =     0.18 TOTAL CPU TIME =        0.2 (    0.0 MIN)
 TOTAL WALL CLOCK TIME=        0.3 SECONDS, CPU UTILIZATION IS  69.23%

                    --------------------------------
                    SINGLE POINT ENERGY AND GRADIENT
                    --------------------------------

          ********************
          1 ELECTRON INTEGRALS
          ********************
 TIME TO DO   DIPOLE INTEGRALS=      0.01
 ...... END OF ONE-ELECTRON INTEGRALS ......
 STEP CPU TIME =     0.01 TOTAL CPU TIME =        0.2 (    0.0 MIN)
 TOTAL WALL CLOCK TIME=        0.3 SECONDS, CPU UTILIZATION IS  73.08%

          -------------
          GUESS OPTIONS
          -------------
          GUESS =MOREAD            NORB  =     100          NORDER=       1
          MIX   =       F          PRTMO =       F          PUNMO =       F
          TOLZ  = 1.0E-08          TOLE  = 1.0E-05
          SYMDEN=       F          PURIFY=       F

 INITIAL GUESS ORBITALS GENERATED BY MOREAD   ROUTINE.

 SYMMETRIES FOR INITIAL GUESS ORBITALS FOLLOW.   BOTH SET(S).
    16 ORBITALS ARE OCCUPIED (    4 CORE ORBITALS).
     1=A1       2=B1       3=A1       4=A1       5=A1       6=A1       7=B1  
     8=A1       9=A1      10=B1      11=A1      12=B1      13=B2      14=B2  
    15=B2      16=A2      17=B1      18=A1      19=A1      20=B1      21=A1  
    22=A1      23=B2      24=B1      25=B1      26=A1      27=A1      28=B2  
    29=B1      30=A1      31=A2      32=A1      33=B2      34=A1      35=B1  
    36=B1      37=A1      38=B2      39=B1      40=A1      41=B2      42=A1  
    43=B1      44=B2      45=A2      46=A1      47=B1      48=A1      49=A1  
    50=A1      51=B2      52=B1      53=B1      54=B1      55=A2      56=A1  
    57=B1      58=A1      59=A1      60=B1      61=B2      62=A1      63=B1  
    64=A1      65=B1      66=A1      67=A2      68=A1      69=B1      70=A1  
    71=B2      72=B1      73=A2      74=A1      75=A1      76=A2      77=B1  
    78=A1      79=B2      80=B1      81=A1      82=B1      83=B2      84=B1  
    85=A1      86=B2      87=A2      88=A1      89=B1      90=A2      91=A1  
    92=B1      93=A1      94=A1      95=B1      96=B1      97=A1      98=A1  
    99=A1     100=B1  
 ...... END OF INITIAL ORBITAL SELECTION ......
 STEP CPU TIME =     0.02 TOTAL CPU TIME =        0.2 (    0.0 MIN)
 TOTAL WALL CLOCK TIME=        0.3 SECONDS, CPU UTILIZATION IS  72.41%

                    ----------------------
                    AO INTEGRAL TECHNOLOGY
                    ----------------------
     S,P,L SHELL ROTATED AXIS INTEGRALS, REPROGRAMMED BY
        KAZUYA ISHIMURA (IMS) AND JOSE SIERRA (SYNSTAR).
     S,P,D,L SHELL ROTATED AXIS INTEGRALS PROGRAMMED BY
        KAZUYA ISHIMURA (INSTITUTE FOR MOLECULAR SCIENCE).
     S,P,D,F,G SHELL TO TOTAL QUARTET ANGULAR MOMENTUM SUM 5,
        ERIC PROGRAM BY GRAHAM FLETCHER (ELORET AND NASA ADVANCED
        SUPERCOMPUTING DIVISION, AMES RESEARCH CENTER).
     S,P,D,F,G,L SHELL GENERAL RYS QUADRATURE PROGRAMMED BY
        MICHEL DUPUIS (PACIFIC NORTHWEST NATIONAL LABORATORY).

          --------------------
          2 ELECTRON INTEGRALS
          --------------------

 THE -PK- OPTION IS OFF, THE INTEGRALS ARE NOT IN SUPERMATRIX FORM.
 STORING   15000 INTEGRALS/RECORD ON DISK, USING 12 BYTES/INTEGRAL.
 TWO ELECTRON INTEGRAL EVALUATION REQUIRES   91062 WORDS OF MEMORY.
 SCHWARZ INEQUALITY OVERHEAD:      5048 INTEGRALS, T=        0.00
 II,JST,KST,LST =  1  1  1  1 NREC =         1 INTLOC =    1
 II,JST,KST,LST =  2  1  1  1 NREC =         1 INTLOC =    2
 II,JST,KST,LST =  3  1  1  1 NREC =         1 INTLOC =   34
 II,JST,KST,LST =  4  1  1  1 NREC =         1 INTLOC =  214
 II,JST,KST,LST =  5  1  1  1 NREC =         1 INTLOC =  776
 II,JST,KST,LST =  6  1  1  1 NREC =         1 INTLOC = 2864
 II,JST,KST,LST =  7  1  1  1 NREC =         1 INTLOC = 4164
 II,JST,KST,LST =  8  1  1  1 NREC =         1 INTLOC =10804
 II,JST,KST,LST =  9  1  1  1 NREC =         2 INTLOC = 6472
 II,JST,KST,LST = 10  1  1  1 NREC =         3 INTLOC = 7422
 II,JST,KST,LST = 11  1  1  1 NREC =         5 INTLOC =12579
 II,JST,KST,LST = 12  1  1  1 NREC =         5 INTLOC =12579
 II,JST,KST,LST = 13  1  1  1 NREC =         5 INTLOC =12579
 II,JST,KST,LST = 14  1  1  1 NREC =         5 INTLOC =12579
 II,JST,KST,LST = 15  1  1  1 NREC =         5 INTLOC =12579
 II,JST,KST,LST = 16  1  1  1 NREC =         5 INTLOC =12579
 II,JST,KST,LST = 17  1  1  1 NREC =         6 INTLOC =13288
 II,JST,KST,LST = 18  1  1  1 NREC =        13 INTLOC = 5009
 II,JST,KST,LST = 19  1  1  1 NREC =        23 INTLOC =10571
 II,JST,KST,LST = 20  1  1  1 NREC =        39 INTLOC = 3446
 II,JST,KST,LST = 21  1  1  1 NREC =        74 INTLOC = 1925
 II,JST,KST,LST = 22  1  1  1 NREC =        74 INTLOC = 1925
 II,JST,KST,LST = 23  1  1  1 NREC =        74 INTLOC = 1925
 II,JST,KST,LST = 24  1  1  1 NREC =        74 INTLOC = 1925
 II,JST,KST,LST = 25  1  1  1 NREC =        74 INTLOC = 1925
 II,JST,KST,LST = 26  1  1  1 NREC =        82 INTLOC = 4585
 II,JST,KST,LST = 27  1  1  1 NREC =        91 INTLOC =10221
 II,JST,KST,LST = 28  1  1  1 NREC =       101 INTLOC =13339
 II,JST,KST,LST = 29  1  1  1 NREC =       130 INTLOC = 9530
 II,JST,KST,LST = 30  1  1  1 NREC =       130 INTLOC = 9530
 II,JST,KST,LST = 31  1  1  1 NREC =       130 INTLOC = 9530
 II,JST,KST,LST = 32  1  1  1 NREC =       130 INTLOC = 9530
 II,JST,KST,LST = 33  1  1  1 NREC =       130 INTLOC = 9530
 II,JST,KST,LST = 34  1  1  1 NREC =       142 INTLOC = 5814
 II,JST,KST,LST = 35  1  1  1 NREC =       156 INTLOC = 9245
 II,JST,KST,LST = 36  1  1  1 NREC =       172 INTLOC =  603
 SCHWARZ INEQUALITY TEST SKIPPED        9294 INTEGRAL BLOCKS.
 TOTAL NUMBER OF NONZERO TWO-ELECTRON INTEGRALS =             3146999
        210 INTEGRAL RECORDS WERE STORED ON DISK FILE  8.
  ...... END OF TWO-ELECTRON INTEGRALS .....
 STEP CPU TIME =     0.37 TOTAL CPU TIME =        0.6 (    0.0 MIN)
 TOTAL WALL CLOCK TIME=        0.8 SECONDS, CPU UTILIZATION IS  75.32%

          -----------------
          MCSCF CALCULATION
          -----------------

 ----- NUCLEAR ENERGY ----- =        96.8477377928

          -----------------------     ----------------------------
          GUGA DISTINCT ROW TABLE     WRITTEN BY B.R.BROOKS,P.SAXE
          -----------------------     ----------------------------

      GROUP=C2V          NPRT=       0
       FORS=       T   INTACT=       F
       FOCI=       F   MXNINT=   50000
       SOCI=       F   MXNEME=   10000
     IEXCIT=       0

      -CORE-    -INTERNAL-  -EXTERNAL-
     NFZC=   0   NDOC=   2   NEXT=   0
     NMCC=  12   NAOS=   0   NFZV=   0
                 NBOS=   0
                 NALP=   0
                 NVAL=   2

 THE MAXIMUM ELECTRON EXCITATION WILL BE   4

 SYMMETRIES FOR THE  12 CORE,   4 ACTIVE,   0 EXTERNAL MO-S ARE
     CORE= A1    B1    A1    A1    A1    A1    B1    A1    A1    B1  
           A1    B1  
   ACTIVE= B2    B2    B2    A2  
           DOC   DOC   VAL   VAL 

 MOLECULAR CHARGE          =    0
 NUMBER OF ALPHA ELECTRONS =   14
 NUMBER OF  BETA ELECTRONS =   14

 THE ELECTRONIC STATE IS  1-A1  

 THE DISTINCT ROW TABLE HAS        13 ROWS.
  THE WAVEFUNCTION CONTAINS        12 WALKS (CSF-S).

 TOTAL NUMBER OF INTEGRALS =         45
 NUMBER OF INTEGRALS/GROUP =         45
 NUMBER OF INTEGRAL GROUPS =          1
 MAXIMUM RECORD SIZES ARE     500 FOR UNIT 11      22 FOR UNIT 12
                            30001 FOR UNIT 15   30001 FOR UNIT 16
 ...... END OF -DRT- GENERATION ...... 
 STEP CPU TIME =     0.02 TOTAL CPU TIME =        0.6 (    0.0 MIN)
 TOTAL WALL CLOCK TIME=        1.2 SECONDS, CPU UTILIZATION IS  49.59%
 OPENING FILE DAFL30 WITH      81 LOGICAL RECORDS OF   10000 WORDS
 WITH A MAXIMUM OF         405 PHYSICAL RECORDS OF    2048 WORDS

          ------------------------------
          CASSCF INTEGRAL TRANSFORMATION
          ------------------------------
 AO INTEGRALS WILL BE READ IN FROM DISK...

 NUMBER OF CORE MOLECULAR ORBITALS     =    12
 NUMBER OF OCCUPIED MOLECULAR ORBITALS =    16
 TOTAL NUMBER OF MOLECULAR ORBITALS    =   100
 TOTAL NUMBER OF ATOMIC ORBITALS       =   100
 MEMORY WHICH WOULD BE NEEDED FOR SINGLE PASS TRANSFORMATION =    2155751

 ----- CHOOSING THREE STEPS TRANSFORMATION -----
 NUMBER OF WORDS USED      =    1171001
 NUMBER OF WORDS AVAILABLE =    2000000
 NUMBER OF PASSES          =          2
 PASS #   1 COMPLETED IN         0.1 SECONDS.
 PASS #   2 COMPLETED IN         0.1 SECONDS.

 ----- NUCLEAR REPULSION ENERGY =     96.84773779
 ----- FROZEN CORE ENERGY       =   -247.04008233

 ... SYMMETRY ...           CPU =    0.01
 ... (PQ|RS) -> (PQ|KL) ... CPU =    0.17
 ... (PQ|KL) -> (IJ|KL) ... CPU =    0.00

 NUMBER OF (PQ|KL) INTEGRALS WRITTEN      30842
 NUMBER OF (IJ|KL) INTEGRALS WRITTEN         34
 ..... END OF CAS INTEGRAL TRANSFORMATION .....
 STEP CPU TIME =     0.18 TOTAL CPU TIME =        0.8 (    0.0 MIN)
 TOTAL WALL CLOCK TIME=        4.3 SECONDS, CPU UTILIZATION IS  18.01%

          ------------------------
          GUGA-CI INTEGRAL SORTING
          ------------------------

     80073 WORDS NEEDED TO SORT             45 GUGA INTEGRALS IN MEMORY
   2000000 WORDS ARE AVAILABLE
 CHOOSING IN-MEMORY SORTING...
 IN CORE ALGORITHM SORTED              7 NON-ZERO 1E- INTEGRALS
 IN CORE ALGORITHM SORTED             34 NON-ZERO 2E- INTEGRALS
 ...... END OF INTEGRAL SORTING ...... 
 STEP CPU TIME =     0.00 TOTAL CPU TIME =        0.8 (    0.0 MIN)
 TOTAL WALL CLOCK TIME=        4.9 SECONDS, CPU UTILIZATION IS  16.02%

 -------------------------     ---------------------------------------
 ENERGY MATRIX CALCULATION     WRITTEN BY B.R.BROOKS,W.D.LAIDIG,P.SAXE
 -------------------------     ---------------------------------------

 COMPUTING THE HAMILTONIAN FOR THE        12 CSF-S...

         102 IS THE TOTAL NUMBER OF GENERATED LOOPS
         102 WERE CREATED BY THE LOOP-DRIVEN ALGORITHM
           0 WERE CREATED IMPLICITLY

         101 IS THE TOTAL NUMBER OF PROCESSED LOOPS
          35     DIAGONAL LOOPS ARE STORED ON WORK15 IN     1 BUFFERS OF  10000 ELEMENTS.
          66 OFF DIAGONAL LOOPS ARE STORED ON WORK16 IN     1 BUFFERS OF  10000 ELEMENTS.
 ...... END OF ENERGY MATRIX CALCULATION ...... 
 STEP CPU TIME =     0.01 TOTAL CPU TIME =        0.8 (    0.0 MIN)
 TOTAL WALL CLOCK TIME=        5.3 SECONDS, CPU UTILIZATION IS  15.02%

          -----------------------------------------
          DAVIDSON METHOD CI-MATRIX DIAGONALIZATION
                   WRITTEN BY STEVE ELBERT
          -----------------------------------------
 NUMBER OF STATES REQUESTED =     1
 MAX. NUMB. OF EXPAN. VEC   =    30
 MAX. NUMB. IMPROVED STATES =     1
 MAX. NUMB. OF ITERATIONS   =    50
 CONVERGENCE CRITERION      =    1.0E-06

 CHOOSING TO SOLVE SECULAR EQUATION IN MEMORY
 NUMBER OF WORDS AVAILABLE =    2000000
 NUMBER OF WORDS USED      =      31188
 ENERGY MATRIX BUFFER SIZE =      10000
 SOLUTION FOUND WITH DIRECT METHOD

 STATE #    1  ENERGY =    -153.722143848

      CSF      COEF    OCCUPANCY (IGNORING CORE)
      ---      ----    --------- --------- -----
        1    0.975322  2200
        2   -0.062322  2002
        3   -0.117458  1102
        4   -0.099571  0202
        9   -0.103300  2020
       10    0.069783  1120
       11   -0.052752  0220
 ...... END OF CI-MATRIX DIAGONALIZATION ......
 STEP CPU TIME =     0.00 TOTAL CPU TIME =        0.8 (    0.0 MIN)
 TOTAL WALL CLOCK TIME=        5.5 SECONDS, CPU UTILIZATION IS  14.39%

          -------------------------------------
          2-PARTICLE DENSITY MATRIX CALCULATION
          -------------------------------------
 2 BODY DENSITY IS AN AVERAGE OF  1 STATE(S).
   STATE    WEIGHT          ENERGY
     1    1.000000     -153.7221438480
          102 -DM2- LOOPS WERE GENERATED
          102 WERE CREATED BY THE LOOP-DRIVEN ALGORITHM
            0 WERE CREATED IMPLICITLY
          1 RECORDS OF LENGTH 50000 WRITTEN TO FILE 15
 ...... END OF 2-PARTICLE DENSITY MATRIX CALCULATION ......
 STEP CPU TIME =     0.01 TOTAL CPU TIME =        0.8 (    0.0 MIN)
 TOTAL WALL CLOCK TIME=        5.6 SECONDS, CPU UTILIZATION IS  14.26%

          ----------------------------------
          2-PARTICLE DENSITY MATRIX LABELING
          ----------------------------------
      96576 WORDS NEEDED TO LABEL DM2 MATRIX
          1 RECORDS OF LENGTH 50000  READ FROM FILE 15
          1 RECORDS OF LENGTH 15000 WRITTEN TO FILE 16
 ...... END OF 2-PARTICLE DENSITY MATRIX LABELING ......
 STEP CPU TIME =     0.00 TOTAL CPU TIME =        0.8 (    0.0 MIN)
 TOTAL WALL CLOCK TIME=        5.7 SECONDS, CPU UTILIZATION IS  13.94%

          --------------
          -DM2- ORDERING
          --------------
      30066 WORDS NEEDED (   2000000 AVAILABLE) TO ORDER DM2 IN MEMORY
 CHOOSING IN MEMORY ORDERING...
                               1 RECORDS OF LENGTH 15000  READ FROM FILE 16
         34 DM2 VALUES IN      1 RECORDS OF LENGTH 15000 WRITTEN TO FILE 15
 ...... END OF -DM2- ORDERING ...... 
 STEP CPU TIME =     0.00 TOTAL CPU TIME =        0.8 (    0.0 MIN)
 TOTAL WALL CLOCK TIME=        5.8 SECONDS, CPU UTILIZATION IS  13.84%

          --------------------------
          FIRST-ORDER CASSCF PROGRAM
          --------------------------
          PROGRAM WRITTEN BY A.MARQUEZ AND M.DUPUIS

  NUMBER OF WORDS NEEDED     =     132110
  NUMBER AVAILABLE           =    2000000

 ----- GAMMA(IJKL)*(PQ|KL) PRODUCTS ----- CPU TIME =      0.000
 ----- ORBITAL SYMMETRY             ----- CPU TIME =      0.000
 ----- FOCK OPERATORS CONSTRUCTION  ----- CPU TIME =      0.050
 ----- WARNING : CORE-ACTIVE GAP    =    0.11133
     MICIT =   1 ASYMM =    0.018556 ROTMAX =    0.014996
 ----- EFFECTIVE FOCK + ROTATE ORBS ----- CPU TIME =      0.000
     MICIT =   2 ASYMM =    0.009959 ROTMAX =    0.003823
     MICIT =   3 ASYMM =    0.009080 ROTMAX =    0.007461
     MICIT =   4 ASYMM =    0.008000 ROTMAX =    0.012267
     MICIT =   5 ASYMM =    0.006906 ROTMAX =    0.010732
 ..... DONE WITH CASSCF ORBITAL UPDATE .....
 STEP CPU TIME =     0.09 TOTAL CPU TIME =        0.9 (    0.0 MIN)
 TOTAL WALL CLOCK TIME=        6.0 SECONDS, CPU UTILIZATION IS  14.91%

 ITER     TOTAL ENERGY      DEL(E)  LAGRANGIAN ASYMMETRY   SQCDF  MICIT   DAMP
   1     -153.722143848 -0.722143848  0.018556   28   14 1.500E-02  5   0.0000
   2     -153.726176574 -0.004032726  0.007349   41   15 2.303E-02  5   0.0000
   3     -153.728190938 -0.002014363  0.003929   23   15 2.519E-02  5   0.0000
   4     -153.728872130 -0.000681192  0.002186   23   15 1.809E-02  5   0.0000
   5     -153.729014425 -0.000142295  0.001132   23   15 1.319E-02  5   0.0000
   6     -153.729049769 -0.000035344  0.000498   33   15 6.072E-03  5   0.0000
   7     -153.729057055 -0.000007286  0.000223   33   15 4.184E-03  5   0.0000
   8     -153.729059382 -0.000002327  0.000108   51   15 2.621E-03  5   0.0000
   9     -153.729060018 -0.000000636  0.000045   23   15 1.224E-03  5   0.0000
  10     -153.729060164 -0.000000146  0.000015   79   15 2.964E-04  5   0.0000
  11     -153.729060180 -0.000000016  0.000008   79   15 1.364E-04  1   0.0000
  12     -153.729060180  0.000000000  0.000005   28   15 1.880E-05  1   0.0000

          --------------------
          LAGRANGIAN CONVERGED
          --------------------

 FINAL MCSCF ENERGY IS     -153.7290601800 AFTER  12 ITERATIONS

 -MCCI- BASED ON OPTIMIZED ORBITALS
 ----------------------------------

 PLEASE NOTE: IF THE ACTIVE ORBITALS ARE CANONICALIZED BELOW,
 THE FOLLOWING CI EXPANSION COEFFICIENTS AND THE DENSITY DO NOT
 CORRESPOND TO THE PRINTED ORBITALS.  THE PRINTED EXPANSIONS MATCH
 THE ORBITALS USED DURING THE LAST ITERATION.  IF YOU WISH TO SEE
 CI EXPANSIONS BASED ON THE CANONICAL (OR NATURAL) ORBITALS, YOU
 MUST RUN A CI CALCULATION WITH THAT ORBITAL CHOICE READ IN $VEC.

 STATE #    1  ENERGY =    -153.729060180

      CSF      COEF    OCCUPANCY (IGNORING CORE)
      ---      ----    --------- --------- -----
        1    0.965645  2200
        2   -0.071911  2002
        3   -0.130860  1102
        4   -0.104042  0202
        5    0.060022  2110
        6    0.009068  1210
        7   -0.012530  1012
        8    0.015587  0112
        9   -0.142402  2020
       10    0.083653  1120
       11   -0.046409  0220
       12    0.029919  0022

 DENSITY MATRIX OVER ACTIVE MO-S

             1           2           3           4

    1    1.9474054
    2    0.0105748   1.9190287
    3   -0.0155144   0.0706332   0.0647350
    4    0.0000000   0.0000000   0.0000000   0.0688309

 FORMING THE "STANDARD FOCK OPERATOR" USING INTEGRALS FROM DISK...
 ONLY THE   12 CORE AND   84 VIRTUAL ORBITALS WILL BE CANONICALIZED

          ----------------------
          MCSCF NATURAL ORBITALS
          ----------------------

                      1          2          3          4          5
                  -11.2605   -11.2584   -11.2540   -11.1928    -1.2062
                     A1         B1         A1         A1         A1  
    1  C  1  S    0.001038   0.000000   0.013133   0.995561  -0.030122
    2  C  1  S    0.000147   0.000000   0.000130   0.028166   0.057000
    3  C  1  X    0.000000  -0.000042  -0.000000  -0.000000  -0.000000
    4  C  1  Y    0.000000   0.000000  -0.000000  -0.000000  -0.000000
    5  C  1  Z    0.000150   0.000000  -0.000564   0.000449   0.036393
    6  C  1  S   -0.001305   0.000000   0.000328  -0.012776   0.027319
    7  C  1  X    0.000000   0.002007  -0.000000  -0.000000  -0.000000
    8  C  1  Y    0.000000   0.000000  -0.000000  -0.000000  -0.000000
    9  C  1  Z   -0.000426   0.000000   0.000388  -0.001295  -0.002047
   10  C  1  S    0.036819   0.000000  -0.003410  -0.001920   0.136157
   11  C  1  X    0.000000   0.000153  -0.000000  -0.000000  -0.000000
   12  C  1  Y    0.000000   0.000000  -0.000000  -0.000000  -0.000000
   13  C  1  Z    0.007099   0.000000  -0.001909  -0.001666   0.037369
   14  C  1 XX   -0.000034   0.000000  -0.000305  -0.001727  -0.001543
   15  C  1 YY    0.000019   0.000000   0.000003  -0.002357  -0.002016
   16  C  1 ZZ    0.000304   0.000000  -0.000681  -0.001365   0.003577
   17  C  1 XY    0.000000   0.000000  -0.000000  -0.000000  -0.000000
   18  C  1 XZ    0.000000   0.000206  -0.000000  -0.000000  -0.000000
   19  C  1 YZ    0.000000   0.000000  -0.000000  -0.000000  -0.000000
   20  C  2  S    0.102852   0.000000   0.990314  -0.013787  -0.125358
   21  C  2  S    0.003030   0.000000   0.027337  -0.000507   0.238690
   22  C  2  X    0.000000   0.000172  -0.000000  -0.000000  -0.000000
   23  C  2  Y    0.000000   0.000000  -0.000000  -0.000000  -0.000000
   24  C  2  Z   -0.000236   0.000000   0.001573   0.000310   0.129553
   25  C  2  S    0.004009   0.000000  -0.013432   0.004519   0.144225
   26  C  2  X    0.000000  -0.003572  -0.000000  -0.000000  -0.000000
   27  C  2  Y    0.000000   0.000000  -0.000000  -0.000000  -0.000000
   28  C  2  Z    0.000659   0.000000  -0.003579  -0.001159   0.007005
   29  C  2  S    0.001796   0.000000   0.047805   0.004150  -0.155593
   30  C  2  X    0.000000   0.005079  -0.000000  -0.000000  -0.000000
   31  C  2  Y    0.000000   0.000000  -0.000000  -0.000000  -0.000000
   32  C  2  Z    0.026835   0.000000   0.011784  -0.004661   0.043596
   33  C  2 XX   -0.000407   0.000000  -0.001871  -0.000119  -0.005801
   34  C  2 YY   -0.000363   0.000000  -0.002260   0.000022  -0.013554
   35  C  2 ZZ   -0.001381   0.000000   0.000523  -0.000456   0.021207
   36  C  2 XY    0.000000   0.000000  -0.000000  -0.000000  -0.000000
   37  C  2 XZ    0.000000   0.000471  -0.000000  -0.000000  -0.000000
   38  C  2 YZ    0.000000   0.000000  -0.000000  -0.000000  -0.000000
   39  C  3  S    0.700022   0.704362  -0.073081   0.000283  -0.133995
   40  C  3  S    0.019541   0.020337  -0.001732   0.000058   0.250873
   41  C  3  X    0.000279   0.001021  -0.000261   0.000015   0.140200
   42  C  3  Y    0.000000   0.000000  -0.000000  -0.000000  -0.000000
   43  C  3  Z   -0.000342  -0.000556   0.000296   0.000023  -0.073619
   44  C  3  S   -0.006531  -0.016403   0.003946  -0.000505   0.152910
   45  C  3  X   -0.000731  -0.004923   0.000355   0.000013   0.000825
   46  C  3  Y    0.000000   0.000000  -0.000000  -0.000000  -0.000000
   47  C  3  Z    0.001371   0.002245  -0.001366   0.000371  -0.001940
   48  C  3  S   -0.016244   0.044847  -0.020350   0.001212  -0.013487
   49  C  3  X   -0.003252   0.010170  -0.003031   0.000452   0.002364
   50  C  3  Y    0.000000   0.000000  -0.000000  -0.000000  -0.000000
   51  C  3  Z    0.003606  -0.004297   0.005497  -0.000101  -0.004073
   52  C  3 XX   -0.000714   0.000318  -0.000372   0.000026   0.013076
   53  C  3 YY   -0.001662  -0.001635   0.000093   0.000011  -0.012323
   54  C  3 ZZ   -0.001148  -0.001053  -0.000785   0.000017   0.001889
   55  C  3 XY    0.000000   0.000000  -0.000000  -0.000000  -0.000000
   56  C  3 XZ   -0.000509  -0.000828   0.000677  -0.000026  -0.011404
   57  C  3 YZ    0.000000   0.000000  -0.000000  -0.000000  -0.000000
   58  C  4  S    0.700022  -0.704362  -0.073081   0.000283  -0.133995
   59  C  4  S    0.019541  -0.020337  -0.001732   0.000058   0.250873
   60  C  4  X   -0.000279   0.001021   0.000261  -0.000015  -0.140200
   61  C  4  Y    0.000000   0.000000  -0.000000  -0.000000  -0.000000
   62  C  4  Z   -0.000342   0.000556   0.000296   0.000023  -0.073619
   63  C  4  S   -0.006531   0.016403   0.003946  -0.000505   0.152910
   64  C  4  X    0.000731  -0.004923  -0.000355  -0.000013  -0.000825
   65  C  4  Y    0.000000   0.000000  -0.000000  -0.000000  -0.000000
   66  C  4  Z    0.001371  -0.002245  -0.001366   0.000371  -0.001940
   67  C  4  S   -0.016244  -0.044847  -0.020350   0.001212  -0.013487
   68  C  4  X    0.003252   0.010170   0.003031  -0.000452  -0.002364
   69  C  4  Y    0.000000   0.000000  -0.000000  -0.000000  -0.000000
   70  C  4  Z    0.003606   0.004297   0.005497  -0.000101  -0.004073
   71  C  4 XX   -0.000714  -0.000318  -0.000372   0.000026   0.013076
   72  C  4 YY   -0.001662   0.001635   0.000093   0.000011  -0.012323
   73  C  4 ZZ   -0.001148   0.001053  -0.000785   0.000017   0.001889
   74  C  4 XY    0.000000   0.000000  -0.000000  -0.000000  -0.000000
   75  C  4 XZ    0.000509  -0.000828  -0.000677   0.000026   0.011404
   76  C  4 YZ    0.000000   0.000000  -0.000000  -0.000000  -0.000000
   77  H  5  S    0.000019   0.000079   0.000030  -0.000052   0.011335
   78  H  5  S    0.000302   0.000989   0.000185   0.001251  -0.000657
   79  H  5  S    0.000502   0.000889   0.000033  -0.002151   0.004928
   80  H  5  X   -0.000001  -0.000034   0.000109  -0.000241   0.000956
   81  H  5  Y    0.000000   0.000000  -0.000000  -0.000000  -0.000000
   82  H  5  Z    0.000045   0.000008   0.000100  -0.000064   0.000698
   83  H  6  S    0.000019  -0.000079   0.000030  -0.000052   0.011335
   84  H  6  S    0.000302  -0.000989   0.000185   0.001251  -0.000657
   85  H  6  S    0.000502  -0.000889   0.000033  -0.002151   0.004928
   86  H  6  X    0.000001  -0.000034  -0.000109   0.000241  -0.000956
   87  H  6  Y    0.000000   0.000000  -0.000000  -0.000000  -0.000000
   88  H  6  Z    0.000045  -0.000008   0.000100  -0.000064   0.000698
   89  H  7  S   -0.000450  -0.000630   0.000216  -0.000028   0.033922
   90  H  7  S   -0.000261  -0.000286  -0.000267   0.000215  -0.005463
   91  H  7  S   -0.002518   0.001335  -0.001267   0.000408   0.012416
   92  H  7  X   -0.000359  -0.000433   0.000289  -0.000014   0.002621
   93  H  7  Y    0.000000   0.000000  -0.000000  -0.000000  -0.000000
   94  H  7  Z    0.000185   0.000358   0.000023  -0.000025  -0.001516
   95  H  8  S   -0.000450   0.000630   0.000216  -0.000028   0.033922
   96  H  8  S   -0.000261   0.000286  -0.000267   0.000215  -0.005463
   97  H  8  S   -0.002518  -0.001335  -0.001267   0.000408   0.012416
   98  H  8  X    0.000359  -0.000433  -0.000289   0.000014  -0.002621
   99  H  8  Y    0.000000   0.000000  -0.000000  -0.000000  -0.000000
  100  H  8  Z    0.000185  -0.000358   0.000023  -0.000025  -0.001516

                      6          7          8          9         10
                   -0.9703    -0.7914    -0.7538    -0.6567    -0.5853
                     A1         B1         A1         A1         B1  
    1  C  1  S   -0.177077   0.000000   0.054510   0.055607  -0.000000
    2  C  1  S    0.330136   0.000000  -0.102001  -0.107431  -0.000000
    3  C  1  X    0.000000  -0.037940  -0.000000   0.000000   0.384658
    4  C  1  Y    0.000000   0.000000  -0.000000   0.000000  -0.000000
    5  C  1  Z    0.097042   0.000000   0.082805   0.331531  -0.000000
    6  C  1  S    0.290339   0.000000  -0.130952  -0.095176  -0.000000
    7  C  1  X    0.000000  -0.001625  -0.000000   0.000000   0.175540
    8  C  1  Y    0.000000   0.000000  -0.000000   0.000000  -0.000000
    9  C  1  Z    0.018367   0.000000   0.014143   0.131590  -0.000000
   10  C  1  S   -0.104989   0.000000   0.413031  -0.243637  -0.000000
   11  C  1  X    0.000000   0.020230  -0.000000   0.000000  -0.044174
   12  C  1  Y    0.000000   0.000000  -0.000000   0.000000  -0.000000
   13  C  1  Z   -0.015651   0.000000   0.086917  -0.052216  -0.000000
   14  C  1 XX   -0.002622   0.000000  -0.007098  -0.022734  -0.000000
   15  C  1 YY   -0.014166   0.000000   0.004807   0.004732  -0.000000
   16  C  1 ZZ    0.013696   0.000000   0.001347   0.016122  -0.000000
   17  C  1 XY    0.000000   0.000000  -0.000000   0.000000  -0.000000
   18  C  1 XZ    0.000000  -0.003075  -0.000000   0.000000  -0.012754
   19  C  1 YZ    0.000000   0.000000  -0.000000   0.000000  -0.000000
   20  C  2  S   -0.097731   0.000000  -0.079449  -0.085062  -0.000000
   21  C  2  S    0.188531   0.000000   0.160474   0.169000  -0.000000
   22  C  2  X    0.000000  -0.144860  -0.000000   0.000000   0.205313
   23  C  2  Y    0.000000   0.000000  -0.000000   0.000000  -0.000000
   24  C  2  Z   -0.229328   0.000000   0.120110  -0.184173  -0.000000
   25  C  2  S    0.160634   0.000000   0.163591   0.217580  -0.000000
   26  C  2  X    0.000000  -0.052426  -0.000000   0.000000   0.061497
   27  C  2  Y    0.000000   0.000000  -0.000000   0.000000  -0.000000
   28  C  2  Z    0.009257   0.000000   0.008818   0.041507  -0.000000
   29  C  2  S    0.054173   0.000000  -0.049986  -0.131387  -0.000000
   30  C  2  X    0.000000  -0.051886  -0.000000   0.000000   0.068212
   31  C  2  Y    0.000000   0.000000  -0.000000   0.000000  -0.000000
   32  C  2  Z   -0.039978   0.000000   0.245681  -0.227285  -0.000000
   33  C  2 XX   -0.007435   0.000000  -0.003393   0.003625  -0.000000
   34  C  2 YY   -0.005235   0.000000  -0.007116  -0.003007  -0.000000
   35  C  2 ZZ    0.010682   0.000000   0.008284  -0.002429  -0.000000
   36  C  2 XY    0.000000   0.000000  -0.000000   0.000000  -0.000000
   37  C  2 XZ    0.000000  -0.017304  -0.000000   0.000000  -0.001425
   38  C  2 YZ    0.000000   0.000000  -0.000000   0.000000  -0.000000
   39  C  3  S    0.050795  -0.118522   0.059842   0.006384  -0.004878
   40  C  3  S   -0.096860   0.235140  -0.118088  -0.013839   0.010533
   41  C  3  X   -0.059251  -0.168989   0.134209  -0.217992  -0.043529
   42  C  3  Y    0.000000   0.000000  -0.000000   0.000000  -0.000000
   43  C  3  Z   -0.030769   0.008694  -0.230261  -0.001685   0.110915
   44  C  3  S   -0.097311   0.228347  -0.140147  -0.023997  -0.038401
   45  C  3  X   -0.011531  -0.070382   0.036607  -0.082854  -0.043926
   46  C  3  Y    0.000000   0.000000  -0.000000   0.000000  -0.000000
   47  C  3  Z    0.000755   0.012558  -0.069450   0.011842   0.069812
   48  C  3  S    0.022243  -0.219088  -0.145033   0.185938   0.122819
   49  C  3  X   -0.000049  -0.028801  -0.047264   0.034698   0.024774
   50  C  3  Y    0.000000   0.000000  -0.000000   0.000000  -0.000000
   51  C  3  Z   -0.001971   0.019638   0.041381  -0.048224  -0.027968
   52  C  3 XX   -0.009346   0.002555  -0.010486  -0.008337   0.007677
   53  C  3 YY    0.003548  -0.007977   0.001043   0.001175   0.000143
   54  C  3 ZZ    0.006910   0.007914   0.010218   0.008874  -0.010890
   55  C  3 XY    0.000000   0.000000  -0.000000   0.000000  -0.000000
   56  C  3 XZ    0.001815  -0.013137  -0.007468  -0.003454  -0.005269
   57  C  3 YZ    0.000000   0.000000  -0.000000   0.000000  -0.000000
   58  C  4  S    0.050795   0.118522   0.059842   0.006384   0.004878
   59  C  4  S   -0.096860  -0.235140  -0.118088  -0.013839  -0.010533
   60  C  4  X    0.059251  -0.168989  -0.134209   0.217992  -0.043529
   61  C  4  Y    0.000000   0.000000  -0.000000   0.000000  -0.000000
   62  C  4  Z   -0.030769  -0.008694  -0.230261  -0.001685  -0.110915
   63  C  4  S   -0.097311  -0.228347  -0.140147  -0.023997   0.038401
   64  C  4  X    0.011531  -0.070382  -0.036607   0.082854  -0.043926
   65  C  4  Y    0.000000   0.000000  -0.000000   0.000000  -0.000000
   66  C  4  Z    0.000755  -0.012558  -0.069450   0.011842  -0.069812
   67  C  4  S    0.022243   0.219088  -0.145033   0.185938  -0.122819
   68  C  4  X    0.000049  -0.028801   0.047264  -0.034698   0.024774
   69  C  4  Y    0.000000   0.000000  -0.000000   0.000000  -0.000000
   70  C  4  Z   -0.001971  -0.019638   0.041381  -0.048224   0.027968
   71  C  4 XX   -0.009346  -0.002555  -0.010486  -0.008337  -0.007677
   72  C  4 YY    0.003548   0.007977   0.001043   0.001175  -0.000143
   73  C  4 ZZ    0.006910  -0.007914   0.010218   0.008874   0.010890
   74  C  4 XY    0.000000   0.000000  -0.000000   0.000000  -0.000000
   75  C  4 XZ   -0.001815  -0.013137   0.007468   0.003454  -0.005269
   76  C  4 YZ    0.000000   0.000000  -0.000000   0.000000  -0.000000
   77  H  5  S    0.105576   0.015438  -0.070914  -0.155996  -0.206208
   78  H  5  S    0.033333   0.013058  -0.041780  -0.106554  -0.153105
   79  H  5  S    0.008343   0.007905   0.000140  -0.019871  -0.041199
   80  H  5  X    0.008917   0.001108  -0.004865  -0.009369  -0.007802
   81  H  5  Y    0.000000   0.000000  -0.000000   0.000000  -0.000000
   82  H  5  Z    0.006668   0.001075  -0.001892  -0.001031  -0.007817
   83  H  6  S    0.105576  -0.015438  -0.070914  -0.155996   0.206208
   84  H  6  S    0.033333  -0.013058  -0.041780  -0.106554   0.153105
   85  H  6  S    0.008343  -0.007905   0.000140  -0.019871   0.041199
   86  H  6  X   -0.008917   0.001108   0.004865   0.009369  -0.007802
   87  H  6  Y    0.000000   0.000000  -0.000000   0.000000  -0.000000
   88  H  6  Z    0.006668  -0.001075  -0.001892  -0.001031   0.007817
   89  H  7  S   -0.026368   0.188536  -0.180103   0.100138   0.071564
   90  H  7  S   -0.007881   0.094068  -0.109176   0.067582   0.047577
   91  H  7  S   -0.004578   0.015971  -0.034643   0.022348   0.023796
   92  H  7  X   -0.002075   0.010029  -0.012606   0.004633   0.003889
   93  H  7  Y    0.000000   0.000000  -0.000000   0.000000  -0.000000
   94  H  7  Z    0.000104  -0.007627   0.005533  -0.005424  -0.000893
   95  H  8  S   -0.026368  -0.188536  -0.180103   0.100138  -0.071564
   96  H  8  S   -0.007881  -0.094068  -0.109176   0.067582  -0.047577
   97  H  8  S   -0.004578  -0.015971  -0.034643   0.022348  -0.023796
   98  H  8  X    0.002075   0.010029   0.012606  -0.004633   0.003889
   99  H  8  Y    0.000000   0.000000  -0.000000   0.000000  -0.000000
  100  H  8  Z    0.000104   0.007627   0.005533  -0.005424   0.000893

                     11         12         13         14         15
                   -0.5216    -0.4345     1.9509     1.9183     0.0688
                     A1         B1         B2         B2         A2  
    1  C  1  S   -0.015687  -0.000000   0.000000   0.000000   0.000000
    2  C  1  S    0.030337  -0.000000   0.000000   0.000000   0.000000
    3  C  1  X    0.000000  -0.190282   0.000000   0.000000   0.000000
    4  C  1  Y    0.000000  -0.000000   0.277455   0.327791   0.000000
    5  C  1  Z    0.241015  -0.000000   0.000000   0.000000   0.000000
    6  C  1  S    0.043155  -0.000000   0.000000   0.000000   0.000000
    7  C  1  X    0.000000  -0.136228   0.000000   0.000000   0.000000
    8  C  1  Y    0.000000  -0.000000   0.174151   0.256087   0.000000
    9  C  1  Z    0.102017  -0.000000   0.000000   0.000000   0.000000
   10  C  1  S    0.388939  -0.000000   0.000000   0.000000   0.000000
   11  C  1  X    0.000000  -0.021677   0.000000   0.000000   0.000000
   12  C  1  Y    0.000000  -0.000000   0.033060   0.049021   0.000000
   13  C  1  Z    0.087526  -0.000000   0.000000   0.000000   0.000000
   14  C  1 XX   -0.013630  -0.000000   0.000000   0.000000   0.000000
   15  C  1 YY   -0.000347  -0.000000   0.000000   0.000000   0.000000
   16  C  1 ZZ    0.011913  -0.000000   0.000000   0.000000   0.000000
   17  C  1 XY    0.000000  -0.000000   0.000000   0.000000   0.001677
   18  C  1 XZ    0.000000   0.027213   0.000000   0.000000   0.000000
   19  C  1 YZ    0.000000  -0.000000   0.019781   0.012593   0.000000
   20  C  2  S    0.007345  -0.000000   0.000000   0.000000   0.000000
   21  C  2  S   -0.015826  -0.000000   0.000000   0.000000   0.000000
   22  C  2  X    0.000000   0.364046   0.000000   0.000000   0.000000
   23  C  2  Y    0.000000  -0.000000   0.365786   0.137922   0.000000
   24  C  2  Z   -0.287510  -0.000000   0.000000   0.000000   0.000000
   25  C  2  S   -0.068117  -0.000000   0.000000   0.000000   0.000000
   26  C  2  X    0.000000   0.209042   0.000000   0.000000   0.000000
   27  C  2  Y    0.000000  -0.000000   0.215396   0.151054   0.000000
   28  C  2  Z   -0.080819  -0.000000   0.000000   0.000000   0.000000
   29  C  2  S   -0.032610  -0.000000   0.000000   0.000000   0.000000
   30  C  2  X    0.000000   0.044865   0.000000   0.000000   0.000000
   31  C  2  Y    0.000000  -0.000000   0.026342   0.093239   0.000000
   32  C  2  Z    0.234126  -0.000000   0.000000   0.000000   0.000000
   33  C  2 XX   -0.019906  -0.000000   0.000000   0.000000   0.000000
   34  C  2 YY    0.001473  -0.000000   0.000000   0.000000   0.000000
   35  C  2 ZZ    0.007080  -0.000000   0.000000   0.000000   0.000000
   36  C  2 XY    0.000000  -0.000000   0.000000   0.000000  -0.016889
   37  C  2 XZ    0.000000   0.039438   0.000000   0.000000   0.000000
   38  C  2 YZ    0.000000  -0.000000   0.003240  -0.042338   0.000000
   39  C  3  S   -0.011789   0.028041   0.000000   0.000000   0.000000
   40  C  3  S    0.023352  -0.059756   0.000000   0.000000   0.000000
   41  C  3  X    0.288328  -0.043485   0.000000   0.000000   0.000000
   42  C  3  Y    0.000000  -0.000000   0.220551  -0.321965   0.592029
   43  C  3  Z    0.234829   0.272182   0.000000   0.000000   0.000000
   44  C  3  S    0.013955  -0.169635   0.000000   0.000000   0.000000
   45  C  3  X    0.122978  -0.065246   0.000000   0.000000   0.000000
   46  C  3  Y    0.000000  -0.000000   0.097473  -0.238536   0.370599
   47  C  3  Z    0.114313   0.172343   0.000000   0.000000   0.000000
   48  C  3  S   -0.156128  -0.000691   0.000000   0.000000   0.000000
   49  C  3  X   -0.023325   0.003379   0.000000   0.000000   0.000000
   50  C  3  Y    0.000000  -0.000000  -0.005795  -0.061932  -0.016238
   51  C  3  Z    0.047640   0.014988   0.000000   0.000000   0.000000
   52  C  3 XX    0.014384   0.018622   0.000000   0.000000   0.000000
   53  C  3 YY    0.000173   0.000714   0.000000   0.000000   0.000000
   54  C  3 ZZ   -0.015983  -0.021482   0.000000   0.000000   0.000000
   55  C  3 XY    0.000000  -0.000000   0.020473  -0.023381   0.004216
   56  C  3 XZ    0.022661  -0.011666   0.000000   0.000000   0.000000
   57  C  3 YZ    0.000000  -0.000000  -0.014327  -0.001397  -0.009702
   58  C  4  S   -0.011789  -0.028041   0.000000   0.000000   0.000000
   59  C  4  S    0.023352   0.059756   0.000000   0.000000   0.000000
   60  C  4  X   -0.288328  -0.043485   0.000000   0.000000   0.000000
   61  C  4  Y    0.000000  -0.000000   0.220551  -0.321965  -0.592029
   62  C  4  Z    0.234829  -0.272182   0.000000   0.000000   0.000000
   63  C  4  S    0.013955   0.169635   0.000000   0.000000   0.000000
   64  C  4  X   -0.122978  -0.065246   0.000000   0.000000   0.000000
   65  C  4  Y    0.000000  -0.000000   0.097473  -0.238536  -0.370599
   66  C  4  Z    0.114313  -0.172343   0.000000   0.000000   0.000000
   67  C  4  S   -0.156128   0.000691   0.000000   0.000000   0.000000
   68  C  4  X    0.023325   0.003379   0.000000   0.000000   0.000000
   69  C  4  Y    0.000000  -0.000000  -0.005795  -0.061932   0.016238
   70  C  4  Z    0.047640  -0.014988   0.000000   0.000000   0.000000
   71  C  4 XX    0.014384  -0.018622   0.000000   0.000000   0.000000
   72  C  4 YY    0.000173  -0.000714   0.000000   0.000000   0.000000
   73  C  4 ZZ   -0.015983   0.021482   0.000000   0.000000   0.000000
   74  C  4 XY    0.000000  -0.000000  -0.020473   0.023381   0.004216
   75  C  4 XZ   -0.022661  -0.011666   0.000000   0.000000   0.000000
   76  C  4 YZ    0.000000  -0.000000  -0.014327  -0.001397   0.009702
   77  H  5  S   -0.069094   0.134923   0.000000   0.000000   0.000000
   78  H  5  S   -0.064364   0.121136   0.000000   0.000000   0.000000
   79  H  5  S    0.000838   0.019664   0.000000   0.000000   0.000000
   80  H  5  X   -0.003486   0.003104   0.000000   0.000000   0.000000
   81  H  5  Y    0.000000  -0.000000   0.006701   0.008525  -0.000251
   82  H  5  Z    0.001450   0.002539   0.000000   0.000000   0.000000
   83  H  6  S   -0.069094  -0.134923   0.000000   0.000000   0.000000
   84  H  6  S   -0.064364  -0.121136   0.000000   0.000000   0.000000
   85  H  6  S    0.000838  -0.019664   0.000000   0.000000   0.000000
   86  H  6  X    0.003486   0.003104   0.000000   0.000000   0.000000
   87  H  6  Y    0.000000  -0.000000   0.006701   0.008525   0.000251
   88  H  6  Z    0.001450  -0.002539   0.000000   0.000000   0.000000
   89  H  7  S   -0.079402   0.114889   0.000000   0.000000   0.000000
   90  H  7  S   -0.078807   0.104640   0.000000   0.000000   0.000000
   91  H  7  S   -0.024030   0.023514   0.000000   0.000000   0.000000
   92  H  7  X    0.000901   0.005377   0.000000   0.000000   0.000000
   93  H  7  Y    0.000000  -0.000000   0.004485  -0.008096   0.009243
   94  H  7  Z    0.006950   0.001909   0.000000   0.000000   0.000000
   95  H  8  S   -0.079402  -0.114889   0.000000   0.000000   0.000000
   96  H  8  S   -0.078807  -0.104640   0.000000   0.000000   0.000000
   97  H  8  S   -0.024030  -0.023514   0.000000   0.000000   0.000000
   98  H  8  X   -0.000901   0.005377   0.000000   0.000000   0.000000
   99  H  8  Y    0.000000  -0.000000   0.004485  -0.008096  -0.009243
  100  H  8  Z    0.006950  -0.001909   0.000000   0.000000   0.000000

                     16
                    0.0619
                     B2  
    1  C  1  S    0.000000
    2  C  1  S    0.000000
    3  C  1  X    0.000000
    4  C  1  Y    0.596101
    5  C  1  Z    0.000000
    6  C  1  S    0.000000
    7  C  1  X    0.000000
    8  C  1  Y    0.327670
    9  C  1  Z    0.000000
   10  C  1  S    0.000000
   11  C  1  X    0.000000
   12  C  1  Y   -0.018884
   13  C  1  Z    0.000000
   14  C  1 XX    0.000000
   15  C  1 YY    0.000000
   16  C  1 ZZ    0.000000
   17  C  1 XY    0.000000
   18  C  1 XZ    0.000000
   19  C  1 YZ   -0.025746
   20  C  2  S    0.000000
   21  C  2  S    0.000000
   22  C  2  X    0.000000
   23  C  2  Y   -0.584788
   24  C  2  Z    0.000000
   25  C  2  S    0.000000
   26  C  2  X    0.000000
   27  C  2  Y   -0.498738
   28  C  2  Z    0.000000
   29  C  2  S    0.000000
   30  C  2  X    0.000000
   31  C  2  Y   -0.064317
   32  C  2  Z    0.000000
   33  C  2 XX    0.000000
   34  C  2 YY    0.000000
   35  C  2 ZZ    0.000000
   36  C  2 XY    0.000000
   37  C  2 XZ    0.000000
   38  C  2 YZ    0.022352
   39  C  3  S    0.000000
   40  C  3  S    0.000000
   41  C  3  X    0.000000
   42  C  3  Y    0.139828
   43  C  3  Z    0.000000
   44  C  3  S    0.000000
   45  C  3  X    0.000000
   46  C  3  Y    0.178143
   47  C  3  Z    0.000000
   48  C  3  S    0.000000
   49  C  3  X    0.000000
   50  C  3  Y    0.037259
   51  C  3  Z    0.000000
   52  C  3 XX    0.000000
   53  C  3 YY    0.000000
   54  C  3 ZZ    0.000000
   55  C  3 XY    0.008629
   56  C  3 XZ    0.000000
   57  C  3 YZ    0.013281
   58  C  4  S    0.000000
   59  C  4  S    0.000000
   60  C  4  X    0.000000
   61  C  4  Y    0.139828
   62  C  4  Z    0.000000
   63  C  4  S    0.000000
   64  C  4  X    0.000000
   65  C  4  Y    0.178143
   66  C  4  Z    0.000000
   67  C  4  S    0.000000
   68  C  4  X    0.000000
   69  C  4  Y    0.037259
   70  C  4  Z    0.000000
   71  C  4 XX    0.000000
   72  C  4 YY    0.000000
   73  C  4 ZZ    0.000000
   74  C  4 XY   -0.008629
   75  C  4 XZ    0.000000
   76  C  4 YZ    0.013281
   77  H  5  S    0.000000
   78  H  5  S    0.000000
   79  H  5  S    0.000000
   80  H  5  X    0.000000
   81  H  5  Y    0.007000
   82  H  5  Z    0.000000
   83  H  6  S    0.000000
   84  H  6  S    0.000000
   85  H  6  S    0.000000
   86  H  6  X    0.000000
   87  H  6  Y    0.007000
   88  H  6  Z    0.000000
   89  H  7  S    0.000000
   90  H  7  S    0.000000
   91  H  7  S    0.000000
   92  H  7  X    0.000000
   93  H  7  Y    0.003075
   94  H  7  Z    0.000000
   95  H  8  S    0.000000
   96  H  8  S    0.000000
   97  H  8  S    0.000000
   98  H  8  X    0.000000
   99  H  8  Y    0.003075
  100  H  8  Z    0.000000

          ------------------------
          MCSCF OPTIMIZED ORBITALS
          ------------------------

                      1          2          3          4          5
                  -11.2605   -11.2584   -11.2540   -11.1928    -1.2062
                     A1         B1         A1         A1         A1  
    1  C  1  S    0.001038   0.000000   0.013133   0.995561  -0.030122
    2  C  1  S    0.000147   0.000000   0.000130   0.028166   0.057000
    3  C  1  X    0.000000  -0.000042  -0.000000  -0.000000  -0.000000
    4  C  1  Y    0.000000   0.000000  -0.000000  -0.000000  -0.000000
    5  C  1  Z    0.000150   0.000000  -0.000564   0.000449   0.036393
    6  C  1  S   -0.001305   0.000000   0.000328  -0.012776   0.027319
    7  C  1  X    0.000000   0.002007  -0.000000  -0.000000  -0.000000
    8  C  1  Y    0.000000   0.000000  -0.000000  -0.000000  -0.000000
    9  C  1  Z   -0.000426   0.000000   0.000388  -0.001295  -0.002047
   10  C  1  S    0.036819   0.000000  -0.003410  -0.001920   0.136157
   11  C  1  X    0.000000   0.000153  -0.000000  -0.000000  -0.000000
   12  C  1  Y    0.000000   0.000000  -0.000000  -0.000000  -0.000000
   13  C  1  Z    0.007099   0.000000  -0.001909  -0.001666   0.037369
   14  C  1 XX   -0.000034   0.000000  -0.000305  -0.001727  -0.001543
   15  C  1 YY    0.000019   0.000000   0.000003  -0.002357  -0.002016
   16  C  1 ZZ    0.000304   0.000000  -0.000681  -0.001365   0.003577
   17  C  1 XY    0.000000   0.000000  -0.000000  -0.000000  -0.000000
   18  C  1 XZ    0.000000   0.000206  -0.000000  -0.000000  -0.000000
   19  C  1 YZ    0.000000   0.000000  -0.000000  -0.000000  -0.000000
   20  C  2  S    0.102852   0.000000   0.990314  -0.013787  -0.125358
   21  C  2  S    0.003030   0.000000   0.027337  -0.000507   0.238690
   22  C  2  X    0.000000   0.000172  -0.000000  -0.000000  -0.000000
   23  C  2  Y    0.000000   0.000000  -0.000000  -0.000000  -0.000000
   24  C  2  Z   -0.000236   0.000000   0.001573   0.000310   0.129553
   25  C  2  S    0.004009   0.000000  -0.013432   0.004519   0.144225
   26  C  2  X    0.000000  -0.003572  -0.000000  -0.000000  -0.000000
   27  C  2  Y    0.000000   0.000000  -0.000000  -0.000000  -0.000000
   28  C  2  Z    0.000659   0.000000  -0.003579  -0.001159   0.007005
   29  C  2  S    0.001796   0.000000   0.047805   0.004150  -0.155593
   30  C  2  X    0.000000   0.005079  -0.000000  -0.000000  -0.000000
   31  C  2  Y    0.000000   0.000000  -0.000000  -0.000000  -0.000000
   32  C  2  Z    0.026835   0.000000   0.011784  -0.004661   0.043596
   33  C  2 XX   -0.000407   0.000000  -0.001871  -0.000119  -0.005801
   34  C  2 YY   -0.000363   0.000000  -0.002260   0.000022  -0.013554
   35  C  2 ZZ   -0.001381   0.000000   0.000523  -0.000456   0.021207
   36  C  2 XY    0.000000   0.000000  -0.000000  -0.000000  -0.000000
   37  C  2 XZ    0.000000   0.000471  -0.000000  -0.000000  -0.000000
   38  C  2 YZ    0.000000   0.000000  -0.000000  -0.000000  -0.000000
   39  C  3  S    0.700022   0.704362  -0.073081   0.000283  -0.133995
   40  C  3  S    0.019541   0.020337  -0.001732   0.000058   0.250873
   41  C  3  X    0.000279   0.001021  -0.000261   0.000015   0.140200
   42  C  3  Y    0.000000   0.000000  -0.000000  -0.000000  -0.000000
   43  C  3  Z   -0.000342  -0.000556   0.000296   0.000023  -0.073619
   44  C  3  S   -0.006531  -0.016403   0.003946  -0.000505   0.152910
   45  C  3  X   -0.000731  -0.004923   0.000355   0.000013   0.000825
   46  C  3  Y    0.000000   0.000000  -0.000000  -0.000000  -0.000000
   47  C  3  Z    0.001371   0.002245  -0.001366   0.000371  -0.001940
   48  C  3  S   -0.016244   0.044847  -0.020350   0.001212  -0.013487
   49  C  3  X   -0.003252   0.010170  -0.003031   0.000452   0.002364
   50  C  3  Y    0.000000   0.000000  -0.000000  -0.000000  -0.000000
   51  C  3  Z    0.003606  -0.004297   0.005497  -0.000101  -0.004073
   52  C  3 XX   -0.000714   0.000318  -0.000372   0.000026   0.013076
   53  C  3 YY   -0.001662  -0.001635   0.000093   0.000011  -0.012323
   54  C  3 ZZ   -0.001148  -0.001053  -0.000785   0.000017   0.001889
   55  C  3 XY    0.000000   0.000000  -0.000000  -0.000000  -0.000000
   56  C  3 XZ   -0.000509  -0.000828   0.000677  -0.000026  -0.011404
   57  C  3 YZ    0.000000   0.000000  -0.000000  -0.000000  -0.000000
   58  C  4  S    0.700022  -0.704362  -0.073081   0.000283  -0.133995
   59  C  4  S    0.019541  -0.020337  -0.001732   0.000058   0.250873
   60  C  4  X   -0.000279   0.001021   0.000261  -0.000015  -0.140200
   61  C  4  Y    0.000000   0.000000  -0.000000  -0.000000  -0.000000
   62  C  4  Z   -0.000342   0.000556   0.000296   0.000023  -0.073619
   63  C  4  S   -0.006531   0.016403   0.003946  -0.000505   0.152910
   64  C  4  X    0.000731  -0.004923  -0.000355  -0.000013  -0.000825
   65  C  4  Y    0.000000   0.000000  -0.000000  -0.000000  -0.000000
   66  C  4  Z    0.001371  -0.002245  -0.001366   0.000371  -0.001940
   67  C  4  S   -0.016244  -0.044847  -0.020350   0.001212  -0.013487
   68  C  4  X    0.003252   0.010170   0.003031  -0.000452  -0.002364
   69  C  4  Y    0.000000   0.000000  -0.000000  -0.000000  -0.000000
   70  C  4  Z    0.003606   0.004297   0.005497  -0.000101  -0.004073
   71  C  4 XX   -0.000714  -0.000318  -0.000372   0.000026   0.013076
   72  C  4 YY   -0.001662   0.001635   0.000093   0.000011  -0.012323
   73  C  4 ZZ   -0.001148   0.001053  -0.000785   0.000017   0.001889
   74  C  4 XY    0.000000   0.000000  -0.000000  -0.000000  -0.000000
   75  C  4 XZ    0.000509  -0.000828  -0.000677   0.000026   0.011404
   76  C  4 YZ    0.000000   0.000000  -0.000000  -0.000000  -0.000000
   77  H  5  S    0.000019   0.000079   0.000030  -0.000052   0.011335
   78  H  5  S    0.000302   0.000989   0.000185   0.001251  -0.000657
   79  H  5  S    0.000502   0.000889   0.000033  -0.002151   0.004928
   80  H  5  X   -0.000001  -0.000034   0.000109  -0.000241   0.000956
   81  H  5  Y    0.000000   0.000000  -0.000000  -0.000000  -0.000000
   82  H  5  Z    0.000045   0.000008   0.000100  -0.000064   0.000698
   83  H  6  S    0.000019  -0.000079   0.000030  -0.000052   0.011335
   84  H  6  S    0.000302  -0.000989   0.000185   0.001251  -0.000657
   85  H  6  S    0.000502  -0.000889   0.000033  -0.002151   0.004928
   86  H  6  X    0.000001  -0.000034  -0.000109   0.000241  -0.000956
   87  H  6  Y    0.000000   0.000000  -0.000000  -0.000000  -0.000000
   88  H  6  Z    0.000045  -0.000008   0.000100  -0.000064   0.000698
   89  H  7  S   -0.000450  -0.000630   0.000216  -0.000028   0.033922
   90  H  7  S   -0.000261  -0.000286  -0.000267   0.000215  -0.005463
   91  H  7  S   -0.002518   0.001335  -0.001267   0.000408   0.012416
   92  H  7  X   -0.000359  -0.000433   0.000289  -0.000014   0.002621
   93  H  7  Y    0.000000   0.000000  -0.000000  -0.000000  -0.000000
   94  H  7  Z    0.000185   0.000358   0.000023  -0.000025  -0.001516
   95  H  8  S   -0.000450   0.000630   0.000216  -0.000028   0.033922
   96  H  8  S   -0.000261   0.000286  -0.000267   0.000215  -0.005463
   97  H  8  S   -0.002518  -0.001335  -0.001267   0.000408   0.012416
   98  H  8  X    0.000359  -0.000433  -0.000289   0.000014  -0.002621
   99  H  8  Y    0.000000   0.000000  -0.000000  -0.000000  -0.000000
  100  H  8  Z    0.000185  -0.000358   0.000023  -0.000025  -0.001516

                      6          7          8          9         10
                   -0.9703    -0.7914    -0.7538    -0.6567    -0.5853
                     A1         B1         A1         A1         B1  
    1  C  1  S   -0.177077   0.000000   0.054510   0.055607  -0.000000
    2  C  1  S    0.330136   0.000000  -0.102001  -0.107431  -0.000000
    3  C  1  X    0.000000  -0.037940  -0.000000   0.000000   0.384658
    4  C  1  Y    0.000000   0.000000  -0.000000   0.000000  -0.000000
    5  C  1  Z    0.097042   0.000000   0.082805   0.331531  -0.000000
    6  C  1  S    0.290339   0.000000  -0.130952  -0.095176  -0.000000
    7  C  1  X    0.000000  -0.001625  -0.000000   0.000000   0.175540
    8  C  1  Y    0.000000   0.000000  -0.000000   0.000000  -0.000000
    9  C  1  Z    0.018367   0.000000   0.014143   0.131590  -0.000000
   10  C  1  S   -0.104989   0.000000   0.413031  -0.243637  -0.000000
   11  C  1  X    0.000000   0.020230  -0.000000   0.000000  -0.044174
   12  C  1  Y    0.000000   0.000000  -0.000000   0.000000  -0.000000
   13  C  1  Z   -0.015651   0.000000   0.086917  -0.052216  -0.000000
   14  C  1 XX   -0.002622   0.000000  -0.007098  -0.022734  -0.000000
   15  C  1 YY   -0.014166   0.000000   0.004807   0.004732  -0.000000
   16  C  1 ZZ    0.013696   0.000000   0.001347   0.016122  -0.000000
   17  C  1 XY    0.000000   0.000000  -0.000000   0.000000  -0.000000
   18  C  1 XZ    0.000000  -0.003075  -0.000000   0.000000  -0.012754
   19  C  1 YZ    0.000000   0.000000  -0.000000   0.000000  -0.000000
   20  C  2  S   -0.097731   0.000000  -0.079449  -0.085062  -0.000000
   21  C  2  S    0.188531   0.000000   0.160474   0.169000  -0.000000
   22  C  2  X    0.000000  -0.144860  -0.000000   0.000000   0.205313
   23  C  2  Y    0.000000   0.000000  -0.000000   0.000000  -0.000000
   24  C  2  Z   -0.229328   0.000000   0.120110  -0.184173  -0.000000
   25  C  2  S    0.160634   0.000000   0.163591   0.217580  -0.000000
   26  C  2  X    0.000000  -0.052426  -0.000000   0.000000   0.061497
   27  C  2  Y    0.000000   0.000000  -0.000000   0.000000  -0.000000
   28  C  2  Z    0.009257   0.000000   0.008818   0.041507  -0.000000
   29  C  2  S    0.054173   0.000000  -0.049986  -0.131387  -0.000000
   30  C  2  X    0.000000  -0.051886  -0.000000   0.000000   0.068212
   31  C  2  Y    0.000000   0.000000  -0.000000   0.000000  -0.000000
   32  C  2  Z   -0.039978   0.000000   0.245681  -0.227285  -0.000000
   33  C  2 XX   -0.007435   0.000000  -0.003393   0.003625  -0.000000
   34  C  2 YY   -0.005235   0.000000  -0.007116  -0.003007  -0.000000
   35  C  2 ZZ    0.010682   0.000000   0.008284  -0.002429  -0.000000
   36  C  2 XY    0.000000   0.000000  -0.000000   0.000000  -0.000000
   37  C  2 XZ    0.000000  -0.017304  -0.000000   0.000000  -0.001425
   38  C  2 YZ    0.000000   0.000000  -0.000000   0.000000  -0.000000
   39  C  3  S    0.050795  -0.118522   0.059842   0.006384  -0.004878
   40  C  3  S   -0.096860   0.235140  -0.118088  -0.013839   0.010533
   41  C  3  X   -0.059251  -0.168989   0.134209  -0.217992  -0.043529
   42  C  3  Y    0.000000   0.000000  -0.000000   0.000000  -0.000000
   43  C  3  Z   -0.030769   0.008694  -0.230261  -0.001685   0.110915
   44  C  3  S   -0.097311   0.228347  -0.140147  -0.023997  -0.038401
   45  C  3  X   -0.011531  -0.070382   0.036607  -0.082854  -0.043926
   46  C  3  Y    0.000000   0.000000  -0.000000   0.000000  -0.000000
   47  C  3  Z    0.000755   0.012558  -0.069450   0.011842   0.069812
   48  C  3  S    0.022243  -0.219088  -0.145033   0.185938   0.122819
   49  C  3  X   -0.000049  -0.028801  -0.047264   0.034698   0.024774
   50  C  3  Y    0.000000   0.000000  -0.000000   0.000000  -0.000000
   51  C  3  Z   -0.001971   0.019638   0.041381  -0.048224  -0.027968
   52  C  3 XX   -0.009346   0.002555  -0.010486  -0.008337   0.007677
   53  C  3 YY    0.003548  -0.007977   0.001043   0.001175   0.000143
   54  C  3 ZZ    0.006910   0.007914   0.010218   0.008874  -0.010890
   55  C  3 XY    0.000000   0.000000  -0.000000   0.000000  -0.000000
   56  C  3 XZ    0.001815  -0.013137  -0.007468  -0.003454  -0.005269
   57  C  3 YZ    0.000000   0.000000  -0.000000   0.000000  -0.000000
   58  C  4  S    0.050795   0.118522   0.059842   0.006384   0.004878
   59  C  4  S   -0.096860  -0.235140  -0.118088  -0.013839  -0.010533
   60  C  4  X    0.059251  -0.168989  -0.134209   0.217992  -0.043529
   61  C  4  Y    0.000000   0.000000  -0.000000   0.000000  -0.000000
   62  C  4  Z   -0.030769  -0.008694  -0.230261  -0.001685  -0.110915
   63  C  4  S   -0.097311  -0.228347  -0.140147  -0.023997   0.038401
   64  C  4  X    0.011531  -0.070382  -0.036607   0.082854  -0.043926
   65  C  4  Y    0.000000   0.000000  -0.000000   0.000000  -0.000000
   66  C  4  Z    0.000755  -0.012558  -0.069450   0.011842  -0.069812
   67  C  4  S    0.022243   0.219088  -0.145033   0.185938  -0.122819
   68  C  4  X    0.000049  -0.028801   0.047264  -0.034698   0.024774
   69  C  4  Y    0.000000   0.000000  -0.000000   0.000000  -0.000000
   70  C  4  Z   -0.001971  -0.019638   0.041381  -0.048224   0.027968
   71  C  4 XX   -0.009346  -0.002555  -0.010486  -0.008337  -0.007677
   72  C  4 YY    0.003548   0.007977   0.001043   0.001175  -0.000143
   73  C  4 ZZ    0.006910  -0.007914   0.010218   0.008874   0.010890
   74  C  4 XY    0.000000   0.000000  -0.000000   0.000000  -0.000000
   75  C  4 XZ   -0.001815  -0.013137   0.007468   0.003454  -0.005269
   76  C  4 YZ    0.000000   0.000000  -0.000000   0.000000  -0.000000
   77  H  5  S    0.105576   0.015438  -0.070914  -0.155996  -0.206208
   78  H  5  S    0.033333   0.013058  -0.041780  -0.106554  -0.153105
   79  H  5  S    0.008343   0.007905   0.000140  -0.019871  -0.041199
   80  H  5  X    0.008917   0.001108  -0.004865  -0.009369  -0.007802
   81  H  5  Y    0.000000   0.000000  -0.000000   0.000000  -0.000000
   82  H  5  Z    0.006668   0.001075  -0.001892  -0.001031  -0.007817
   83  H  6  S    0.105576  -0.015438  -0.070914  -0.155996   0.206208
   84  H  6  S    0.033333  -0.013058  -0.041780  -0.106554   0.153105
   85  H  6  S    0.008343  -0.007905   0.000140  -0.019871   0.041199
   86  H  6  X   -0.008917   0.001108   0.004865   0.009369  -0.007802
   87  H  6  Y    0.000000   0.000000  -0.000000   0.000000  -0.000000
   88  H  6  Z    0.006668  -0.001075  -0.001892  -0.001031   0.007817
   89  H  7  S   -0.026368   0.188536  -0.180103   0.100138   0.071564
   90  H  7  S   -0.007881   0.094068  -0.109176   0.067582   0.047577
   91  H  7  S   -0.004578   0.015971  -0.034643   0.022348   0.023796
   92  H  7  X   -0.002075   0.010029  -0.012606   0.004633   0.003889
   93  H  7  Y    0.000000   0.000000  -0.000000   0.000000  -0.000000
   94  H  7  Z    0.000104  -0.007627   0.005533  -0.005424  -0.000893
   95  H  8  S   -0.026368  -0.188536  -0.180103   0.100138  -0.071564
   96  H  8  S   -0.007881  -0.094068  -0.109176   0.067582  -0.047577
   97  H  8  S   -0.004578  -0.015971  -0.034643   0.022348  -0.023796
   98  H  8  X    0.002075   0.010029   0.012606  -0.004633   0.003889
   99  H  8  Y    0.000000   0.000000  -0.000000   0.000000  -0.000000
  100  H  8  Z    0.000104   0.007627   0.005533  -0.005424   0.000893

                     11         12         13         14         15
                   -0.5216    -0.4345     0.0000     0.0000     0.0000
                     A1         B1         B2         B2         B2  
    1  C  1  S   -0.015687  -0.000000   0.000000   0.000000   0.000000
    2  C  1  S    0.030337  -0.000000   0.000000   0.000000   0.000000
    3  C  1  X    0.000000  -0.190282   0.000000   0.000000   0.000000
    4  C  1  Y    0.000000  -0.000000   0.151658   0.422288  -0.581753
    5  C  1  Z    0.241015  -0.000000   0.000000   0.000000   0.000000
    6  C  1  S    0.043155  -0.000000   0.000000   0.000000   0.000000
    7  C  1  X    0.000000  -0.136228   0.000000   0.000000   0.000000
    8  C  1  Y    0.000000  -0.000000   0.079322   0.310893  -0.316749
    9  C  1  Z    0.102017  -0.000000   0.000000   0.000000   0.000000
   10  C  1  S    0.388939  -0.000000   0.000000   0.000000   0.000000
   11  C  1  X    0.000000  -0.021677   0.000000   0.000000   0.000000
   12  C  1  Y    0.000000  -0.000000   0.015610   0.056318   0.020911
   13  C  1  Z    0.087526  -0.000000   0.000000   0.000000   0.000000
   14  C  1 XX   -0.013630  -0.000000   0.000000   0.000000   0.000000
   15  C  1 YY   -0.000347  -0.000000   0.000000   0.000000   0.000000
   16  C  1 ZZ    0.011913  -0.000000   0.000000   0.000000   0.000000
   17  C  1 XY    0.000000  -0.000000   0.000000   0.000000   0.000000
   18  C  1 XZ    0.000000   0.027213   0.000000   0.000000   0.000000
   19  C  1 YZ    0.000000  -0.000000   0.014869   0.017319   0.026300
   20  C  2  S    0.007345  -0.000000   0.000000   0.000000   0.000000
[...]
   52  C  3 XX   -0.002387   0.769993   0.811743  -1.017278   2.329008
   53  C  3 YY    1.045066   0.647441   0.671536  -0.652719   0.876316
   54  C  3 ZZ    0.622809   0.551162   0.718202  -1.178290   1.232648
   55  C  3 XY   -0.000000  -0.000000  -0.000000   0.000000  -0.000000
   56  C  3 XZ    0.746346  -0.032579  -0.107845   0.477430  -0.672751
   57  C  3 YZ   -0.000000  -0.000000  -0.000000   0.000000  -0.000000
   58  C  4  S   -0.214957   0.179049   0.184001  -0.191339  -0.307375
   59  C  4  S    1.083407  -1.084406  -1.159968   1.243454   1.504812
   60  C  4  X    0.182722   0.199337   0.176489  -0.105848   0.350431
   61  C  4  Y   -0.000000  -0.000000  -0.000000   0.000000  -0.000000
   62  C  4  Z    0.147305   0.146246   0.076217   0.139475  -0.027973
   63  C  4  S    3.131765  -0.382289  -0.496208   0.818434   2.141394
   64  C  4  X   -0.784802   0.117804   0.103685  -0.077147  -0.792976
   65  C  4  Y   -0.000000  -0.000000  -0.000000   0.000000  -0.000000
   66  C  4  Z   -0.350821   0.134407   0.103450  -0.232101  -0.381132
   67  C  4  S  -10.634700  -3.484598  -2.602472  -0.686318  -5.093133
   68  C  4  X    2.865106   0.646286   0.534654   0.013068   0.983996
   69  C  4  Y   -0.000000  -0.000000  -0.000000   0.000000  -0.000000
   70  C  4  Z    1.211572   0.946088   0.587885   0.255170   0.476298
   71  C  4 XX    0.002387   0.769993   0.811743  -1.017278  -2.329008
   72  C  4 YY   -1.045066   0.647441   0.671536  -0.652719  -0.876316
   73  C  4 ZZ   -0.622809   0.551162   0.718202  -1.178290  -1.232648
   74  C  4 XY   -0.000000  -0.000000  -0.000000   0.000000  -0.000000
   75  C  4 XZ    0.746346   0.032579   0.107845  -0.477430  -0.672751
   76  C  4 YZ   -0.000000  -0.000000  -0.000000   0.000000  -0.000000
   77  H  5  S    0.092143  -0.177195   0.269189   0.084614  -0.048762
   78  H  5  S    0.196620   0.163996  -0.070999  -0.011972   0.156455
   79  H  5  S    0.160268  -0.149752   0.354182   0.101554   0.108449
   80  H  5  X    0.078967  -0.141674   0.290616   0.144801  -0.077489
   81  H  5  Y   -0.000000  -0.000000  -0.000000   0.000000  -0.000000
   82  H  5  Z    0.021441  -0.068390   0.160038   0.052412  -0.003231
   83  H  6  S   -0.092143  -0.177195   0.269189   0.084614   0.048762
   84  H  6  S   -0.196620   0.163996  -0.070999  -0.011972  -0.156455
   85  H  6  S   -0.160268  -0.149752   0.354182   0.101554  -0.108449
   86  H  6  X    0.078967   0.141674  -0.290616  -0.144801  -0.077489
   87  H  6  Y   -0.000000  -0.000000  -0.000000   0.000000  -0.000000
   88  H  6  Z   -0.021441  -0.068390   0.160038   0.052412   0.003231
   89  H  7  S    0.579722  -0.190553  -0.204958   0.376722  -0.731983
   90  H  7  S    0.329805  -0.117701  -0.115801   0.020870  -0.204153
   91  H  7  S    0.789268  -0.389184  -0.355788   0.082432   0.017847
   92  H  7  X    0.672809  -0.157537  -0.190024   0.378098  -0.580049
   93  H  7  Y   -0.000000  -0.000000  -0.000000   0.000000  -0.000000
   94  H  7  Z   -0.398894   0.139474   0.124330  -0.113587   0.434374
   95  H  8  S   -0.579722  -0.190553  -0.204958   0.376722   0.731983
   96  H  8  S   -0.329805  -0.117701  -0.115801   0.020870   0.204153
   97  H  8  S   -0.789268  -0.389184  -0.355788   0.082432  -0.017847
   98  H  8  X    0.672809   0.157537   0.190024  -0.378098  -0.580049
   99  H  8  Y   -0.000000  -0.000000  -0.000000   0.000000  -0.000000
  100  H  8  Z    0.398894   0.139474   0.124330  -0.113587  -0.434374
 .....DONE WITH MCSCF ITERATIONS.....
 STEP CPU TIME =     2.82 TOTAL CPU TIME =        3.7 (    0.1 MIN)
 TOTAL WALL CLOCK TIME=       26.0 SECONDS, CPU UTILIZATION IS  14.27%

     ----------------------------------------------------------------
     PROPERTY VALUES FOR THE MCSCF SELF-CONSISTENT FIELD WAVEFUNCTION
     ----------------------------------------------------------------

          -----------------
          ENERGY COMPONENTS
          -----------------

         WAVEFUNCTION NORMALIZATION =       1.0000000000

                ONE ELECTRON ENERGY =    -397.6362467791
                TWO ELECTRON ENERGY =     147.0594488062
           NUCLEAR REPULSION ENERGY =      96.8477377928
                                      ------------------
                       TOTAL ENERGY =    -153.7290601800

 ELECTRON-ELECTRON POTENTIAL ENERGY =     147.0594488062
  NUCLEUS-ELECTRON POTENTIAL ENERGY =    -551.3321271391
   NUCLEUS-NUCLEUS POTENTIAL ENERGY =      96.8477377928
                                      ------------------
             TOTAL POTENTIAL ENERGY =    -307.4249405400
               TOTAL KINETIC ENERGY =     153.6958803600
                 VIRIAL RATIO (V/T) =       2.0002158797

          ---------------------------------------
          MULLIKEN AND LOWDIN POPULATION ANALYSES
          ---------------------------------------

     ATOMIC MULLIKEN POPULATION IN EACH MOLECULAR ORBITAL

                      1          2          3          4          5

                  2.000000   2.000000   2.000000   2.000000   2.000000

    1             0.004083  -0.000023  -0.000200   1.997642   0.166626
    2             0.026868   0.000150   1.982913   0.002235   0.459970
    3             0.984932   1.000004   0.008700   0.000070   0.669316
    4             0.984932   1.000004   0.008700   0.000070   0.669316
    5             0.000028   0.000007   0.000009  -0.000019   0.003222
    6             0.000028   0.000007   0.000009  -0.000019   0.003222
    7            -0.000435  -0.000074  -0.000066   0.000011   0.014164
    8            -0.000435  -0.000074  -0.000066   0.000011   0.014164

                      6          7          8          9         10

                  2.000000   2.000000   2.000000   2.000000   2.000000

    1             0.948190  -0.002348  -0.031409   0.747051   0.832781
    2             0.618969   0.196260   0.116426   0.156918   0.263892
    3             0.096252   0.598574   0.618269   0.249502   0.073861
    4             0.096252   0.598574   0.618269   0.249502   0.073861
    5             0.114200   0.003562   0.045907   0.215228   0.342628
    6             0.114200   0.003562   0.045907   0.215228   0.342628
    7             0.005969   0.300908   0.293315   0.083285   0.035175
    8             0.005969   0.300908   0.293315   0.083285   0.035175

                     11         12         13         14         15

                  2.000000   2.000000   1.950945   1.918310   0.068831

    1             0.112697   0.191395   0.505247   0.632197  -0.000000
    2             0.346377   0.626476   0.851462   0.096091   0.000175
    3             0.676124   0.373686   0.295317   0.591265   0.034220
    4             0.676124   0.373686   0.295317   0.591265   0.034220
    5             0.041978   0.128253   0.001271   0.002026   0.000000
    6             0.041978   0.128253   0.001271   0.002026   0.000000
    7             0.052361   0.089126   0.000531   0.001720   0.000108
    8             0.052361   0.089126   0.000531   0.001720   0.000108

                     16

                  0.061914

    1             0.026964
    2             0.030238
    3             0.002280
    4             0.002280
    5             0.000065
    6             0.000065
    7             0.000011
    8             0.000011
 WARNING! MCSCF POPULATIONS SHOWN ABOVE ARE FOR THE NATURAL ORBITALS.
 IGNORE THE ABOVE DATA FOR MCSCF FUNCTIONS WHICH ARE NOT OF -FORS- TYPE.
 THE FOLLOWING POPULATIONS ARE CORRECT FOR ANY MCSCF WAVEFUNCTION.

               ----- POPULATIONS IN EACH AO -----
                             MULLIKEN      LOWDIN
              1  C  1  S      1.99655     1.97996
              2  C  1  S      0.64011     0.33024
              3  C  1  X      0.69605     0.60106
              4  C  1  Y      0.62708     0.57655
              5  C  1  Z      0.71008     0.61259
              6  C  1  S      0.58845     0.27913
              7  C  1  X      0.35318     0.43878
              8  C  1  Y      0.48441     0.50813
              9  C  1  Z      0.23508     0.34332
             10  C  1  S     -0.22374     0.05557
             11  C  1  X     -0.04193     0.04813
             12  C  1  Y      0.04611     0.07744
             13  C  1  Z     -0.01345     0.04618
             14  C  1 XX      0.01231     0.15701
             15  C  1 YY     -0.01897     0.09238
             16  C  1 ZZ      0.01826     0.17310
             17  C  1 XY     -0.00000     0.00000
             18  C  1 XZ      0.01449     0.03084
             19  C  1 YZ      0.00681     0.01143
             20  C  2  S      1.99674     1.97783
             21  C  2  S      0.66298     0.32971
             22  C  2  X      0.68746     0.62850
             23  C  2  Y      0.54321     0.48310
             24  C  2  Z      0.75621     0.63283
             25  C  2  S      0.50619     0.22692
             26  C  2  X      0.29292     0.38830
             27  C  2  Y      0.38261     0.39317
             28  C  2  Z      0.02033     0.27857
             29  C  2  S     -0.10618     0.05636
             30  C  2  X      0.08156     0.03828
             31  C  2  Y      0.02681     0.05075
             32  C  2  Z     -0.14142     0.07521
             33  C  2 XX     -0.00420     0.11930
             34  C  2 YY     -0.01873     0.09145
             35  C  2 ZZ      0.03876     0.21292
             36  C  2 XY      0.00017     0.00051
             37  C  2 XZ      0.02484     0.04727
             38  C  2 YZ      0.02516     0.04760
             39  C  3  S      1.99682     1.97848
             40  C  3  S      0.66267     0.33475
             41  C  3  X      0.75830     0.65248
             42  C  3  Y      0.53337     0.47859
             43  C  3  Z      0.71946     0.63797
             44  C  3  S      0.53212     0.25728
             45  C  3  X      0.21724     0.35112
             46  C  3  Y      0.35804     0.36777
             47  C  3  Z      0.28259     0.36876
             48  C  3  S      0.10843     0.05739
             49  C  3  X      0.03470     0.04500
             50  C  3  Y      0.01830     0.04055
             51  C  3  Z     -0.00596     0.03713
             52  C  3 XX      0.03015     0.19269
             53  C  3 YY     -0.01751     0.09349
             54  C  3 ZZ      0.01205     0.14777
             55  C  3 XY      0.01040     0.01549
             56  C  3 XZ      0.01823     0.04002
             57  C  3 YZ      0.00298     0.00606
             58  C  4  S      1.99682     1.97848
             59  C  4  S      0.66267     0.33475
             60  C  4  X      0.75830     0.65248
             61  C  4  Y      0.53337     0.47859
             62  C  4  Z      0.71946     0.63797
             63  C  4  S      0.53212     0.25728
             64  C  4  X      0.21724     0.35112
             65  C  4  Y      0.35804     0.36777
             66  C  4  Z      0.28259     0.36876
             67  C  4  S      0.10843     0.05739
             68  C  4  X      0.03470     0.04500
             69  C  4  Y      0.01830     0.04055
             70  C  4  Z     -0.00596     0.03713
             71  C  4 XX      0.03015     0.19269
             72  C  4 YY     -0.01751     0.09349
             73  C  4 ZZ      0.01205     0.14777
             74  C  4 XY      0.01040     0.01549
             75  C  4 XZ      0.01823     0.04002
             76  C  4 YZ      0.00298     0.00606
             77  H  5  S      0.53063     0.47917
             78  H  5  S      0.32765     0.30480
             79  H  5  S      0.02569     0.03359
             80  H  5  X      0.00743     0.01739
             81  H  5  Y      0.00336     0.01012
             82  H  5  Z      0.00360     0.00891
             83  H  6  S      0.53063     0.47917
             84  H  6  S      0.32765     0.30480
             85  H  6  S      0.02569     0.03359
             86  H  6  X      0.00743     0.01739
             87  H  6  Y      0.00336     0.01012
             88  H  6  Z      0.00360     0.00891
             89  H  7  S      0.52041     0.45954
             90  H  7  S      0.29179     0.29150
             91  H  7  S      0.04843     0.03341
             92  H  7  X      0.00845     0.01935
             93  H  7  Y      0.00237     0.00709
             94  H  7  Z      0.00464     0.01215
             95  H  8  S      0.52041     0.45954
             96  H  8  S      0.29179     0.29150
             97  H  8  S      0.04843     0.03341
             98  H  8  X      0.00845     0.01935
             99  H  8  Y      0.00237     0.00709
            100  H  8  Z      0.00464     0.01215

          ----- MULLIKEN ATOMIC OVERLAP POPULATIONS -----
          (OFF-DIAGONAL ELEMENTS NEED TO BE MULTIPLIED BY 2)

             1           2           3           4           5

    1    5.7662413
    2    0.5070139   5.1515814
    3   -0.3686825   0.1756824   5.1858668
    4   -0.3686825   0.1756824   0.7532618   5.1858668
    5    0.3848668  -0.0009777  -0.0395072   0.0232966   0.5782645
    6    0.3848668  -0.0009777   0.0232966  -0.0395072  -0.0463868
    7   -0.0873662  -0.1162920   0.4467535   0.0956993  -0.0008519
    8   -0.0873662  -0.1162920   0.0956993   0.4467535  -0.0003393

             6           7           8

    6    0.5782645
    7   -0.0003393   0.5340986
    8   -0.0008519   0.0044063   0.5340986

          TOTAL MULLIKEN AND LOWDIN ATOMIC POPULATIONS
       ATOM         MULL.POP.    CHARGE          LOW.POP.     CHARGE
    1 C             6.130891   -0.130891         6.361835   -0.361835
    2 C             5.775421    0.224579         6.078571   -0.078571
    3 C             6.272371   -0.272371         6.102795   -0.102795
    4 C             6.272371   -0.272371         6.102795   -0.102795
    5 H             0.898365    0.101635         0.853966    0.146034
    6 H             0.898365    0.101635         0.853966    0.146034
    7 H             0.876108    0.123892         0.823036    0.176964
    8 H             0.876108    0.123892         0.823036    0.176964

          ---------------------
          ELECTROSTATIC MOMENTS
          ---------------------

 POINT   1           X           Y           Z (BOHR)    CHARGE
                 0.000000    0.000000   -0.000000       -0.00 (A.U.)
         DX          DY          DZ         /D/  (DEBYE)
     0.000000   -0.000000    1.805891    1.805891
 ...... END OF PROPERTY EVALUATION ......
 STEP CPU TIME =     0.03 TOTAL CPU TIME =        3.7 (    0.1 MIN)
 TOTAL WALL CLOCK TIME=       26.3 SECONDS, CPU UTILIZATION IS  14.20%

 BEGINNING ONE ELECTRON GRADIENT...
 ..... END OF 1-ELECTRON GRADIENT ......
 STEP CPU TIME =     0.01 TOTAL CPU TIME =        3.8 (    0.1 MIN)
 TOTAL WALL CLOCK TIME=       26.3 SECONDS, CPU UTILIZATION IS  14.23%

          ----------------------
          GRADIENT OF THE ENERGY
          ----------------------

 THE MINIMUM MEMORY REQUIRED FOR THIS RUN IS     160495 WORDS.
 USING    1136015 WORDS FOR 2E- DERIVATIVE INTEGRAL CONTRIBUTIONS.
 THE COARSE/FINE SCHWARZ SCREENINGS SKIPPED         9802/       10891 BLOCKS.
 THE NUMBER OF GRADIENT INTEGRAL BLOCKS COMPUTED WAS     91215
 ...... END OF 2-ELECTRON GRADIENT ......
 STEP CPU TIME =     0.90 TOTAL CPU TIME =        4.7 (    0.1 MIN)
 TOTAL WALL CLOCK TIME=       27.3 SECONDS, CPU UTILIZATION IS  17.06%

                         ----------------------
                         GRADIENT OF THE ENERGY
                         ----------------------

 UNITS ARE HARTREE/BOHR    E'X               E'Y               E'Z 
    1 C                0.000000000       0.000000000       0.008964085
    2 C                0.000000000       0.000000000       0.005323677
    3 C                0.020401608       0.000000000      -0.008283734
    4 C               -0.020401608       0.000000000      -0.008283734
    5 H                0.000004256       0.000000000       0.000759239
    6 H               -0.000004256       0.000000000       0.000759239
    7 H               -0.000204827       0.000000000       0.000380614
    8 H                0.000204827       0.000000000       0.000380614

                   MAXIMUM GRADIENT =    0.020401608
                       RMS GRADIENT =    0.006707939


                     --------------------
                     INTERNAL COORDINATES
                     --------------------

                 - - ATOMS - -         COORDINATE        GRADIENT
 NO.   TYPE    I  J  K  L  M  N         (ANG,DEG)     (H/B,H/RAD)
 ----------------------------------------------------------------
   1 STRETCH   1  2                     1.3255845      -0.0104826
   2 STRETCH   2  3                     1.4259892      -0.0088461
   3 STRETCH   2  4                     1.4259892      -0.0088461
   4 STRETCH   3  4                     1.3048512      -0.0162217
   5 STRETCH   1  5                     1.0741248      -0.0003920
   6 STRETCH   1  6                     1.0741248      -0.0003920
   7 STRETCH   3  7                     1.0686219       0.0003739
   8 STRETCH   4  8                     1.0686219       0.0003739
   9 SYM.CRD.                           0.0000000       0.0000000
  10 PLA.BEND  1  2  3  4               0.0000000       0.0000000
  11 SYM.CRD.                          -1.8608774       0.0010777
  12 SYM.CRD.                           0.0000000      -0.0000000
  13 PLA.BEND  2  1  5  6               0.0000000      -0.0000000
  14 TORSION   3  2  1  5               0.0000000      -0.0000000
  15 SYM.CRD.                           0.3187001       0.0003095
  16 PLA.BEND  7  3  2  4               0.0000000       0.0000000
  17 SYM.CRD.                           0.3187001       0.0003095
  18 PLA.BEND  8  4  2  3               0.0000000       0.0000000

                   MAXIMUM GRADIENT =    0.016221677
                       RMS GRADIENT =    0.005433820
  $VIB   
          IVIB=   0 IATOM=   0 ICOORD=   0 E=     -153.7290601800
  0.000000000E+00 0.000000000E+00 8.964085038E-03 0.000000000E+00 0.000000000E+00
  5.323676677E-03 2.040160758E-02 0.000000000E+00-8.283733951E-03-2.040160758E-02
  0.000000000E+00-8.283733951E-03 4.256326594E-06 0.000000000E+00 7.592394395E-04
 -4.256326594E-06 0.000000000E+00 7.592394395E-04-2.048266966E-04 0.000000000E+00
  3.806136554E-04 2.048266966E-04 0.000000000E+00 3.806136554E-04
  2.544249506E-12-2.282539726E-16 1.805890597E+00

..... END OF SINGLE POINT GRADIENT .....
 STEP CPU TIME =     0.00 TOTAL CPU TIME =        4.7 (    0.1 MIN)
 TOTAL WALL CLOCK TIME=       27.3 SECONDS, CPU UTILIZATION IS  17.06%
              1171001  WORDS OF DYNAMIC MEMORY USED
 EXECUTION OF GAMESS TERMINATED NORMALLY Mon Nov 28 21:28:13 2016
 DDI: 263640 bytes (0.3 MB / 0 MWords) used by master data server.

 ----------------------------------------
 CPU timing information for all processes
 ========================================
 0: 4.274 + 0.392 = 4.667
 ----------------------------------------
 ddikick.x: exited gracefully.
unset echo
----- accounting info -----
Files used on the master node compute-3-0 were:
-rw-rw-r-- 1 sarom sarom   191906 Nov 29  2016 .//mc-psi-c4h4.dat
-rw-rw-r-- 1 sarom sarom   164230 Nov 29  2016 .//mc-psi-c4h4.F05
-rw-rw-r-- 1 sarom sarom 37803360 Nov 29  2016 .//mc-psi-c4h4.F08
-rw-rw-r-- 1 sarom sarom   220424 Nov 29  2016 .//mc-psi-c4h4.F09
-rw-rw-r-- 1 sarom sarom  3042960 Nov 29  2016 .//mc-psi-c4h4.F10
-rw-rw-r-- 1 sarom sarom   276504 Nov 29  2016 .//mc-psi-c4h4.F11
-rw-rw-r-- 1 sarom sarom      288 Nov 29  2016 .//mc-psi-c4h4.F12
-rw-rw-r-- 1 sarom sarom   309168 Nov 29  2016 .//mc-psi-c4h4.F13
-rw-rw-r-- 1 sarom sarom   400008 Nov 29  2016 .//mc-psi-c4h4.F14
-rw-rw-r-- 1 sarom sarom   181112 Nov 29  2016 .//mc-psi-c4h4.F15
-rw-rw-r-- 1 sarom sarom   181112 Nov 29  2016 .//mc-psi-c4h4.F16
-rw-rw-r-- 1 sarom sarom   164230 Nov 27 05:47 .//mc-psi-c4h4.inp
-rw-rw-r-- 1 sarom sarom   225502 Nov 29  2016 .//mc-psi-c4h4.log
Mon Nov 28 21:28:19 CST 2016
0.201u 0.532s 0:35.34 2.0%	0+0k 0+456io 0pf+0w
