-catch_rsh /opt/gridengine/default/spool/compute-1-7/active_jobs/35694.1/pe_hostfile
compute-1-7
The primary node assigned by SGE to this run is compute-1-7
Warning: no access to tty (Bad file descriptor).
Thus no job control in this shell.
source /home/sarom/dir.git.branch.saromleang-travis-ci/install.info
setenv GMS_PATH /home/sarom/dir.git.branch.saromleang-travis-ci
setenv GMS_BUILD_DIR /home/sarom/dir.git.branch.saromleang-travis-ci
setenv GMS_TARGET linux64
setenv GMS_FORTRAN gfortran
setenv GMS_GFORTRAN_VERNO 4.4
setenv GMS_MATHLIB mkl-so
setenv GMS_MATHLIB none
setenv GMS_MATHLIB_PATH /share/apps/intel/compilers_and_libraries_2017.1.132/linux/mkl/lib/intel64
setenv GMS_MKL_VERNO 12
setenv GMS_DDI_COMM sockets
setenv GMS_LIBCCHEM false
setenv GMS_EIGEN_PATH
setenv GMS_PHI false
setenv GMS_SHMTYPE sysv
setenv GMS_OPENMP false
unset echo
pol-alpha
/home/sarom/dir.git.branch.saromleang-travis-ci/tests/spectra/parallel
----- GAMESS execution script 'rungms' -----
This job is running on host compute-1-7.local
under operating system Linux at Wed Aug 9 19:50:11 CDT 2017
Available scratch disk space (Kbyte units) at beginning of the job is
Filesystem           1K-blocks      Used Available Use% Mounted on
/dev/sda1             16126920   8505684   6802036  56% /
GAMESS temporary binary files will be written to /scratch
GAMESS supplementary output files will be written to /home/sarom/restart
Copying input file pol-alpha.inp to your run's scratch directory...
cp /home/sarom/dir.git.branch.saromleang-travis-ci/tests/spectra/parallel/pol-alpha.inp /scratch/pol-alpha.F05
unset echo
The generated host list is
compute-1-7.local
/home/sarom/dir.git.branch.saromleang-travis-ci/ddikick.x /home/sarom/dir.git.branch.saromleang-travis-ci/gamess.00.x pol-alpha -ddi 1 1 compute-1-7.local -scr /scratch

 Distributed Data Interface kickoff program.
 Initiating 1 compute processes on 1 nodes to run the following command:
 /home/sarom/dir.git.branch.saromleang-travis-ci/gamess.00.x pol-alpha 

          ******************************************************
          *         GAMESS VERSION = 20 APR 2017 (R1)          *
          *             FROM IOWA STATE UNIVERSITY             *
          * M.W.SCHMIDT, K.K.BALDRIDGE, J.A.BOATZ, S.T.ELBERT, *
          *   M.S.GORDON, J.H.JENSEN, S.KOSEKI, N.MATSUNAGA,   *
          *          K.A.NGUYEN, S.J.SU, T.L.WINDUS,           *
          *       TOGETHER WITH M.DUPUIS, J.A.MONTGOMERY       *
          *         J.COMPUT.CHEM.  14, 1347-1363(1993)        *
          **************** 64 BIT LINUX VERSION ****************

  SINCE 1993, STUDENTS AND POSTDOCS WORKING AT IOWA STATE UNIVERSITY
  AND ALSO IN THEIR VARIOUS JOBS AFTER LEAVING ISU HAVE MADE IMPORTANT
  CONTRIBUTIONS TO THE CODE:
     IVANA ADAMOVIC, CHRISTINE AIKENS, YURI ALEXEEV, POOJA ARORA,
     ANDREY ASADCHEV, ROB BELL, PRADIPTA BANDYOPADHYAY, JONATHAN BENTZ,
     BRETT BODE, KURT BRORSEN, CALEB CARLIN, GALINA CHABAN, WEI CHEN,
     CHEOL HO CHOI, PAUL DAY, ALBERT DEFUSCO, NUWAN DESILVA, TIM DUDLEY,
     DMITRI FEDOROV, GRAHAM FLETCHER, MARK FREITAG, KURT GLAESEMANN,
     DAN KEMP, GRANT MERRILL, NORIYUKI MINEZAWA, JONATHAN MULLIN,
     TAKESHI NAGATA, SEAN NEDD, HEATHER NETZLOFF, BOSILJKA NJEGIC, RYAN OLSON,
     MIKE PAK, SPENCER PRUITT, LUKE ROSKOP, JIM SHOEMAKER, LYUDMILA SLIPCHENKO,
     TONY SMITH, SAROM SOK LEANG, JIE SONG, TETSUYA TAKETSUGU, SIMON WEBB,
     PENG XU, SOOHAENG YOO, FEDERICO ZAHARIEV

  ADDITIONAL CODE HAS BEEN PROVIDED BY COLLABORATORS IN OTHER GROUPS:
     IOWA STATE UNIVERSITY:
          JOE IVANIC, AARON WEST, LAIMUTIS BYTAUTAS, KLAUS RUEDENBERG
     UNIVERSITY OF TOKYO: KIMIHIKO HIRAO, TAKAHITO NAKAJIMA,
          TAKAO TSUNEDA, MUNEAKI KAMIYA, SUSUMU YANAGISAWA,
          KIYOSHI YAGI, MAHITO CHIBA, SEIKEN TOKURA, NAOAKI KAWAKAMI
     UNIVERSITY OF AARHUS: FRANK JENSEN
     UNIVERSITY OF IOWA: VISVALDAS KAIRYS, HUI LI
     NATIONAL INST. OF STANDARDS AND TECHNOLOGY: WALT STEVENS, DAVID GARMER
     UNIVERSITY OF PISA: BENEDETTA MENNUCCI, JACOPO TOMASI
     UNIVERSITY OF MEMPHIS: HENRY KURTZ, PRAKASHAN KORAMBATH
     UNIVERSITY OF ALBERTA: TOBY ZENG, MARIUSZ KLOBUKOWSKI
     UNIVERSITY OF NEW ENGLAND: MARK SPACKMAN
     MIE UNIVERSITY: HIROAKI UMEDA
     NAT. INST. OF ADVANCED INDUSTRIAL SCIENCE AND TECHNOLOGY: KAZUO KITAURA
     MICHIGAN STATE UNIVERSITY:
          KAROL KOWALSKI, MARTA WLOCH, JEFFREY GOUR, JESSE LUTZ,
          WEI LI, PIOTR PIECUCH
     UNIVERSITY OF SILESIA: MONIKA MUSIAL, STANISLAW KUCHARSKI
     FACULTES UNIVERSITAIRES NOTRE-DAME DE LA PAIX:
          OLIVIER QUINET, BENOIT CHAMPAGNE
     UNIVERSITY OF CALIFORNIA - SANTA BARBARA: BERNARD KIRTMAN
     INSTITUTE FOR MOLECULAR SCIENCE:
          KAZUYA ISHIMURA, MICHIO KATOUDA, AND SHIGERU NAGASE
     UNIVERSITY OF NOTRE DAME: ANNA POMOGAEVA, DAN CHIPMAN
     KYUSHU UNIVERSITY:
          HARUYUKI NAKANO,
          FENG LONG GU, JACEK KORCHOWIEC, MARCIN MAKOWSKI, AND YURIKO AOKI,
          HIROTOSHI MORI AND EISAKU MIYOSHI
     PENNSYLVANIA STATE UNIVERSITY:
          TZVETELIN IORDANOV, CHET SWALINA, JONATHAN SKONE,
          SHARON HAMMES-SCHIFFER
     WASEDA UNIVERSITY:
          MASATO KOBAYASHI, TOMOKO AKAMA, TSUGUKI TOUMA,
          TAKESHI YOSHIKAWA, YASUHIRO IKABATA, JUNJI SEINO,
          YUYA NAKAJIMA, HIROMI NAKAI
     NANJING UNIVERSITY: SHUHUA LI
     UNIVERSITY OF NEBRASKA:
          PEIFENG SU, DEJUN SI, NANDUN THELLAMUREGE, YALI WANG, HUI LI
     UNIVERSITY OF ZURICH: ROBERTO PEVERATI, KIM BALDRIDGE
     N. COPERNICUS UNIVERSITY AND JACKSON STATE UNIVERSITY:
          MARIA BARYSZ
     UNIVERSITY OF COPENHAGEN: Jimmy Kromann, CASPER STEINMANN
     TOKYO INSTITUTE OF TECHNOLOGY: HIROYA NAKATA
     NAGOYA UNIVERSITY: YOSHIO NISHIMOTO, STEPHAN IRLE
     MOSCOW STATE UNIVERSITY: VLADIMIR MIRONOV

 EXECUTION OF GAMESS BEGUN Wed Aug  9 19:50:11 2017

            ECHO OF THE FIRST FEW INPUT CARDS -
 INPUT CARD>!  Test case for localized orbital polarizabilities in methanol.                
 INPUT CARD>!  This run shows how to compute static ALPHA by all available means,           
 INPUT CARD>!  so there are no less than six (7) ways to evaluate ALPHA.  Some              
 INPUT CARD>!  of these runs generate additional analysis possibilties, or can              
 INPUT CARD>!  generate frequency dependent alpha or similar beta/gamma quantities.         
 INPUT CARD>!                                                                               
 INPUT CARD>!  This run takes just a few seconds no matter what calculation is run.         
 INPUT CARD>!  numerical results were refreshed 26 Mar 2013                                 
 INPUT CARD>!                                                                               
 INPUT CARD>!  The default calculation illustrates analytic POLDCM, used during MAKEFP.     
 INPUT CARD>!  Quick comparison: trace of static ALPHA in consistent units for 6 runs:      
 INPUT CARD>!        anal POLDCM: 2.23154 Angstrom**3                                       
 INPUT CARD>!         num POLNUM: 2.23140                                                   
 INPUT CARD>!         num POLAPP: 1.83202    i.e. this option is very inaccurate            
 INPUT CARD>!          anal TDHF: 2.23156                                                   
 INPUT CARD>!       anal HESSIAN: 2.23156                                                   
 INPUT CARD>!      energy FFIELD: 2.23159                                                   
 INPUT CARD>!      dipole FFIELD: 2.23158                                                   
 INPUT CARD>!                                                                               
 INPUT CARD>!  The order of the orbital results depends on the localization outcome,        
 INPUT CARD>!  which uses a random number to determine the order of the Jacobi              
 INPUT CARD>!  rotations.  The degree of the localization convergence can also              
 INPUT CARD>!  differ (same reason) which can have a small effect on the last               
 INPUT CARD>!  digits of the orbital breakdowns.                                            
 INPUT CARD>!                                                                               
 INPUT CARD>!  analytic POLDCM: ignore 9 repeat values printed after grand total.           
 INPUT CARD>!          MEAN ALPHA POLARIZABILITY =     0.000749676                          
 INPUT CARD>!          MEAN ALPHA POLARIZABILITY =     0.171280300                          
 INPUT CARD>!          MEAN ALPHA POLARIZABILITY =     0.454354768                          
 INPUT CARD>!          MEAN ALPHA POLARIZABILITY =     0.220697042                          
 INPUT CARD>!          MEAN ALPHA POLARIZABILITY =     0.464577149                          
 INPUT CARD>!          MEAN ALPHA POLARIZABILITY =     0.284021713                          
 INPUT CARD>!          MEAN ALPHA POLARIZABILITY =     0.464577148                          
 INPUT CARD>!          MEAN ALPHA POLARIZABILITY =     0.171280301                          
 INPUT CARD>!         total ALPHA POLARIZABILITY =     2.231538098                          
 INPUT CARD>!                                                                               
 INPUT CARD>!    Note that the analytic total is 2.23156 from run type hessian,             
 INPUT CARD>!    2.23156 from run type tdhf, and 2.232 from run type ffield.                
 INPUT CARD>!    The latter is a numerical differentiation, and seems reasonable.           
 INPUT CARD>!    Note that the sum of all orbital traces is 2.231538089.                    
 INPUT CARD>!                                                                               
 INPUT CARD>!    Of the two numerical approximations for POLDCM, it appears                 
 INPUT CARD>!    that POLNUM is acceptable, while POLAPP seems rather dodgy.                
 INPUT CARD>!                                                                               
 INPUT CARD>!  POLNUM: no total ALPHA is printed, * shows worst comparison to analytic.     
 INPUT CARD>!          individual terms fluctuate after about 6 significant figs.           
 INPUT CARD>!          MEAN ALPHA POLARIZABILITY =     0.000624096                          
 INPUT CARD>!          MEAN ALPHA POLARIZABILITY =     0.001644582                          
 INPUT CARD>!          MEAN ALPHA POLARIZABILITY =     0.295959771, compare to 0.2840       
 INPUT CARD>!          MEAN ALPHA POLARIZABILITY =     0.455723649, compare to 0.4544       
    1000000 WORDS OF MEMORY AVAILABLE

     BASIS OPTIONS
     -------------
     GBASIS=N31          IGAUSS=       6      POLAR=POPN31  
     NDFUNC=       1     NFFUNC=       0     DIFFSP=       F
     NPFUNC=       1      DIFFS=       F     BASNAM=        


     RUN TITLE
     ---------
 methanol...RHF/6-31G** structure                                                

 THE POINT GROUP OF THE MOLECULE IS CS      
 THE ORDER OF THE PRINCIPAL AXIS IS     0

 YOUR FULLY SUBSTITUTED Z-MATRIX IS
 H   
 O      1   0.9422599
 C      2   1.3985152  1  109.6501
 H      3   1.0819528  2  107.3394  1  180.0000  0
 H      3   1.0882339  2  112.1381  1   61.2195  0
 H      3   1.0882339  2  112.1381  1  -61.2195  0

 THE MOMENTS OF INERTIA ARE (AMU-ANGSTROM**2)
 IXX=     3.847   IYY=    19.873   IZZ=    20.574

 ATOM      ATOMIC                      COORDINATES (BOHR)
           CHARGE         X                   Y                   Z
 H           1.0    -1.9735924852        1.5224743026        0.0000000000
 O           8.0    -1.2842530247       -0.1192911605        0.0000000000
 C           6.0     1.3546242651        0.0248410069        0.0000000000
 H           1.0     2.0695101379       -1.8907017719        0.0000000000
 H           1.0     2.0784125014        0.9828433226       -1.6695525892
 H           1.0     2.0784125014        0.9828433226        1.6695525892

          INTERNUCLEAR DISTANCES (ANGS.)
          ------------------------------

                1 H          2 O          3 C          4 H          5 H     

   1 H       0.0000000    0.9422599 *  1.9313108 *  2.7999653 *  2.3366248 *
   2 O       0.9422599 *  0.0000000    1.3985152 *  2.0070838 *  2.0705392 *
   3 C       1.9313108 *  1.3985152 *  0.0000000    1.0819528 *  1.0882339 *
   4 H       2.7999653 *  2.0070838 *  1.0819528 *  0.0000000    1.7586485 *
   5 H       2.3366248 *  2.0705392 *  1.0882339 *  1.7586485 *  0.0000000  
   6 H       2.3366248 *  2.0705392 *  1.0882339 *  1.7586485 *  1.7669785 *

                6 H     

   1 H       2.3366248 *
   2 O       2.0705392 *
   3 C       1.0882339 *
   4 H       1.7586485 *
   5 H       1.7669785 *
   6 H       0.0000000  

  * ... LESS THAN  3.000


     ATOMIC BASIS SET
     ----------------
 THE CONTRACTED PRIMITIVE FUNCTIONS HAVE BEEN UNNORMALIZED
 THE CONTRACTED BASIS FUNCTIONS ARE NOW NORMALIZED TO UNITY

  SHELL TYPE  PRIMITIVE        EXPONENT          CONTRACTION COEFFICIENT(S)

 H         

      1   S       1            18.7311370    0.033494604338
      1   S       2             2.8253944    0.234726953484
      1   S       3             0.6401217    0.813757326146

      2   S       4             0.1612778    1.000000000000

      3   P       5             1.1000000    1.000000000000

 O         

      4   S       6          5484.6716600    0.001831074430
      4   S       7           825.2349460    0.013950172200
      4   S       8           188.0469580    0.068445078098
      4   S       9            52.9645000    0.232714335992
      4   S      10            16.8975704    0.470192897984
      4   S      11             5.7996353    0.358520852987

      5   L      12            15.5396162   -0.110777549525    0.070874268231
      5   L      13             3.5999336   -0.148026262701    0.339752839147
      5   L      14             1.0137618    1.130767015354    0.727158577316

      6   L      15             0.2700058    1.000000000000    1.000000000000

      7   D      16             0.8000000    1.000000000000

 C         

      8   S      17          3047.5248800    0.001834737132
      8   S      18           457.3695180    0.014037322813
      8   S      19           103.9486850    0.068842622264
      8   S      20            29.2101553    0.232184443216
      8   S      21             9.2866630    0.467941348435
      8   S      22             3.1639270    0.362311985337

      9   L      23             7.8682723   -0.119332419775    0.068999066591
      9   L      24             1.8812885   -0.160854151696    0.316423960957
      9   L      25             0.5442493    1.143456437840    0.744308290898

     10   L      26             0.1687145    1.000000000000    1.000000000000

     11   D      27             0.8000000    1.000000000000

 H         

     12   S      28            18.7311370    0.033494604338
     12   S      29             2.8253944    0.234726953484
     12   S      30             0.6401217    0.813757326146

     13   S      31             0.1612778    1.000000000000

     14   P      32             1.1000000    1.000000000000

 H         

     18   S      33            18.7311370    0.033494604338
     18   S      34             2.8253944    0.234726953484
     18   S      35             0.6401217    0.813757326146

     19   S      36             0.1612778    1.000000000000

     20   P      37             1.1000000    1.000000000000

 TOTAL NUMBER OF BASIS SET SHELLS             =   20
 NUMBER OF CARTESIAN GAUSSIAN BASIS FUNCTIONS =   50
 NUMBER OF ELECTRONS                          =   18
 CHARGE OF MOLECULE                           =    0
 SPIN MULTIPLICITY                            =    1
 NUMBER OF OCCUPIED ORBITALS (ALPHA)          =    9
 NUMBER OF OCCUPIED ORBITALS (BETA )          =    9
 TOTAL NUMBER OF ATOMS                        =    6
 THE NUCLEAR REPULSION ENERGY IS       40.8107874047

     $CONTRL OPTIONS
     ---------------
 SCFTYP=RHF          RUNTYP=ENERGY       EXETYP=RUN     
 MPLEVL=       0     CITYP =NONE         CCTYP =NONE         VBTYP =NONE    
 DFTTYP=NONE         TDDFT =NONE    
 MULT  =       1     ICHARG=       0     NZVAR =      12     COORD =ZMT     
 PP    =NONE         RELWFN=NONE         LOCAL =BOYS         NUMGRD=       F
 ISPHER=      -1     NOSYM =       0     MAXIT =      30     UNITS =ANGS    
 PLTORB=       F     MOLPLT=       F     AIMPAC=       F     FRIEND=        
 NPRINT=       7     IREST =       0     GEOM  =INPUT   
 NORMF =       0     NORMP =       0     ITOL  =      20     ICUT  =       9
 INTTYP=BEST         GRDTYP=BEST         QMTTOL= 1.0E-06

     $SYSTEM OPTIONS
     ---------------
  REPLICATED MEMORY=     1000000 WORDS (ON EVERY NODE).
 DISTRIBUTED MEMDDI=           0 MILLION WORDS IN AGGREGATE,
 MEMDDI DISTRIBUTED OVER   1 PROCESSORS IS           0 WORDS/PROCESSOR.
 TOTAL MEMORY REQUESTED ON EACH PROCESSOR=     1000000 WORDS.
 TIMLIM=      525600.00 MINUTES, OR     365.0 DAYS.
 PARALL= F  BALTYP=  DLB     KDIAG=    0  COREFL= F
 MXSEQ2=     300 MXSEQ3=     150  mem10=         0

          ----------------
          PROPERTIES INPUT
          ----------------

     MOMENTS            FIELD           POTENTIAL          DENSITY
 IEMOM =       1   IEFLD =       0   IEPOT =       0   IEDEN =       0
 WHERE =COMASS     WHERE =NUCLEI     WHERE =NUCLEI     WHERE =NUCLEI  
 OUTPUT=BOTH       OUTPUT=BOTH       OUTPUT=BOTH       OUTPUT=BOTH    
 IEMINT=       0   IEFINT=       0                     IEDINT=       0
                                                       MORB  =       0
          EXTRAPOLATION IN EFFECT
          SOSCF IN EFFECT
 ORBITAL PRINTING OPTION: NPREO=     1    50     2     1

     -------------------------------
     INTEGRAL TRANSFORMATION OPTIONS
     -------------------------------
     NWORD  =            0
     CUTOFF = 1.0E-09     MPTRAN =       0
     DIRTRF =       F     AOINTS =DUP     

          -----------------------------
          LOCALIZATION INPUT PARAMETERS
          -----------------------------
           LOCAL=BOYS          NOUTA=       2
          PRTLOC=       F      NOUTB=       0
          MAXLOC=     250     CVGLOC=1.00E-06
           FCORE=       T     SYMLOC=       F
          MOIDON=       F     EDCOMP=       F
          DIPDCM=       F      NPROT=       0
          QADDCM=       F     DEPRNT=       F
          POLNUM=       F     ORIENT=       F
          POLDYN=       F      VMTOL=1.50E-01
          NPRDTL=       2
          MOOUTA =      1    2

          ----------------------
          INTEGRAL INPUT OPTIONS
          ----------------------
 NOPK  =       1 NORDER=       0 SCHWRZ=       T

   --- ENCODED Z MATRIX ---
 COORD  TYPE   I   J   K   L   M   N
    1      1    2   1
    2      1    3   2
    3      2    3   2   1
    4      1    4   3
    5      2    4   3   2
    6      3    4   3   2   1
    7      1    6   3
    8      2    6   3   2
    9      3    6   3   2   1
   10      1    5   3
   11      2    5   3   2
   12      3    5   3   2   1

 THE DETERMINANT OF THE G MATRIX IS 10**(    -4)


                     --------------------
                     INTERNAL COORDINATES
                     --------------------

                 - - ATOMS - -         COORDINATE      COORDINATE
 NO.   TYPE    I  J  K  L  M  N        (BOHR,RAD)       (ANG,DEG)
 ----------------------------------------------------------------
   1 STRETCH   2  1                     1.7806130       0.9422599
   2 STRETCH   3  2                     2.6428105       1.3985152
   3 BEND      3  2  1                  1.9137552     109.6500947
   4 STRETCH   4  3                     2.0445943       1.0819528
   5 BEND      4  3  2                  1.8734259     107.3393964
   6 TORSION   4  3  2  1               3.1415927     180.0000000
   7 STRETCH   6  3                     2.0564639       1.0882339
   8 BEND      6  3  2                  1.9571789     112.1380879
   9 TORSION   6  3  2  1               1.0684825      61.2195401
  10 STRETCH   5  3                     2.0564639       1.0882339
  11 BEND      5  3  2                  1.9571789     112.1380879
  12 TORSION   5  3  2  1              -1.0684825     -61.2195401

     ------------------------------------------
     THE POINT GROUP IS CS , NAXIS= 0, ORDER= 2
     ------------------------------------------

     DIMENSIONS OF THE SYMMETRY SUBSPACES ARE
 A'  =   35     A'' =   15

 ..... DONE SETTING UP THE RUN .....
 STEP CPU TIME =     0.02 TOTAL CPU TIME =        0.0 (    0.0 MIN)
 TOTAL WALL CLOCK TIME=        0.0 SECONDS, CPU UTILIZATION IS  66.67%

          ********************
          1 ELECTRON INTEGRALS
          ********************
 ...... END OF ONE-ELECTRON INTEGRALS ......
 STEP CPU TIME =     0.00 TOTAL CPU TIME =        0.0 (    0.0 MIN)
 TOTAL WALL CLOCK TIME=        0.0 SECONDS, CPU UTILIZATION IS  66.67%

          -------------
          GUESS OPTIONS
          -------------
          GUESS =HUCKEL            NORB  =       0          NORDER=       0
          MIX   =       F          PRTMO =       F          PUNMO =       F
          TOLZ  = 1.0E-08          TOLE  = 1.0E-05
          SYMDEN=       F          PURIFY=       F

 INITIAL GUESS ORBITALS GENERATED BY HUCKEL   ROUTINE.
 HUCKEL GUESS REQUIRES     23454 WORDS.

 SYMMETRIES FOR INITIAL GUESS ORBITALS FOLLOW.   BOTH SET(S).
     9 ORBITALS ARE OCCUPIED (    2 CORE ORBITALS).
     3=A'       4=A'       5=A'       6=A''      7=A'       8=A'       9=A'' 
    10=A'      11=A''     12=A'      13=A'      14=A'      15=A'      16=A'  
    17=A'      18=A'      19=A'  
 ...... END OF INITIAL ORBITAL SELECTION ......
 STEP CPU TIME =     0.01 TOTAL CPU TIME =        0.0 (    0.0 MIN)
 TOTAL WALL CLOCK TIME=        0.0 SECONDS, CPU UTILIZATION IS 100.00%

                    ----------------------
                    AO INTEGRAL TECHNOLOGY
                    ----------------------
     S,P,L SHELL ROTATED AXIS INTEGRALS, REPROGRAMMED BY
        KAZUYA ISHIMURA (IMS) AND JOSE SIERRA (SYNSTAR).
     S,P,D,L SHELL ROTATED AXIS INTEGRALS PROGRAMMED BY
        KAZUYA ISHIMURA (INSTITUTE FOR MOLECULAR SCIENCE).
     S,P,D,F,G SHELL TO TOTAL QUARTET ANGULAR MOMENTUM SUM 5,
        ERIC PROGRAM BY GRAHAM FLETCHER (ELORET AND NASA ADVANCED
        SUPERCOMPUTING DIVISION, AMES RESEARCH CENTER).
     S,P,D,F,G,L SHELL GENERAL RYS QUADRATURE PROGRAMMED BY
        MICHEL DUPUIS (PACIFIC NORTHWEST NATIONAL LABORATORY).

          --------------------
          2 ELECTRON INTEGRALS
          --------------------

 THE -PK- OPTION IS OFF, THE INTEGRALS ARE NOT IN SUPERMATRIX FORM.
 STORING   15000 INTEGRALS/RECORD ON DISK, USING 12 BYTES/INTEGRAL.
 TWO ELECTRON INTEGRAL EVALUATION REQUIRES   90606 WORDS OF MEMORY.
 SCHWARZ INEQUALITY OVERHEAD:      1275 INTEGRALS, T=        0.00
 II,JST,KST,LST =  1  1  1  1 NREC =         1 INTLOC =    1
 II,JST,KST,LST =  2  1  1  1 NREC =         1 INTLOC =    2
 II,JST,KST,LST =  3  1  1  1 NREC =         1 INTLOC =    7
 II,JST,KST,LST =  4  1  1  1 NREC =         1 INTLOC =   34
 II,JST,KST,LST =  5  1  1  1 NREC =         1 INTLOC =  109
 II,JST,KST,LST =  6  1  1  1 NREC =         1 INTLOC =  831
 II,JST,KST,LST =  7  1  1  1 NREC =         1 INTLOC = 2759
 II,JST,KST,LST =  8  1  1  1 NREC =         1 INTLOC = 9260
 II,JST,KST,LST =  9  1  1  1 NREC =         1 INTLOC =11904
 II,JST,KST,LST = 10  1  1  1 NREC =         2 INTLOC =11049
 II,JST,KST,LST = 11  1  1  1 NREC =         4 INTLOC = 3325
 II,JST,KST,LST = 12  1  1  1 NREC =         7 INTLOC =10486
 II,JST,KST,LST = 13  1  1  1 NREC =         8 INTLOC = 8677
 II,JST,KST,LST = 14  1  1  1 NREC =         9 INTLOC = 8156
 II,JST,KST,LST = 15  1  1  1 NREC =        12 INTLOC = 9237
 II,JST,KST,LST = 16  1  1  1 NREC =        12 INTLOC = 9237
 II,JST,KST,LST = 17  1  1  1 NREC =        12 INTLOC = 9237
 II,JST,KST,LST = 18  1  1  1 NREC =        12 INTLOC = 9237
 II,JST,KST,LST = 19  1  1  1 NREC =        15 INTLOC =   37
 II,JST,KST,LST = 20  1  1  1 NREC =        17 INTLOC =11373
 SCHWARZ INEQUALITY TEST SKIPPED          50 INTEGRAL BLOCKS.
 TOTAL NUMBER OF NONZERO TWO-ELECTRON INTEGRALS =              413774
         28 INTEGRAL RECORDS WERE STORED ON DISK FILE  8.
  ...... END OF TWO-ELECTRON INTEGRALS .....
 STEP CPU TIME =     0.04 TOTAL CPU TIME =        0.1 (    0.0 MIN)
 TOTAL WALL CLOCK TIME=        0.1 SECONDS, CPU UTILIZATION IS  87.50%

          --------------------------
                 RHF SCF CALCULATION
          --------------------------

     NUCLEAR ENERGY =        40.8107874047
     MAXIT =   30     NPUNCH=    2
     EXTRAP=T  DAMP=F  SHIFT=F  RSTRCT=F  DIIS=F  DEM=F  SOSCF=T
     DENSITY MATRIX CONV=  1.00E-05
     SOSCF WILL OPTIMIZE     369 ORBITAL ROTATIONS, SOGTOL=   0.250
     MEMORY REQUIRED FOR RHF ITERS=     49676 WORDS.

 ITER EX DEM     TOTAL ENERGY        E CHANGE  DENSITY CHANGE     ORB. GRAD
   1  0  0     -114.6769027732  -114.6769027732   0.236716241   0.000000000
          ---------------START SECOND ORDER SCF---------------
   2  1  0     -115.0256640385    -0.3487612652   0.084315201   0.042936400
   3  2  0     -115.0445153800    -0.0188513415   0.033381747   0.013705879
   4  3  0     -115.0466501100    -0.0021347300   0.003465644   0.002017093
   5  4  0     -115.0467027132    -0.0000526032   0.001423768   0.000796773
   6  5  0     -115.0467094263    -0.0000067131   0.000403671   0.000257815
   7  6  0     -115.0467100932    -0.0000006669   0.000132400   0.000042653
   8  7  0     -115.0467101313    -0.0000000381   0.000035816   0.000013690
   9  8  0     -115.0467101342    -0.0000000029   0.000008974   0.000002327
  10  9  0     -115.0467101344    -0.0000000001   0.000002442   0.000000740

          -----------------
          DENSITY CONVERGED
          -----------------
     TIME TO FORM FOCK OPERATORS=       0.0 SECONDS (       0.0 SEC/ITER)
     TIME TO SOLVE SCF EQUATIONS=       0.0 SECONDS (       0.0 SEC/ITER)

 FINAL RHF ENERGY IS     -115.0467101344 AFTER  10 ITERATIONS

          ------------
          EIGENVECTORS
          ------------

                      1          2          3          4          5
                  -20.5552   -11.2676    -1.3607    -0.9266    -0.6927
                     A'         A'         A'         A'         A'  
    1  H  1  S    0.000041   0.000165   0.140200  -0.119295   0.222029
    2  H  1  S   -0.000461   0.000392   0.012460  -0.037731   0.109793
    3  H  1  X   -0.000178   0.000237   0.011046  -0.002698   0.005974
    4  H  1  Y    0.000406  -0.000078  -0.021625   0.014917  -0.017267
    5  H  1  Z   -0.000000   0.000000   0.000000   0.000000   0.000000
    6  O  2  S    0.994659  -0.000156  -0.203536   0.058782   0.040336
    7  O  2  S    0.021278   0.000166   0.453957  -0.130851  -0.094629
    8  O  2  X    0.000631   0.000129   0.050533   0.187974  -0.218140
    9  O  2  Y    0.001291  -0.000006   0.066964  -0.076834   0.367247
   10  O  2  Z   -0.000000   0.000000   0.000000   0.000000   0.000000
   11  O  2  S    0.003925   0.000995   0.422881  -0.176233  -0.167610
   12  O  2  X   -0.000535  -0.000263   0.038350   0.089196  -0.119088
   13  O  2  Y   -0.000267  -0.000285   0.024514  -0.033300   0.213530
   14  O  2  Z   -0.000000   0.000000   0.000000   0.000000   0.000000
   15  O  2 XX   -0.004171  -0.000769   0.015515   0.017855  -0.017888
   16  O  2 YY   -0.003742  -0.000131   0.005380  -0.008722   0.025225
   17  O  2 ZZ   -0.003867   0.000090  -0.000706  -0.001424  -0.004415
   18  O  2 XY   -0.000110  -0.000009   0.001890   0.006811   0.001608
   19  O  2 XZ   -0.000000   0.000000   0.000000   0.000000   0.000000
   20  O  2 YZ   -0.000000   0.000000   0.000000   0.000000   0.000000
   21  C  3  S   -0.000016   0.995779  -0.070981  -0.177198  -0.024039
   22  C  3  S    0.000277   0.027352   0.131388   0.347531   0.042506
   23  C  3  X   -0.000361  -0.000762  -0.099365   0.060790   0.197182
   24  C  3  Y   -0.000044   0.000032  -0.000560  -0.013600   0.201617
   25  C  3  Z   -0.000000   0.000000   0.000000   0.000000   0.000000
   26  C  3  S    0.000264  -0.011966   0.036299   0.311829   0.082299
   27  C  3  X    0.000026  -0.000565   0.004786   0.029811   0.058403
   28  C  3  Y    0.000270   0.000028   0.006660   0.005178   0.088544
   29  C  3  Z   -0.000000   0.000000   0.000000   0.000000   0.000000
   30  C  3 XX    0.000013  -0.001484   0.023937  -0.006030  -0.023266
   31  C  3 YY   -0.000040  -0.001650  -0.009011   0.002422   0.002104
   32  C  3 ZZ   -0.000003  -0.001681  -0.009787   0.000442   0.017881
   33  C  3 XY    0.000002   0.000002  -0.000485   0.002054  -0.007208
   34  C  3 XZ   -0.000000   0.000000   0.000000   0.000000   0.000000
   35  C  3 YZ   -0.000000   0.000000   0.000000   0.000000   0.000000
   36  H  4  S   -0.000008   0.000039   0.026585   0.145449  -0.040506
   37  H  4  S    0.000019   0.002461   0.008361   0.050778  -0.026200
   38  H  4  X    0.000054   0.000060  -0.002248  -0.003351   0.002907
   39  H  4  Y   -0.000023  -0.000064   0.003673   0.012431  -0.000361
   40  H  4  Z   -0.000000   0.000000   0.000000   0.000000   0.000000
   41  H  5  S   -0.000077   0.000024   0.025759   0.137159   0.113286
   42  H  5  S   -0.000133   0.002441   0.003412   0.044293   0.069292
   43  H  5  X    0.000051   0.000053  -0.002283  -0.003879  -0.000092
   44  H  5  Y    0.000001   0.000039  -0.002076  -0.006014  -0.000849
   45  H  5  Z   -0.000036  -0.000077   0.003240   0.010216   0.006581
   46  H  6  S   -0.000077   0.000024   0.025759   0.137159   0.113286
   47  H  6  S   -0.000133   0.002441   0.003412   0.044293   0.069292
   48  H  6  X    0.000051   0.000053  -0.002283  -0.003879  -0.000092
   49  H  6  Y    0.000001   0.000039  -0.002076  -0.006014  -0.000849
   50  H  6  Z    0.000036   0.000077  -0.003240  -0.010216  -0.006581

                      6          7          8          9         10
                   -0.6197    -0.5947    -0.4957    -0.4425     0.2280
                     A''        A'         A'         A''        A'  
    1  H  1  S   -0.000000  -0.042216   0.137905   0.000000   0.057957
    2  H  1  S   -0.000000  -0.039656   0.097489   0.000000   1.272619
    3  H  1  X   -0.000000   0.010360   0.011110   0.000000   0.006788
    4  H  1  Y   -0.000000   0.007367  -0.003275   0.000000  -0.008931
    5  H  1  Z    0.011322  -0.000000   0.000000   0.017960  -0.000000
    6  O  2  S   -0.000000   0.026900   0.048569   0.000000   0.078847
    7  O  2  S   -0.000000  -0.063293  -0.107126   0.000000  -0.057513
    8  O  2  X   -0.000000   0.385267   0.181150   0.000000   0.029143
    9  O  2  Y   -0.000000   0.144247   0.373315   0.000000  -0.176965
   10  O  2  Z    0.345907  -0.000000   0.000000   0.541617  -0.000000
   11  O  2  S   -0.000000  -0.102352  -0.233195   0.000000  -1.114473
   12  O  2  X   -0.000000   0.258978   0.147525   0.000000   0.080524
   13  O  2  Y   -0.000000   0.098924   0.283176   0.000000  -0.458874
   14  O  2  Z    0.231551  -0.000000   0.000000   0.447051  -0.000000
   15  O  2 XX   -0.000000   0.015556   0.006228   0.000000   0.039979
   16  O  2 YY   -0.000000  -0.002268   0.022615   0.000000   0.020660
   17  O  2 ZZ   -0.000000  -0.007078  -0.008497   0.000000   0.051588
   18  O  2 XY   -0.000000   0.024688   0.005574   0.000000   0.002460
   19  O  2 XZ    0.015260  -0.000000   0.000000   0.008384  -0.000000
   20  O  2 YZ    0.012819  -0.000000   0.000000   0.017574  -0.000000
   21  C  3  S   -0.000000  -0.000481  -0.008837   0.000000   0.056830
   22  C  3  S   -0.000000   0.002304   0.022608   0.000000  -0.028656
   23  C  3  X   -0.000000  -0.282461  -0.099832   0.000000  -0.156950
   24  C  3  Y   -0.000000   0.252093  -0.310923   0.000000  -0.044768
   25  C  3  Z    0.372057  -0.000000   0.000000  -0.241155  -0.000000
   26  C  3  S   -0.000000  -0.039626  -0.002761   0.000000  -1.123240
   27  C  3  X   -0.000000  -0.099254  -0.020124   0.000000  -0.598499
   28  C  3  Y   -0.000000   0.137830  -0.133533   0.000000  -0.074791
   29  C  3  Z    0.158567  -0.000000   0.000000  -0.094903  -0.000000
   30  C  3 XX   -0.000000   0.030198   0.010061   0.000000  -0.001949
   31  C  3 YY   -0.000000  -0.025174   0.011964   0.000000   0.014352
   32  C  3 ZZ   -0.000000  -0.002181  -0.020848   0.000000   0.008794
   33  C  3 XY   -0.000000   0.006997  -0.027564   0.000000   0.002134
   34  C  3 XZ    0.001946  -0.000000   0.000000  -0.034492  -0.000000
   35  C  3 YZ    0.019042  -0.000000   0.000000  -0.018345  -0.000000
   36  H  4  S   -0.000000  -0.212832   0.203601   0.000000   0.004324
   37  H  4  S   -0.000000  -0.154443   0.195231   0.000000   0.475450
   38  H  4  X   -0.000000   0.001227  -0.004691   0.000000  -0.005684
   39  H  4  Y   -0.000000  -0.009378   0.007406   0.000000  -0.001393
   40  H  4  Z    0.005827  -0.000000   0.000000  -0.004867  -0.000000
   41  H  5  S   -0.183653   0.011405  -0.125079   0.171652  -0.002409
   42  H  5  S   -0.149758   0.007267  -0.132853   0.193104   0.669856
   43  H  5  X    0.004670  -0.003896   0.000879  -0.001969  -0.004193
   44  H  5  Y    0.005917   0.002914  -0.002141  -0.004577   0.001238
   45  H  5  Z   -0.005474   0.000861  -0.007001   0.003935   0.000580
   46  H  6  S    0.183653   0.011405  -0.125079  -0.171652  -0.002409
   47  H  6  S    0.149758   0.007267  -0.132853  -0.193104   0.669856
   48  H  6  X   -0.004670  -0.003896   0.000879   0.001969  -0.004193
   49  H  6  Y   -0.005917   0.002914  -0.002141   0.004577   0.001238
   50  H  6  Z   -0.005474  -0.000861   0.007001   0.003935  -0.000580

                     11         12         13         14         15
                    0.2804     0.3238     0.3304     0.3886     0.7582
                     A'         A'         A''        A'         A'  
    1  H  1  S    0.047395  -0.018810   0.000000   0.023779  -0.086259
    2  H  1  S    0.841333  -0.079864   0.000000   0.972287  -0.151742
    3  H  1  X   -0.002253   0.006801   0.000000   0.007993   0.033218
    4  H  1  Y   -0.002794  -0.000741   0.000000  -0.011980  -0.010486
    5  H  1  Z    0.000000  -0.000000  -0.005680   0.000000   0.000000
    6  O  2  S    0.060336   0.009170   0.000000  -0.052684  -0.008950
    7  O  2  S   -0.016060  -0.005956   0.000000   0.038055   0.100342
    8  O  2  X   -0.037986  -0.068988   0.000000   0.296966  -0.120103
    9  O  2  Y   -0.126535  -0.053175   0.000000  -0.111023  -0.042127
   10  O  2  Z    0.000000  -0.000000  -0.080723   0.000000   0.000000
   11  O  2  S   -0.953165  -0.164035   0.000000   0.900049   0.001386
   12  O  2  X   -0.150540  -0.144130   0.000000   0.999471   0.037410
   13  O  2  Y   -0.308315  -0.215435   0.000000  -0.316898  -0.209768
   14  O  2  Z    0.000000  -0.000000  -0.259788   0.000000   0.000000
   15  O  2 XX    0.043743  -0.000302   0.000000   0.011188   0.055431
   16  O  2 YY    0.027334   0.000627   0.000000  -0.042002   0.008283
   17  O  2 ZZ    0.042633   0.002504   0.000000  -0.028369   0.023380
   18  O  2 XY   -0.003604   0.010110   0.000000   0.014789   0.004197
   19  O  2 XZ    0.000000  -0.000000   0.006773   0.000000   0.000000
   20  O  2 YZ    0.000000  -0.000000  -0.011892   0.000000   0.000000
   21  C  3  S   -0.136012  -0.012132   0.000000   0.061085  -0.003076
   22  C  3  S    0.110782  -0.000462   0.000000  -0.034947   0.022769
   23  C  3  X    0.060692  -0.036458   0.000000   0.179717  -0.030134
   24  C  3  Y   -0.020995   0.338033   0.000000   0.030476  -0.707412
   25  C  3  Z    0.000000  -0.000000   0.368779   0.000000   0.000000
   26  C  3  S    2.450909   0.176519   0.000000  -1.031794  -0.037030
   27  C  3  X    0.199815  -0.277343   0.000000   1.624469  -0.008153
   28  C  3  Y   -0.075364   1.496053   0.000000   0.385238   1.643007
   29  C  3  Z    0.000000  -0.000000   1.512236   0.000000   0.000000
   30  C  3 XX   -0.010973  -0.005590   0.000000   0.008960  -0.026565
   31  C  3 YY    0.001085   0.010665   0.000000  -0.013231   0.076330
   32  C  3 ZZ   -0.004217  -0.005890   0.000000  -0.020567  -0.063839
   33  C  3 XY    0.002767  -0.002047   0.000000   0.005720  -0.030577
   34  C  3 XZ    0.000000  -0.000000   0.003319   0.000000   0.000000
   35  C  3 YZ    0.000000  -0.000000  -0.006976   0.000000   0.000000
   36  H  4  S    0.001468   0.059965   0.000000  -0.044307   0.504815
   37  H  4  S   -1.194872   1.920602   0.000000   0.284507   0.343691
   38  H  4  X   -0.000899  -0.004769   0.000000   0.002083  -0.017796
   39  H  4  Y   -0.004615   0.005858   0.000000   0.004629   0.033789
   40  H  4  Z    0.000000  -0.000000   0.008720   0.000000   0.000000
   41  H  5  S    0.002964  -0.023858   0.028110  -0.063589  -0.241349
   42  H  5  S   -1.048545  -0.939029   1.682360  -0.275968  -0.154413
   43  H  5  X   -0.000078   0.000264  -0.003210   0.008707   0.005085
   44  H  5  Y    0.002915   0.007634   0.001722   0.001126   0.031925
   45  H  5  Z   -0.002225   0.000363   0.006606   0.003730  -0.005224
   46  H  6  S    0.002964  -0.023858  -0.028110  -0.063589  -0.241349
   47  H  6  S   -1.048545  -0.939029  -1.682360  -0.275968  -0.154413
   48  H  6  X   -0.000078   0.000264   0.003210   0.008707   0.005085
   49  H  6  Y    0.002915   0.007634  -0.001722   0.001126   0.031925
   50  H  6  Z    0.002225  -0.000363   0.006606  -0.003730   0.005224

                     16         17         18         19         20
                    0.7703     0.7921     1.0238     1.0989     1.1219
                     A''        A'         A'         A''        A'  
    1  H  1  S   -0.000000  -0.092235   0.759238   0.000000  -0.150751
    2  H  1  S   -0.000000   0.188632  -0.574330   0.000000   0.096246
    3  H  1  X   -0.000000  -0.052359  -0.067235   0.000000   0.081925
    4  H  1  Y   -0.000000  -0.021296   0.146004   0.000000  -0.126646
    5  H  1  Z   -0.002591   0.000000   0.000000   0.010638  -0.000000
    6  O  2  S   -0.000000   0.020113   0.029456   0.000000  -0.013936
    7  O  2  S   -0.000000  -0.237988   0.006731   0.000000  -0.383544
    8  O  2  X   -0.000000  -0.267525  -0.122693   0.000000   0.154240
    9  O  2  Y   -0.000000  -0.034206  -0.240654   0.000000   0.549397
   10  O  2  Z   -0.178988   0.000000   0.000000   0.168931  -0.000000
   11  O  2  S   -0.000000   0.746640   0.005045   0.000000   0.584380
   12  O  2  X   -0.000000   0.016103   0.299352   0.000000  -0.308488
   13  O  2  Y   -0.000000   0.080880  -0.110029   0.000000  -0.653397
   14  O  2  Z   -0.213043   0.000000   0.000000  -0.255717  -0.000000
   15  O  2 XX   -0.000000   0.119952   0.057266   0.000000  -0.152804
   16  O  2 YY   -0.000000  -0.109987   0.204642   0.000000  -0.264684
   17  O  2 ZZ   -0.000000  -0.106857  -0.066505   0.000000  -0.102506
   18  O  2 XY   -0.000000   0.004396  -0.189612   0.000000   0.031527
   19  O  2 XZ   -0.011286   0.000000   0.000000  -0.103759  -0.000000
   20  O  2 YZ   -0.019735   0.000000   0.000000  -0.014574  -0.000000
   21  C  3  S   -0.000000  -0.039023   0.005512   0.000000  -0.037318
   22  C  3  S   -0.000000   0.437050   0.068946   0.000000  -0.130155
   23  C  3  X   -0.000000  -0.986748  -0.098065   0.000000   0.008491
   24  C  3  Y   -0.000000   0.054729  -0.467655   0.000000  -0.539160
   25  C  3  Z   -0.703516   0.000000   0.000000  -0.791019  -0.000000
   26  C  3  S   -0.000000  -0.431816  -0.302728   0.000000   0.650247
   27  C  3  X   -0.000000   1.237333   0.041454   0.000000   0.084347
   28  C  3  Y   -0.000000  -0.149113   1.003430   0.000000   1.089892
   29  C  3  Z    1.703125   0.000000   0.000000   1.426112  -0.000000
   30  C  3 XX   -0.000000  -0.063171  -0.084377   0.000000   0.067547
   31  C  3 YY   -0.000000   0.045963  -0.026682   0.000000  -0.172097
   32  C  3 ZZ   -0.000000   0.047480   0.106329   0.000000   0.045773
   33  C  3 XY   -0.000000  -0.013057   0.169994   0.000000   0.088524
   34  C  3 XZ   -0.014798   0.000000   0.000000   0.179472  -0.000000
   35  C  3 YZ   -0.083907   0.000000   0.000000   0.197431  -0.000000
   36  H  4  S   -0.000000  -0.086068  -0.300890   0.000000  -0.679931
   37  H  4  S   -0.000000  -0.124770   1.051265   0.000000   1.052896
   38  H  4  X   -0.000000  -0.014554  -0.073746   0.000000  -0.060285
   39  H  4  Y   -0.000000  -0.023919   0.042721   0.000000   0.097697
   40  H  4  Z    0.032048   0.000000   0.000000  -0.046200  -0.000000
   41  H  5  S    0.427752  -0.076565   0.320936  -0.635380  -0.015147
   42  H  5  S    0.358820  -0.017045  -0.503620   1.430849  -0.596499
   43  H  5  X   -0.011698  -0.020983   0.021486  -0.065080   0.037064
   44  H  5  Y   -0.002025   0.007392   0.015475  -0.065107  -0.012475
   45  H  5  Z    0.037252  -0.014712  -0.042462   0.067040  -0.013992
   46  H  6  S   -0.427752  -0.076565   0.320936   0.635380  -0.015147
   47  H  6  S   -0.358820  -0.017045  -0.503620  -1.430849  -0.596499
   48  H  6  X    0.011698  -0.020983   0.021486   0.065080   0.037064
   49  H  6  Y    0.002025   0.007392   0.015475   0.065107  -0.012475
   50  H  6  Z    0.037252   0.014712   0.042462   0.067040   0.013992

                     21         22         23         24         25
                    1.1660     1.1880     1.2419     1.2541     1.3381
                     A'         A'         A''        A'         A'  
    1  H  1  S    0.502384   0.212754  -0.000000  -0.290559  -0.320801
    2  H  1  S   -0.797147  -0.368115  -0.000000   0.358648  -1.123454
    3  H  1  X   -0.008176   0.029513  -0.000000   0.060285  -0.076430
    4  H  1  Y    0.101272   0.034602  -0.000000  -0.046546   0.196542
    5  H  1  Z    0.000000   0.000000   0.009582   0.000000   0.000000
    6  O  2  S    0.000292  -0.005267  -0.000000  -0.004616  -0.014568
    7  O  2  S   -0.712537  -0.418420  -0.000000   0.152676  -0.447336
    8  O  2  X   -0.087855   0.248192  -0.000000  -0.607683   0.444384
    9  O  2  Y   -0.089493   0.126049  -0.000000  -0.197671  -0.586292
   10  O  2  Z    0.000000   0.000000  -0.921833   0.000000   0.000000
   11  O  2  S    1.344752   0.549295  -0.000000  -0.482421   1.025155
   12  O  2  X    0.088645  -0.415392  -0.000000   0.691846  -1.113841
   13  O  2  Y    0.000736  -0.212394  -0.000000   0.317132   1.283738
   14  O  2  Z    0.000000   0.000000   1.157165   0.000000   0.000000
   15  O  2 XX   -0.261297  -0.202855  -0.000000   0.003321  -0.145252
   16  O  2 YY   -0.060746  -0.070103  -0.000000   0.003643  -0.090003
   17  O  2 ZZ   -0.258729  -0.139736  -0.000000   0.162789  -0.082242
   18  O  2 XY   -0.046955  -0.002656  -0.000000   0.064405  -0.016887
   19  O  2 XZ    0.000000   0.000000  -0.057685   0.000000   0.000000
   20  O  2 YZ    0.000000   0.000000   0.035789   0.000000   0.000000
   21  C  3  S   -0.090957   0.006013  -0.000000  -0.086270  -0.002435
   22  C  3  S   -0.018792  -1.531176  -0.000000  -1.129709  -0.192967
   23  C  3  X    0.136277  -0.395048  -0.000000  -0.029890   0.023838
   24  C  3  Y    0.227540   0.093435  -0.000000  -0.098760  -0.276563
   25  C  3  Z    0.000000   0.000000  -0.006884   0.000000   0.000000
   26  C  3  S    0.347549   3.650795  -0.000000   2.735321   0.803963
   27  C  3  X    0.087744   0.606017  -0.000000   0.542460  -0.408774
   28  C  3  Y   -0.209314  -0.026403  -0.000000  -0.090650   0.168036
   29  C  3  Z    0.000000   0.000000  -0.478209   0.000000   0.000000
   30  C  3 XX   -0.017632  -0.073625  -0.000000  -0.221076   0.138736
   31  C  3 YY    0.027232   0.050578  -0.000000  -0.158615  -0.193775
   32  C  3 ZZ   -0.190279  -0.078146  -0.000000   0.058769   0.100509
   33  C  3 XY   -0.025675  -0.011051  -0.000000  -0.050796  -0.088350
   34  C  3 XZ    0.000000   0.000000  -0.002849   0.000000   0.000000
   35  C  3 YZ    0.000000   0.000000   0.126339   0.000000   0.000000
   36  H  4  S   -0.183763   0.450445  -0.000000  -0.429646  -0.245686
   37  H  4  S   -0.351849  -1.339708  -0.000000  -0.470956   0.361825
   38  H  4  X   -0.008748   0.009284  -0.000000   0.015953   0.104130
   39  H  4  Y    0.023346  -0.098344  -0.000000   0.026870   0.067075
   40  H  4  Z    0.000000   0.000000  -0.068565   0.000000   0.000000
   41  H  5  S   -0.661789   0.194457  -0.152679  -0.126595  -0.001121
   42  H  5  S    0.435998  -0.981123  -0.016597  -0.751626  -0.162016
   43  H  5  X   -0.008002   0.021010   0.048769  -0.024866  -0.023751
   44  H  5  Y   -0.010238   0.056574  -0.039368  -0.039586  -0.050747
   45  H  5  Z    0.090840  -0.045750  -0.001533  -0.040965  -0.057107
   46  H  6  S   -0.661789   0.194457   0.152679  -0.126595  -0.001121
   47  H  6  S    0.435998  -0.981123   0.016597  -0.751626  -0.162016
   48  H  6  X   -0.008002   0.021010  -0.048769  -0.024866  -0.023751
   49  H  6  Y   -0.010238   0.056574   0.039368  -0.039586  -0.050747
   50  H  6  Z   -0.090840   0.045750  -0.001533   0.040965   0.057107

                     26         27         28         29         30
                    1.6276     1.6716     1.7962     1.8742     2.1177
                     A''        A'         A'         A''        A'  
    1  H  1  S   -0.000000  -0.158465  -0.429970  -0.000000  -0.265009
    2  H  1  S   -0.000000  -0.169241  -0.174785  -0.000000  -0.128502
    3  H  1  X   -0.000000  -0.173278  -0.042779  -0.000000   0.339687
    4  H  1  Y   -0.000000  -0.039557  -0.024238  -0.000000   0.169344
    5  H  1  Z    0.096640  -0.000000   0.000000   0.430007   0.000000
    6  O  2  S   -0.000000   0.057123  -0.091964  -0.000000   0.004760
    7  O  2  S   -0.000000   0.807784  -1.156349  -0.000000   0.044877
    8  O  2  X   -0.000000   0.248994  -0.224293  -0.000000  -0.023085
    9  O  2  Y   -0.000000  -0.097406  -0.123378  -0.000000  -0.200978
   10  O  2  Z   -0.102845  -0.000000   0.000000   0.054081   0.000000
   11  O  2  S   -0.000000  -2.513895   3.521527  -0.000000  -0.207646
   12  O  2  X   -0.000000  -1.148406   1.074624  -0.000000  -0.442788
   13  O  2  Y   -0.000000   0.397765   0.661226  -0.000000   0.596063
   14  O  2  Z    0.285101  -0.000000   0.000000  -0.317975   0.000000
   15  O  2 XX   -0.000000   0.390887  -0.463812  -0.000000   0.060338
   16  O  2 YY   -0.000000   0.081154  -0.589030  -0.000000   0.263704
   17  O  2 ZZ   -0.000000   0.250834   0.068337  -0.000000  -0.277470
   18  O  2 XY   -0.000000  -0.338609  -0.180939  -0.000000   0.437229
   19  O  2 XZ   -0.380190  -0.000000   0.000000  -0.097929   0.000000
   20  O  2 YZ   -0.042998  -0.000000   0.000000   0.726959   0.000000
   21  C  3  S   -0.000000  -0.058545   0.052108  -0.000000  -0.006284
   22  C  3  S   -0.000000  -0.823175   0.554690  -0.000000  -0.010966
   23  C  3  X   -0.000000  -0.050589   0.184724  -0.000000  -0.035765
   24  C  3  Y   -0.000000   0.051208  -0.003636  -0.000000  -0.016691
   25  C  3  Z    0.150605  -0.000000   0.000000  -0.016257   0.000000
   26  C  3  S   -0.000000   3.196587  -2.863579  -0.000000   0.364519
   27  C  3  X   -0.000000  -0.755632   0.782116  -0.000000  -0.239099
   28  C  3  Y   -0.000000  -0.258774  -0.057862  -0.000000  -0.591587
   29  C  3  Z   -0.377686  -0.000000   0.000000   0.359260   0.000000
   30  C  3 XX   -0.000000   0.116891  -0.173407  -0.000000   0.107892
   31  C  3 YY   -0.000000   0.083896   0.208115  -0.000000   0.209613
   32  C  3 ZZ   -0.000000  -0.257572  -0.010284  -0.000000  -0.322269
   33  C  3 XY   -0.000000   0.362241   0.306980  -0.000000   0.202926
   34  C  3 XZ    0.516302  -0.000000   0.000000   0.000378   0.000000
   35  C  3 YZ   -0.341166  -0.000000   0.000000   0.150150   0.000000
   36  H  4  S   -0.000000  -0.250223   0.229006  -0.000000  -0.248463
   37  H  4  S   -0.000000  -0.470190   0.320381  -0.000000  -0.180141
   38  H  4  X   -0.000000  -0.101930  -0.141337  -0.000000  -0.356094
   39  H  4  Y   -0.000000  -0.054037  -0.062166  -0.000000  -0.090183
   40  H  4  Z    0.200702  -0.000000   0.000000   0.014787   0.000000
   41  H  5  S    0.041863  -0.293067   0.233072   0.113681   0.123175
   42  H  5  S   -0.221011  -0.292699   0.281213   0.149947   0.074456
   43  H  5  X   -0.179363   0.053302   0.054158   0.051070   0.230670
   44  H  5  Y    0.132496   0.082065   0.079333   0.008565   0.002815
   45  H  5  Z   -0.026051   0.085238   0.072155   0.007781   0.055620
   46  H  6  S   -0.041863  -0.293067   0.233072  -0.113681   0.123175
   47  H  6  S    0.221011  -0.292699   0.281213  -0.149947   0.074456
   48  H  6  X    0.179363   0.053302   0.054158  -0.051070   0.230670
   49  H  6  Y   -0.132496   0.082065   0.079333  -0.008565   0.002815
   50  H  6  Z   -0.026051  -0.085238  -0.072155   0.007781  -0.055620

                     31         32         33         34         35
                    2.2502     2.3373     2.3445     2.3870     2.3893
                     A''        A'         A''        A'         A'' 
    1  H  1  S    0.000000   0.028601   0.000000   0.181045   0.000000
    2  H  1  S    0.000000  -0.040619   0.000000  -0.084568   0.000000
    3  H  1  X    0.000000  -0.099526   0.000000   0.138210   0.000000
    4  H  1  Y    0.000000  -0.032652   0.000000   0.050400   0.000000
    5  H  1  Z    0.071058   0.000000   0.003530  -0.000000  -0.124542
    6  O  2  S    0.000000   0.031402   0.000000   0.016339   0.000000
    7  O  2  S    0.000000  -0.359527   0.000000   0.033300   0.000000
    8  O  2  X    0.000000  -0.441389   0.000000  -0.031300   0.000000
    9  O  2  Y    0.000000   0.000471   0.000000   0.046582   0.000000
   10  O  2  Z   -0.163014   0.000000   0.001452  -0.000000   0.048470
   11  O  2  S    0.000000   0.049350   0.000000  -0.287764   0.000000
   12  O  2  X    0.000000   0.328394   0.000000  -0.123414   0.000000
   13  O  2  Y    0.000000  -0.031794   0.000000  -0.277528   0.000000
   14  O  2  Z    0.285798   0.000000  -0.006904  -0.000000  -0.099244
   15  O  2 XX    0.000000   0.227292   0.000000   0.083256   0.000000
   16  O  2 YY    0.000000  -0.123738   0.000000  -0.065952   0.000000
   17  O  2 ZZ    0.000000  -0.176837   0.000000   0.040947   0.000000
   18  O  2 XY    0.000000  -0.079426   0.000000   0.012741   0.000000
   19  O  2 XZ    0.703240   0.000000   0.012047  -0.000000   0.125048
   20  O  2 YZ    0.201787   0.000000   0.002290  -0.000000   0.019991
   21  C  3  S    0.000000   0.000108   0.000000  -0.004889   0.000000
   22  C  3  S    0.000000  -0.118093   0.000000   0.003087   0.000000
   23  C  3  X    0.000000   0.181866   0.000000  -0.025664   0.000000
   24  C  3  Y    0.000000   0.021963   0.000000  -0.106386   0.000000
   25  C  3  Z   -0.043534   0.000000  -0.008143  -0.000000  -0.134718
   26  C  3  S    0.000000  -0.146440   0.000000   0.185152   0.000000
   27  C  3  X    0.000000  -0.565791   0.000000  -0.167312   0.000000
   28  C  3  Y    0.000000  -0.006708   0.000000   0.652345   0.000000
   29  C  3  Z   -0.380071   0.000000   0.030529  -0.000000   0.599996
   30  C  3 XX    0.000000   0.716452   0.000000   0.108213   0.000000
   31  C  3 YY    0.000000  -0.308296   0.000000  -0.535383   0.000000
   32  C  3 ZZ    0.000000  -0.375315   0.000000   0.411403   0.000000
   33  C  3 XY    0.000000  -0.067145   0.000000   0.329933   0.000000
   34  C  3 XZ   -0.032238   0.000000   0.013991  -0.000000   0.311338
   35  C  3 YZ   -0.300226   0.000000   0.018579  -0.000000   0.480536
   36  H  4  S    0.000000   0.174595   0.000000   0.597076   0.000000
   37  H  4  S    0.000000   0.028595   0.000000  -0.045502   0.000000
   38  H  4  X    0.000000   0.304704   0.000000  -0.067987   0.000000
   39  H  4  Y    0.000000   0.023234   0.000000  -0.394775   0.000000
   40  H  4  Z    0.027468   0.000000   0.566001  -0.000000  -0.325638
   41  H  5  S   -0.288896   0.241937   0.018034  -0.271467   0.438059
   42  H  5  S    0.021595  -0.001945   0.004453   0.011281  -0.005599
   43  H  5  X   -0.399624   0.225004  -0.014441   0.096135  -0.214747
   44  H  5  Y    0.034068   0.053917  -0.502940  -0.311561   0.077261
   45  H  5  Z   -0.013450  -0.035222  -0.307143   0.049597  -0.383293
   46  H  6  S    0.288896   0.241937  -0.018034  -0.271467  -0.438059
   47  H  6  S   -0.021595  -0.001945  -0.004453   0.011281   0.005599
   48  H  6  X    0.399624   0.225004   0.014441   0.096135   0.214747
   49  H  6  Y   -0.034068   0.053917   0.502940  -0.311561  -0.077261
   50  H  6  Z   -0.013450   0.035222  -0.307143  -0.049597  -0.383293

                     36         37         38         39         40
                    2.6789     2.7121     2.8755     2.9192     3.0380
                     A'         A'         A''        A'         A'' 
    1  H  1  S   -0.717724  -0.596165  -0.000000  -0.077106  -0.000000
    2  H  1  S    0.033706   0.068711  -0.000000   0.061272  -0.000000
    3  H  1  X    0.493155  -0.300037  -0.000000  -0.212240  -0.000000
    4  H  1  Y   -0.048944  -0.415616  -0.000000   0.049774  -0.000000
    5  H  1  Z    0.000000   0.000000   0.529478   0.000000   0.901169
    6  O  2  S   -0.033070  -0.058291  -0.000000  -0.053073  -0.000000
    7  O  2  S   -0.349373  -0.657403  -0.000000  -0.588289  -0.000000
    8  O  2  X    0.021887   0.022838  -0.000000  -0.170079  -0.000000
    9  O  2  Y   -0.142975  -0.137830  -0.000000   0.057332  -0.000000
   10  O  2  Z    0.000000   0.000000   0.055821   0.000000  -0.029720
   11  O  2  S    0.955503   1.946295  -0.000000   2.039807  -0.000000
   12  O  2  X   -0.135453   0.704154  -0.000000   1.074606  -0.000000
   13  O  2  Y    0.591737   0.324090  -0.000000   0.161714  -0.000000
   14  O  2  Z    0.000000   0.000000  -0.517164   0.000000  -0.123132
   15  O  2 XX   -0.021608  -0.028240  -0.000000   0.405762  -0.000000
   16  O  2 YY    0.303507   0.244383  -0.000000  -0.241735  -0.000000
   17  O  2 ZZ   -0.578842  -0.684890  -0.000000  -0.507744  -0.000000
   18  O  2 XY   -0.336016  -0.299178  -0.000000   0.276174  -0.000000
   19  O  2 XZ    0.000000   0.000000  -0.409118   0.000000   0.527244
   20  O  2 YZ    0.000000   0.000000  -0.363565   0.000000  -0.658136
   21  C  3  S    0.009292   0.032667  -0.000000   0.028739  -0.000000
   22  C  3  S    0.147795  -0.037753  -0.000000  -0.208183  -0.000000
   23  C  3  X    0.006065   0.290852  -0.000000   0.575122  -0.000000
   24  C  3  Y   -0.012266   0.002759  -0.000000  -0.064960  -0.000000
   25  C  3  Z    0.000000   0.000000   0.137063   0.000000  -0.190497
   26  C  3  S   -0.455272  -1.186319  -0.000000  -1.076165  -0.000000
   27  C  3  X    0.134205   0.524419  -0.000000   0.973896  -0.000000
   28  C  3  Y   -0.494932   0.422500  -0.000000  -0.187744  -0.000000
   29  C  3  Z    0.000000   0.000000   0.825823   0.000000  -0.267282
   30  C  3 XX   -0.106107  -0.170759  -0.000000   0.042846  -0.000000
   31  C  3 YY    0.075096   0.234390  -0.000000  -0.164877  -0.000000
   32  C  3 ZZ   -0.005716  -0.016678  -0.000000   0.101202  -0.000000
   33  C  3 XY    0.391123  -0.265263  -0.000000   0.083939  -0.000000
   34  C  3 XZ    0.000000   0.000000  -0.427752   0.000000   0.260940
   35  C  3 YZ    0.000000   0.000000  -0.239042   0.000000   0.033163
   36  H  4  S    0.056932   0.017695  -0.000000   0.073335  -0.000000
   37  H  4  S   -0.285108   0.355370  -0.000000  -0.191130  -0.000000
   38  H  4  X    0.502565  -0.362097  -0.000000  -0.375656  -0.000000
   39  H  4  Y    0.070729  -0.128788  -0.000000  -0.235225  -0.000000
   40  H  4  Z    0.000000   0.000000  -0.567993   0.000000   0.129372
   41  H  5  S    0.013987   0.074989  -0.005887   0.037465   0.000861
   42  H  5  S    0.220694  -0.052938   0.444066   0.050096  -0.238603
   43  H  5  X   -0.212087   0.070937  -0.287373  -0.524793   0.261585
   44  H  5  Y    0.082063  -0.309740  -0.245133   0.261724   0.111924
   45  H  5  Z    0.034088  -0.135103  -0.132956  -0.046363  -0.058138
   46  H  6  S    0.013987   0.074989   0.005887   0.037465  -0.000861
   47  H  6  S    0.220694  -0.052938  -0.444066   0.050096   0.238603
   48  H  6  X   -0.212087   0.070937   0.287373  -0.524793  -0.261585
   49  H  6  Y    0.082063  -0.309740   0.245133   0.261724  -0.111924
   50  H  6  Z   -0.034088   0.135103  -0.132956   0.046363  -0.058138

                     41         42         43         44         45
                    3.0565     3.1666     3.2132     3.3521     3.5575
                     A'         A'         A''        A'         A'  
    1  H  1  S   -0.127639   0.033331  -0.000000   0.197405  -0.050264
    2  H  1  S    0.038221  -0.080538  -0.000000   0.157750   0.040637
    3  H  1  X   -0.452249  -0.048679  -0.000000   0.697907  -0.018758
    4  H  1  Y   -0.308173   0.359553  -0.000000  -0.019253   0.072000
    5  H  1  Z   -0.000000  -0.000000  -0.164979  -0.000000  -0.000000
    6  O  2  S   -0.010670  -0.056062  -0.000000  -0.033594  -0.005683
    7  O  2  S   -0.125358  -0.320204  -0.000000  -0.089292   0.071104
    8  O  2  X    0.064858  -0.026805  -0.000000   0.070498   0.122539
    9  O  2  Y   -0.102807   0.216619  -0.000000  -0.138759   0.058676
   10  O  2  Z   -0.000000  -0.000000   0.026282  -0.000000  -0.000000
   11  O  2  S    0.274833   1.571377  -0.000000   0.388548   0.038406
   12  O  2  X    0.304140   1.015303  -0.000000   0.154992   0.088810
   13  O  2  Y    0.316420  -0.055545  -0.000000  -0.322324  -0.006807
   14  O  2  Z   -0.000000  -0.000000   0.109005  -0.000000  -0.000000
   15  O  2 XX   -0.033878   0.941652  -0.000000   0.403525   0.227694
   16  O  2 YY    0.289013  -0.545185  -0.000000  -0.595901  -0.008260
   17  O  2 ZZ   -0.280740  -0.469055  -0.000000  -0.165015  -0.068573
   18  O  2 XY    0.375337   0.073140  -0.000000  -0.539324   0.004956
   19  O  2 XZ   -0.000000  -0.000000   0.261821  -0.000000  -0.000000
   20  O  2 YZ   -0.000000  -0.000000   0.222776  -0.000000  -0.000000
   21  C  3  S    0.021551   0.060885  -0.000000   0.006244  -0.105546
   22  C  3  S   -0.180755  -0.473059  -0.000000   0.012176   0.747779
   23  C  3  X    0.067983   0.571523  -0.000000   0.120513   0.566126
   24  C  3  Y   -0.215541   0.094784  -0.000000   0.285324   0.033210
   25  C  3  Z   -0.000000  -0.000000  -0.004277  -0.000000  -0.000000
   26  C  3  S   -0.394994  -1.323290  -0.000000  -0.326137   0.931966
   27  C  3  X   -0.127443   0.309384  -0.000000   0.191993   0.269952
   28  C  3  Y   -0.456017   0.208001  -0.000000   0.058098   0.008075
   29  C  3  Z   -0.000000  -0.000000   0.132950  -0.000000  -0.000000
   30  C  3 XX   -0.308011  -0.802558  -0.000000  -0.171851  -0.706082
   31  C  3 YY   -0.138237   0.539577  -0.000000  -0.453685   0.245354
   32  C  3 ZZ    0.539391   0.269884  -0.000000   0.470016   0.344895
   33  C  3 XY   -0.074177   0.094821  -0.000000  -0.579911  -0.003970
   34  C  3 XZ   -0.000000  -0.000000   0.661806  -0.000000  -0.000000
   35  C  3 YZ   -0.000000  -0.000000  -0.635783  -0.000000  -0.000000
   36  H  4  S   -0.015908   0.064098  -0.000000   0.150938  -0.365771
   37  H  4  S   -0.217595   0.300809  -0.000000   0.066909  -0.344688
   38  H  4  X    0.194941   0.254008  -0.000000  -0.451256   0.271762
   39  H  4  Y   -0.054943   0.289705  -0.000000   0.115358  -0.667666
   40  H  4  Z   -0.000000  -0.000000  -0.631752  -0.000000  -0.000000
   41  H  5  S    0.017740   0.021410  -0.022053  -0.027852  -0.401409
   42  H  5  S    0.258327   0.130806   0.091025  -0.007138  -0.358020
   43  H  5  X    0.247502   0.127336   0.360777   0.165623   0.311613
   44  H  5  Y    0.313094  -0.244061  -0.337492   0.270838   0.370318
   45  H  5  Z    0.461774   0.033923  -0.043069   0.142094  -0.612315
   46  H  6  S    0.017740   0.021410   0.022053  -0.027852  -0.401409
   47  H  6  S    0.258327   0.130806  -0.091025  -0.007138  -0.358020
   48  H  6  X    0.247502   0.127336  -0.360777   0.165623   0.311613
   49  H  6  Y    0.313094  -0.244061   0.337492   0.270838   0.370318
   50  H  6  Z   -0.461774  -0.033923  -0.043069  -0.142094   0.612315

                     46         47         48         49         50
                    3.7706     3.8099     3.9360     4.2813     4.8280
                     A'         A''        A'         A'         A'  
    1  H  1  S   -0.795243  -0.000000  -1.088554   0.985926  -0.197154
    2  H  1  S   -0.399295  -0.000000  -0.657920  -0.134494  -0.038805
    3  H  1  X   -0.152936  -0.000000  -0.464746   0.207368  -0.126306
    4  H  1  Y    0.811882  -0.000000   0.820717  -0.843870   0.152607
    5  H  1  Z   -0.000000   0.098270   0.000000  -0.000000  -0.000000
    6  O  2  S   -0.126257  -0.000000  -0.203106  -0.447473   0.070294
    7  O  2  S    0.209114  -0.000000   0.167771  -0.151637  -0.038333
    8  O  2  X   -0.172207  -0.000000  -0.227108   0.007853   0.075950
    9  O  2  Y    0.346828  -0.000000   0.369135  -0.449518   0.091956
   10  O  2  Z   -0.000000   0.013815   0.000000  -0.000000  -0.000000
   11  O  2  S    1.284869  -0.000000   2.184740   3.964403  -0.678700
   12  O  2  X   -0.272323  -0.000000  -0.302794   1.050658   0.035136
   13  O  2  Y    0.490485  -0.000000   0.776510  -0.258731   0.106070
   14  O  2  Z   -0.000000  -0.070679   0.000000  -0.000000  -0.000000
   15  O  2 XX   -0.451516  -0.000000  -0.921623  -1.260710   0.546093
   16  O  2 YY    0.099442  -0.000000   0.243243  -2.149785   0.333417
   17  O  2 ZZ   -0.515110  -0.000000  -0.915833  -1.408242   0.144522
   18  O  2 XY   -0.556605  -0.000000  -0.425549   0.470186  -0.037756
   19  O  2 XZ   -0.000000   0.127066   0.000000  -0.000000  -0.000000
   20  O  2 YZ   -0.000000  -0.116995   0.000000  -0.000000  -0.000000
   21  C  3  S    0.002076  -0.000000   0.004213  -0.076642  -0.468600
   22  C  3  S    0.092210  -0.000000   0.057481   0.553671   2.820913
   23  C  3  X   -0.083763  -0.000000  -0.169596   0.072077  -0.047396
   24  C  3  Y   -0.704684  -0.000000   0.548967  -0.105115   0.022301
   25  C  3  Z   -0.000000   0.922593   0.000000  -0.000000  -0.000000
   26  C  3  S   -0.172719  -0.000000  -0.367038  -1.222771   2.014186
   27  C  3  X    0.025971  -0.000000   0.027225   0.682338   0.028653
   28  C  3  Y   -0.434164  -0.000000   0.345742   0.143272  -0.025483
   29  C  3  Z   -0.000000   0.557688   0.000000  -0.000000  -0.000000
   30  C  3 XX    0.109614  -0.000000   0.237759  -0.253425  -1.995178
   31  C  3 YY    0.503425  -0.000000  -0.647226  -0.202584  -2.055692
   32  C  3 ZZ   -0.555758  -0.000000   0.516270  -0.461496  -2.023240
   33  C  3 XY   -0.695815  -0.000000   0.457887   0.065922  -0.009147
   34  C  3 XZ   -0.000000   0.760442   0.000000  -0.000000  -0.000000
   35  C  3 YZ   -0.000000   0.943001   0.000000  -0.000000  -0.000000
   36  H  4  S   -0.600209  -0.000000   0.596978   0.094374   0.272961
   37  H  4  S   -0.360981  -0.000000   0.394316   0.042781  -0.393588
   38  H  4  X    0.205595  -0.000000  -0.307085   0.083435  -0.115305
   39  H  4  Y   -0.851848  -0.000000   0.690939  -0.024772   0.296623
   40  H  4  Z   -0.000000  -0.018802   0.000000  -0.000000  -0.000000
   41  H  5  S    0.315676   0.707492  -0.218046   0.170393   0.257027
   42  H  5  S    0.228569   0.432936  -0.090165  -0.003933  -0.382338
   43  H  5  X   -0.114166  -0.329259   0.134271  -0.079519  -0.093660
   44  H  5  Y   -0.138642  -0.469498   0.170800  -0.083122  -0.135537
   45  H  5  Z    0.399406   0.802393  -0.242838   0.023049   0.250494
   46  H  6  S    0.315676  -0.707492  -0.218046   0.170393   0.257027
   47  H  6  S    0.228569  -0.432936  -0.090165  -0.003933  -0.382338
   48  H  6  X   -0.114166   0.329259   0.134271  -0.079519  -0.093660
   49  H  6  Y   -0.138642   0.469498   0.170800  -0.083122  -0.135537
   50  H  6  Z   -0.399406   0.802393   0.242838  -0.023049  -0.250494
 ...... END OF RHF CALCULATION ......
 STEP CPU TIME =     0.05 TOTAL CPU TIME =        0.1 (    0.0 MIN)
 TOTAL WALL CLOCK TIME=        0.1 SECONDS, CPU UTILIZATION IS  85.71%

     ----------------------------------------------------------------
     PROPERTY VALUES FOR THE RHF   SELF-CONSISTENT FIELD WAVEFUNCTION
     ----------------------------------------------------------------

          -----------------
          ENERGY COMPONENTS
          -----------------

         WAVEFUNCTION NORMALIZATION =       1.0000000000

                ONE ELECTRON ENERGY =    -237.8042450795
                TWO ELECTRON ENERGY =      81.9467475404
           NUCLEAR REPULSION ENERGY =      40.8107874047
                                      ------------------
                       TOTAL ENERGY =    -115.0467101344

 ELECTRON-ELECTRON POTENTIAL ENERGY =      81.9467475404
  NUCLEUS-ELECTRON POTENTIAL ENERGY =    -352.6674507731
   NUCLEUS-NUCLEUS POTENTIAL ENERGY =      40.8107874047
                                      ------------------
             TOTAL POTENTIAL ENERGY =    -229.9099158280
               TOTAL KINETIC ENERGY =     114.8632056936
                 VIRIAL RATIO (V/T) =       2.0015975911

          ---------------------------------------
          MULLIKEN AND LOWDIN POPULATION ANALYSES
          ---------------------------------------

     ATOMIC MULLIKEN POPULATION IN EACH MOLECULAR ORBITAL

                      1          2          3          4          5

                  2.000000   2.000000   2.000000   2.000000   2.000000

    1            -0.000127   0.000019   0.164526   0.088146   0.292294
    2             2.000095  -0.000039   1.606018   0.349381   0.987537
    3             0.000037   1.998582   0.205934   1.039337   0.485987
    4             0.000000   0.000486   0.009632   0.190338   0.012776
    5            -0.000003   0.000476   0.006945   0.166399   0.110703
    6            -0.000003   0.000476   0.006945   0.166399   0.110703

                      6          7          8          9

                  2.000000   2.000000   2.000000   2.000000

    1             0.003340   0.018297   0.090141   0.007913
    2             0.640186   0.864665   0.876498   1.309480
    3             0.792062   0.749538   0.486837   0.254827
    4             0.001367   0.364708   0.293857   0.000713
    5             0.281522   0.001396   0.126334   0.213534
    6             0.281522   0.001396   0.126334   0.213534

               ----- POPULATIONS IN EACH AO -----
                             MULLIKEN      LOWDIN
              1  H  1  S      0.50011     0.45695
              2  H  1  S      0.12080     0.21277
              3  H  1  X      0.00987     0.02790
              4  H  1  Y      0.02253     0.05149
              5  H  1  Z      0.01125     0.03543
              6  O  2  S      1.99537     1.97700
              7  O  2  S      0.89090     0.68978
              8  O  2  X      0.82694     0.76635
              9  O  2  Y      0.92190     0.85670
             10  O  2  Z      1.15179     1.12324
             11  O  2  S      0.91088     0.44606
             12  O  2  X      0.50841     0.55126
             13  O  2  Y      0.58920     0.64058
             14  O  2  Z      0.79415     0.78235
             15  O  2 XX      0.02370     0.18488
             16  O  2 YY      0.00802     0.17621
             17  O  2 ZZ      0.00351     0.16308
             18  O  2 XY      0.00533     0.01303
             19  O  2 XZ      0.00249     0.00660
             20  O  2 YZ      0.00123     0.00053
             21  C  3  S      1.99657     1.97985
             22  C  3  S      0.64625     0.33917
             23  C  3  X      0.54954     0.49626
             24  C  3  Y      0.72046     0.62340
             25  C  3  Z      0.70607     0.60929
             26  C  3  S      0.53845     0.32139
             27  C  3  X      0.11617     0.26479
             28  C  3  Y      0.35561     0.47253
             29  C  3  Z      0.31451     0.46659
             30  C  3 XX      0.02092     0.16457
             31  C  3 YY      0.00565     0.14686
             32  C  3 ZZ      0.00358     0.14485
             33  C  3 XY      0.01305     0.02618
             34  C  3 XZ      0.01746     0.03671
             35  C  3 YZ      0.00885     0.01474
             36  H  4  S      0.54227     0.50878
             37  H  4  S      0.31922     0.35633
             38  H  4  X      0.00175     0.00572
             39  H  4  Y      0.00856     0.01965
             40  H  4  Z      0.00208     0.00658
             41  H  5  S      0.54523     0.51136
             42  H  5  S      0.34964     0.37431
             43  H  5  X      0.00209     0.00625
             44  H  5  Y      0.00346     0.00927
             45  H  5  Z      0.00690     0.01560
             46  H  6  S      0.54523     0.51136
             47  H  6  S      0.34964     0.37431
             48  H  6  X      0.00209     0.00625
             49  H  6  Y      0.00346     0.00927
             50  H  6  Z      0.00690     0.01560

          ----- MULLIKEN ATOMIC OVERLAP POPULATIONS -----
          (OFF-DIAGONAL ELEMENTS NEED TO BE MULTIPLIED BY 2)

             1           2           3           4           5

    1    0.3816413
    2    0.3165037   8.2144937
    3   -0.0302210   0.2179901   4.6088111
    4    0.0057214  -0.0375393   0.4125695   0.5660056
    5   -0.0045482  -0.0388136   0.4019950  -0.0364397   0.6323813
    6   -0.0045482  -0.0388136   0.4019950  -0.0364397  -0.0472685

             6

    6    0.6323813

          TOTAL MULLIKEN AND LOWDIN ATOMIC POPULATIONS
       ATOM         MULL.POP.    CHARGE          LOW.POP.     CHARGE
    1 H             0.664549    0.335451         0.784552    0.215448
    2 O             8.633821   -0.633821         8.377651   -0.377651
    3 C             6.013140   -0.013140         6.107157   -0.107157
    4 H             0.873878    0.126122         0.897053    0.102947
    5 H             0.907306    0.092694         0.916794    0.083206
    6 H             0.907306    0.092694         0.916794    0.083206

          -------------------------------
          BOND ORDER AND VALENCE ANALYSIS     BOND ORDER THRESHOLD=0.050
          -------------------------------

                   BOND                       BOND                       BOND
  ATOM PAIR DIST  ORDER      ATOM PAIR DIST  ORDER      ATOM PAIR DIST  ORDER
    1   2  0.942  0.879        2   3  1.399  0.874        3   4  1.082  0.976
    3   5  1.088  0.970        3   6  1.088  0.970

                       TOTAL       BONDED        FREE
      ATOM            VALENCE     VALENCE     VALENCE
    1 H                 0.881       0.881       0.000
    2 O                 1.741       1.741       0.000
    3 C                 3.789       3.789       0.000
    4 H                 0.949       0.949      -0.000
    5 H                 0.946       0.946       0.000
    6 H                 0.946       0.946       0.000

          ---------------------
          ELECTROSTATIC MOMENTS
          ---------------------

 POINT   1           X           Y           Z (BOHR)    CHARGE
                 0.000000   -0.000000    0.000000        0.00 (A.U.)
         DX          DY          DZ         /D/  (DEBYE)
     0.943547    1.572274   -0.000000    1.833665
 ...... END OF PROPERTY EVALUATION ......
 STEP CPU TIME =     0.01 TOTAL CPU TIME =        0.1 (    0.0 MIN)
 TOTAL WALL CLOCK TIME=        0.1 SECONDS, CPU UTILIZATION IS  92.86%

          -------------------------
          BOYS ORBITAL LOCALIZATION
          -------------------------
          S.F.BOYS, IN "QUANTUM THEORY OF ATOMS, MOLECULES, AND SOLIDS"
          P.O.LOWDIN, ED. ACADEMIC PRESS, NY, 1966 PP253-266.

          THIS LOCALIZATION REQUIRES      6831 WORDS OF MEMORY.
          THIS LOCALIZATION HAS    9 ORBITALS, OF WHICH   2 ARE FROZEN.

          THE INITIAL LOCALIZATION SUM IS     20.551784 DEBYE**2
          BOYS ITERATION  10 ORBITAL CHANGE=    2.9100849785E-04
          BOYS ITERATION  20 ORBITAL CHANGE=    2.3515299828E-07
          LOCALIZATION CONVERGED IN  27 ITERATIONS
            THE FINAL LOCALIZATION SUM IS    152.872757 DEBYE**2

          THE BOYS LOCALIZED ORBITALS ARE

                      1          2          3          4          5

    1  H  1  S   -0.000041   0.000165   0.318144  -0.008403   0.026411
    2  H  1  S    0.000461   0.000392   0.129038  -0.010609   0.043897
    3  H  1  X    0.000178   0.000237   0.013900  -0.001292   0.004618
    4  H  1  Y   -0.000406  -0.000078  -0.030722  -0.000146   0.007219
    5  H  1  Z    0.000000   0.000000   0.000000  -0.001207   0.014964
    6  O  2  S   -0.994659  -0.000156  -0.095771   0.006252   0.125880
    7  O  2  S   -0.021278   0.000166   0.211171  -0.016092  -0.282490
    8  O  2  X   -0.000631   0.000129  -0.158136  -0.032411   0.148462
    9  O  2  Y   -0.001291  -0.000006   0.418300  -0.014666   0.252117
   10  O  2  Z    0.000000   0.000000   0.000000  -0.033881   0.453158
   11  O  2  S   -0.003925   0.000995   0.124618  -0.027069  -0.358615
   12  O  2  X    0.000535  -0.000263  -0.063140  -0.037744   0.110010
   13  O  2  Y    0.000267  -0.000285   0.251796  -0.026496   0.185121
   14  O  2  Z    0.000000   0.000000   0.000000  -0.058502   0.351159
   15  O  2 XX    0.004171  -0.000769  -0.009033   0.002061  -0.000489
   16  O  2 YY    0.003742  -0.000131   0.030537  -0.002013   0.011388
   17  O  2 ZZ    0.003867   0.000090  -0.004958   0.000218  -0.006733
   18  O  2 XY    0.000110  -0.000009  -0.000802   0.003116   0.010835
   19  O  2 XZ    0.000000   0.000000   0.000000   0.005081   0.011214
   20  O  2 YZ    0.000000   0.000000   0.000000  -0.000196   0.015380
   21  C  3  S    0.000016   0.995779   0.009199  -0.099000  -0.008065
   22  C  3  S   -0.000277   0.027352  -0.023767   0.189859   0.020217
   23  C  3  X    0.000361  -0.000762   0.040959   0.115620  -0.033079
   24  C  3  Y    0.000044   0.000032   0.008649   0.183714   0.006337
   25  C  3  Z    0.000000   0.000000   0.000000   0.312792   0.021272
   26  C  3  S   -0.000264  -0.011966  -0.042247   0.184418   0.038432
   27  C  3  X   -0.000026  -0.000565   0.031311   0.039779  -0.022591
   28  C  3  Y   -0.000270   0.000028   0.002023   0.086786   0.011651
   29  C  3  Z    0.000000   0.000000   0.000000   0.129970   0.013522
   30  C  3 XX   -0.000013  -0.001484   0.001248  -0.011326  -0.002363
   31  C  3 YY    0.000040  -0.001650   0.001685  -0.004017   0.001076
   32  C  3 ZZ    0.000003  -0.001681  -0.000849   0.012846  -0.000620
   33  C  3 XY   -0.000002   0.000002  -0.015651   0.007891  -0.010124
   34  C  3 XZ    0.000000   0.000000  -0.000000   0.015725  -0.018694
   35  C  3 YZ    0.000000   0.000000  -0.000000   0.018554  -0.002308
   36  H  4  S    0.000008   0.000039   0.020758  -0.019327   0.013523
   37  H  4  S   -0.000019   0.002461   0.047874  -0.056570   0.025888
   38  H  4  X   -0.000054   0.000060   0.000217   0.000869  -0.000356
   39  H  4  Y    0.000023  -0.000064   0.000419   0.003382   0.000239
   40  H  4  Z    0.000000   0.000000  -0.000000   0.005361  -0.000284
   41  H  5  S    0.000077   0.000024  -0.007350  -0.022611   0.011764
   42  H  5  S    0.000133   0.002441  -0.015354  -0.073607   0.017776
   43  H  5  X   -0.000051   0.000053   0.000783   0.000885   0.000263
   44  H  5  Y   -0.000001   0.000039  -0.000405   0.002688  -0.000287
   45  H  5  Z    0.000036  -0.000077  -0.000237   0.005373  -0.000710
   46  H  6  S    0.000077   0.000024  -0.007350   0.330800  -0.026786
   47  H  6  S    0.000133   0.002441  -0.015354   0.259632  -0.073794
   48  H  6  X   -0.000051   0.000053   0.000783  -0.006070  -0.001470
   49  H  6  Y   -0.000001   0.000039  -0.000405  -0.007890  -0.000124
   50  H  6  Z   -0.000036   0.000077   0.000237  -0.014905   0.000522

                      6          7          8          9

    1  H  1  S   -0.008403   0.028881   0.019958  -0.026411
    2  H  1  S   -0.010609   0.046514   0.042625  -0.043897
    3  H  1  X   -0.001292  -0.012354  -0.001977  -0.004618
    4  H  1  Y   -0.000146  -0.001676   0.001545  -0.007219
    5  H  1  Z    0.001207  -0.000000   0.000000   0.014964
    6  O  2  S    0.006252   0.092294   0.011471  -0.125880
    7  O  2  S   -0.016092  -0.206008  -0.021982   0.282490
    8  O  2  X   -0.032411  -0.441790  -0.018719  -0.148462
    9  O  2  Y   -0.014666  -0.051319   0.016271  -0.252117
   10  O  2  Z    0.033881  -0.000000   0.000000   0.453158
   11  O  2  S   -0.027069  -0.149575  -0.079108   0.358615
   12  O  2  X   -0.037744  -0.284474  -0.021824  -0.110010
   13  O  2  Y   -0.026496  -0.049060   0.039076  -0.185121
   14  O  2  Z    0.058502  -0.000000   0.000000   0.351159
   15  O  2 XX    0.002061  -0.032006   0.006731   0.000489
   16  O  2 YY   -0.002013   0.005032   0.005708  -0.011388
   17  O  2 ZZ    0.000218   0.005384  -0.000057   0.006733
   18  O  2 XY    0.003116  -0.018618  -0.009575  -0.010835
   19  O  2 XZ   -0.005081  -0.000000   0.000000   0.011214
   20  O  2 YZ    0.000196  -0.000000   0.000000   0.015380
   21  C  3  S   -0.099000   0.085722  -0.099644   0.008065
   22  C  3  S    0.189859  -0.167307   0.197222  -0.020217
   23  C  3  X    0.115620   0.311105   0.121703   0.033079
   24  C  3  Y    0.183714   0.002734  -0.365231  -0.006337
   25  C  3  Z   -0.312792  -0.000000   0.000000   0.021272
   26  C  3  S    0.184418  -0.054099   0.176692  -0.038432
   27  C  3  X    0.039779   0.075609   0.060796   0.022591
   28  C  3  Y    0.086786  -0.023116  -0.169899  -0.011651
   29  C  3  Z   -0.129970  -0.000000   0.000000   0.013522
   30  C  3 XX   -0.011326  -0.042011  -0.011384   0.002363
   31  C  3 YY   -0.004017   0.017836   0.022644  -0.001076
   32  C  3 ZZ    0.012846   0.018768  -0.013089   0.000620
   33  C  3 XY    0.007891  -0.000815  -0.017030   0.010124
   34  C  3 XZ   -0.015725   0.000000   0.000000  -0.018694
   35  C  3 YZ   -0.018554  -0.000000   0.000000  -0.002308
   36  H  4  S   -0.019327   0.007719   0.329622  -0.013523
   37  H  4  S   -0.056570   0.017764   0.234423  -0.025888
   38  H  4  X    0.000869   0.003768  -0.005678   0.000356
   39  H  4  Y    0.003382  -0.001946   0.016851  -0.000239
   40  H  4  Z   -0.005361  -0.000000   0.000000  -0.000284
   41  H  5  S    0.330800   0.011669  -0.017068   0.026786
   42  H  5  S    0.259632   0.038774  -0.062183   0.073794
   43  H  5  X   -0.006070   0.004566   0.000763   0.001470
   44  H  5  Y   -0.007890   0.001365  -0.006216   0.000124
   45  H  5  Z    0.014905  -0.001180   0.000363   0.000522
   46  H  6  S   -0.022611   0.011669  -0.017068  -0.011764
   47  H  6  S   -0.073607   0.038774  -0.062183  -0.017776
   48  H  6  X    0.000885   0.004566   0.000763  -0.000263
   49  H  6  Y    0.002688   0.001365  -0.006216   0.000287
   50  H  6  Z   -0.005373   0.001180  -0.000363  -0.000710
 ...... END OF ORBITAL LOCALIZATION ......
 STEP CPU TIME =     0.00 TOTAL CPU TIME =        0.1 (    0.0 MIN)
 TOTAL WALL CLOCK TIME=        0.1 SECONDS, CPU UTILIZATION IS  92.86%
 NORMALIZED MULL. POP. FOR EACH LMO
   1  -0.000 1.000 0.000 0.000-0.000-0.000
   2   0.000-0.000 0.999 0.000 0.000 0.000
   3   0.348 0.661-0.008 0.000-0.001-0.001
   4  -0.001-0.012 0.551-0.009-0.012 0.483
   5  -0.004 1.006 0.001-0.001-0.001 0.000
   6  -0.001-0.012 0.551-0.009 0.483-0.012
   7  -0.006 0.680 0.339-0.002-0.005-0.005
   8   0.001-0.012 0.572 0.460-0.010-0.010
   9  -0.004 1.006 0.001-0.001 0.000-0.001

 ATOMS ARE ASSIGNED TO THE LMOS BASED ON THEIR MULLIKEN POPULATION.
 (MULLIKEN POP. THRESHOLD(VMTOL)=0.150 WAS USED)
 ORBITAL   1 BELONGS TO ATOM(S)   2
 ORBITAL   2 BELONGS TO ATOM(S)   3
 ORBITAL   3 BELONGS TO ATOM(S)   1  2
 ORBITAL   4 BELONGS TO ATOM(S)   3  6
 ORBITAL   5 BELONGS TO ATOM(S)   2
 ORBITAL   6 BELONGS TO ATOM(S)   3  5
 ORBITAL   7 BELONGS TO ATOM(S)   2  3
 ORBITAL   8 BELONGS TO ATOM(S)   3  4
 ORBITAL   9 BELONGS TO ATOM(S)   2

  LCD DIPOLES 

 LMO    XP        YP        ZP        MUX       MUY       MUZ     TOTAL
   1 -1.28416  -0.11910  -0.00000  -0.00050  -0.00095   0.00000   0.00107
   2  1.35450   0.02485  -0.00000   0.00066  -0.00003   0.00000   0.00066
   3 -1.62529   0.79791   0.00000  -0.01845  -0.48962  -0.00000   0.48997
   4  1.84742   0.69864   1.15342  -0.66544  -0.99026  -1.61986   2.01180
   5 -1.42194  -0.36831  -0.49495   0.69995   1.26588   2.51608   2.90225
   6  1.84742   0.69864  -1.15342  -0.66544  -0.99026   1.61986   2.01180
   7 -0.27346   0.00196   0.00000   1.56903  -0.25002  -0.00000   1.58883
   8  1.84509  -1.27947   0.00000  -0.67623   1.76166  -0.00000   1.88699
   9 -1.42194  -0.36831   0.49495   0.69995   1.26588  -2.51608   2.90225

     ------------------------------
     CPHF RESPONSE SOLUTION OPTIONS
     ------------------------------
     POLAR  =       F     NWORD  =       0
     CPHF   =AO      

     --------------------------------------------
     PARTIAL TWO ELECTRON INTEGRAL TRANSFORMATION
     --------------------------------------------

 NUMBER OF CORE MOLECULAR ORBITALS     =    0
 NUMBER OF OCCUPIED MOLECULAR ORBITALS =    9
 TOTAL NUMBER OF MOLECULAR ORBITALS    =   50
 TOTAL NUMBER OF ATOMIC ORBITALS       =   50
 THRESHOLD FOR KEEPING TRANSFORMED 2E- INTEGRALS = 1.000E-09
 AO INTEGRALS WILL BE READ IN FROM DISK...

 PLAN A: REQUIREMENTS FOR FULLY IN-MEMORY TRANSFORMATION:
 # OF WORDS AVAILABLE =              1000000
 # OF WORDS NEEDED    =               646352

 CHOOSING IN MEMORY PARTIAL TRANSFORMATION...
 TOTAL NUMBER OF TRANSFORMED 2E- INTEGRALS KEPT =        65675
 ... END OF INTEGRAL TRANSFORMATION ...
 STEP CPU TIME =     0.06 TOTAL CPU TIME =        0.2 (    0.0 MIN)
 TOTAL WALL CLOCK TIME=        0.2 SECONDS, CPU UTILIZATION IS  95.00%

     -------------------------------------------
     COUPLED-PERTURBED CLOSED SHELL HARTREE-FOCK
     -------------------------------------------
 THE CPHF HAS     369 INDEPENDENT ORBITAL ROTATIONS.
 CHOOSING IN MEMORY CPHF ALGORITHM
         -B- WILL USE      8757 WORDS,
 -A- AND -U- WILL USE    172121 WORDS,
            THERE ARE   1000000 WORDS AVAILABLE.
        TIME FOR   -B-  =        0.000
        TIME FOR   -A-  =        0.000
 BICONJUGATE GRADIENT SOLVER     CONV. TOLERANCE=1.00E-07
 ITER   1 IMPROVED    3 RESPONSES, MAX RESIDUE=  1.0816224E-02
 ITER   2 IMPROVED    3 RESPONSES, MAX RESIDUE=  2.1944810E-03
 ITER   3 IMPROVED    3 RESPONSES, MAX RESIDUE=  4.6657987E-04
 ITER   4 IMPROVED    3 RESPONSES, MAX RESIDUE=  1.0005557E-04
 ITER   5 IMPROVED    3 RESPONSES, MAX RESIDUE=  2.0999904E-05
 ITER   6 IMPROVED    3 RESPONSES, MAX RESIDUE=  1.8030926E-06
 ITER   7 IMPROVED    2 RESPONSES, MAX RESIDUE=  1.5542211E-07
 ITER   8 IMPROVED    1 RESPONSES, MAX RESIDUE=  1.1289862E-08
        TIME FOR  -U-   =        0.010
 SOLVING FOR ALL   3 UNIQUE RESPONSES TOOK   21 ITERATIONS.

          -----------------------------------
           LOCALIZED ALPHA POLARIZABILITIES 
                 IN ANGSTROMS**3            
          -----------------------------------

           CORE ALPHA POLARIZABILITY TENSOR 
                      UX             UY             UZ
           UX     0.000837345    0.000004120    0.000000000
           UY    -0.000030789    0.000718554    0.000000000
           UZ     0.000000000    0.000000000    0.000693130

           MEAN ALPHA POLARIZABILITY =     0.000749676


  LMO ALPHA POLARIZABILITY TENSOR FOR BOND BETWEEN ATOM  1 AND ATOM  2
                      UX             UY             UZ
           UX     0.241863880   -0.240598360   -0.000000001
           UY    -0.161350685    0.369609303    0.000000001
           UZ    -0.000000000    0.000000001    0.050617853

           MEAN ALPHA POLARIZABILITY =     0.220697012


  LMO ALPHA POLARIZABILITY TENSOR FOR BOND BETWEEN ATOM  3 AND ATOM  6
                      UX             UY             UZ
           UX     0.326109704    0.117474775    0.187221304
           UY     0.087518689    0.376062867    0.225132275
           UZ     0.163671583    0.238202907    0.691558914

           MEAN ALPHA POLARIZABILITY =     0.464577162


  LMO ALPHA POLARIZABILITY TENSOR FOR CORE OR LONE PAIR ON ATOM  2
                      UX             UY             UZ
           UX     0.239695856    0.021293519    0.065302629
           UY     0.026314440    0.131059367    0.057875385
           UZ     0.073510974    0.061755330    0.143085598

           MEAN ALPHA POLARIZABILITY =     0.171280274


  LMO ALPHA POLARIZABILITY TENSOR FOR BOND BETWEEN ATOM  3 AND ATOM  5
                      UX             UY             UZ
           UX     0.326109703    0.117474775   -0.187221304
           UY     0.087518689    0.376062867   -0.225132274
           UZ    -0.163671583   -0.238202907    0.691558913

           MEAN ALPHA POLARIZABILITY =     0.464577161


  LMO ALPHA POLARIZABILITY TENSOR FOR BOND BETWEEN ATOM  2 AND ATOM  3
                      UX             UY             UZ
           UX     0.668065161    0.026802471    0.000000001
           UY    -0.006259004    0.100986262   -0.000000000
           UZ     0.000000001   -0.000000000    0.083013705

           MEAN ALPHA POLARIZABILITY =     0.284021709


  LMO ALPHA POLARIZABILITY TENSOR FOR BOND BETWEEN ATOM  3 AND ATOM  4
                      UX             UY             UZ
           UX     0.318534940   -0.209376066   -0.000000000
           UY    -0.205619195    0.801172768   -0.000000000
           UZ    -0.000000000   -0.000000000    0.243356630

           MEAN ALPHA POLARIZABILITY =     0.454354779


  LMO ALPHA POLARIZABILITY TENSOR FOR CORE OR LONE PAIR ON ATOM  2
                      UX             UY             UZ
           UX     0.239695863    0.021293520   -0.065302630
           UY     0.026314439    0.131059378   -0.057875386
           UZ    -0.073510975   -0.061755332    0.143085591

           MEAN ALPHA POLARIZABILITY =     0.171280277


               -----------------------------------
                TOTAL ALPHA POLARIZABILITY TENSOR 
               -----------------------------------
                      UX             UY             UZ
           UX     2.360912452   -0.145631245   -0.000000000
           UY    -0.145593417    2.286731365    0.000000000
           UZ     0.000000000    0.000000000    2.046970335

           MEAN ALPHA POLARIZABILITY =     2.231538051


          -----------------------------------------------
           LOCALIZED ALPHA POLARIZABILITY TENSORS FOR 
           LONE PAIRS AND BONDS PROJECTED ONTO THE Z-AXIS 
          -----------------------------------------------


  LMO ALPHA POLARIZABILITY TENSOR FOR BOND BETWEEN ATOM  1 AND ATOM  2
                      UX             UY             UZ
           UX     0.117534658    0.000000001   -0.134758030
           UY    -0.000000000    0.050617853   -0.000000001
           UZ    -0.055510355   -0.000000001    0.493938524

           MEAN ALPHA POLARIZABILITY =     0.220697012


  LMO ALPHA POLARIZABILITY TENSOR FOR BOND BETWEEN ATOM  3 AND ATOM  6
                      UX             UY             UZ
           UX     0.245665334   -0.007410514    0.022164284
           UY     0.001338584    0.261135627    0.017056406
           UZ    -0.016977237    0.020823694    0.886930525

           MEAN ALPHA POLARIZABILITY =     0.464577162


  LMO ALPHA POLARIZABILITY TENSOR FOR CORE OR LONE PAIR ON ATOM  2
                      UX             UY             UZ
           UX     0.194097970   -0.034153849    0.053250707
           UY    -0.035862198    0.094057014   -0.054060987
           UZ     0.060353062   -0.061428391    0.225685836

           MEAN ALPHA POLARIZABILITY =     0.171280274


  LMO ALPHA POLARIZABILITY TENSOR FOR BOND BETWEEN ATOM  3 AND ATOM  5
                      UX             UY             UZ
           UX     0.245665333    0.007410514    0.022164284
           UY    -0.001338584    0.261135627   -0.017056407
           UZ    -0.016977238   -0.020823694    0.886930524

           MEAN ALPHA POLARIZABILITY =     0.464577161


  LMO ALPHA POLARIZABILITY TENSOR FOR BOND BETWEEN ATOM  2 AND ATOM  3
                      UX             UY             UZ
           UX     0.101554223    0.000000000    0.037201121
           UY     0.000000000    0.083013705    0.000000001
           UZ     0.004139646    0.000000001    0.667497200

           MEAN ALPHA POLARIZABILITY =     0.284021709


  LMO ALPHA POLARIZABILITY TENSOR FOR BOND BETWEEN ATOM  3 AND ATOM  4
                      UX             UY             UZ
           UX     0.241595634    0.000000000   -0.000540329
           UY     0.000000000    0.243356630    0.000000000
           UZ     0.003216542    0.000000000    0.878112074

           MEAN ALPHA POLARIZABILITY =     0.454354779


  LMO ALPHA POLARIZABILITY TENSOR FOR CORE OR LONE PAIR ON ATOM  2
                      UX             UY             UZ
           UX     0.194097978    0.034153846    0.053250708
           UY     0.035862192    0.094057013    0.054060988
           UZ     0.060353063    0.061428392    0.225685841

           MEAN ALPHA POLARIZABILITY =     0.171280277

 ...... DONE WITH CPHF CONTRIBUTIONS ......
 STEP CPU TIME =     0.01 TOTAL CPU TIME =        0.2 (    0.0 MIN)
 TOTAL WALL CLOCK TIME=        0.2 SECONDS, CPU UTILIZATION IS  95.24%
               646352  WORDS OF DYNAMIC MEMORY USED
 EXECUTION OF GAMESS TERMINATED NORMALLY Wed Aug  9 19:50:11 2017
 DDI: 263640 bytes (0.3 MB / 0 MWords) used by master data server.

 ----------------------------------------
 CPU timing information for all processes
 ========================================
 0: 0.192 + 0.19 = 0.212
 ----------------------------------------
 ddikick.x: exited gracefully.
unset echo
----- accounting info -----
Files used on the master node compute-1-7.local were:
-rw-rw-r-- 1 sarom sarom 7.3K Aug  9 19:50 /scratch/pol-alpha.F05
-rw-rw-r-- 1 sarom sarom 4.9M Aug  9 19:50 /scratch/pol-alpha.F08
-rw-rw-r-- 1 sarom sarom 889K Aug  9 19:50 /scratch/pol-alpha.F09
-rw-rw-r-- 1 sarom sarom 2.0M Aug  9 19:50 /scratch/pol-alpha.F10
rm: cannot remove `/scratch/tmp': Is a directory
ls: No match.
ls: No match.
ls: No match.
Wed Aug  9 19:50:15 CDT 2017
0.244u 0.175s 0:03.70 11.0%	0+0k 16+368io 0pf+0w
/opt/gridengine/default/spool/compute-1-7/active_jobs/35694.1/pe_hostfile compute-1-7.local
