-catch_rsh /opt/gridengine/default/spool/compute-0-2/active_jobs/23620.1/pe_hostfile
compute-0-2
The primary node assigned by SGE to this run is compute-0-2
Warning: no access to tty (Bad file descriptor).
Thus no job control in this shell.
Deleting shmid=3964928.
Deleting shmid=3997697.
Deleting shmid=4227074.
source /home/sarom/gamess.github.2017-05-31.14.06/install.info
setenv GMS_PATH /home/sarom/gamess.github.2017-05-31.14.06
setenv GMS_BUILD_DIR /home/sarom/gamess.github.2017-05-31.14.06
setenv GMS_TARGET linux64
setenv GMS_FORTRAN gfortran
setenv GMS_GFORTRAN_VERNO 4.4
setenv GMS_MATHLIB mkl-so
setenv GMS_MATHLIB_PATH /share/apps/intel/compilers_and_libraries_2017.1.132/linux/mkl/lib/intel64
setenv GMS_MKL_VERNO 12
setenv GMS_DDI_COMM sockets
setenv GMS_LIBCCHEM false
setenv GMS_EIGEN_PATH
setenv GMS_PHI false
setenv GMS_SHMTYPE sysv
setenv GMS_OPENMP false
unset echo
c6h6-r-rimp2
tests/mp2
----- GAMESS execution script 'rungms' -----
This job is running on host compute-0-2.local
under operating system Linux at Fri Jun 2 01:38:12 CDT 2017
Available scratch disk space (Kbyte units) at beginning of the job is
Filesystem           1K-blocks      Used Available Use% Mounted on
/dev/sda1             16126920   3867312  11440408  26% /
GAMESS temporary binary files will be written to /scratch
GAMESS supplementary output files will be written to /home/sarom/restart
Copying input file c6h6-r-rimp2.inp to your run's scratch directory...
cp tests/mp2/c6h6-r-rimp2.inp /scratch/c6h6-r-rimp2.F05
unset echo
The generated host list is
compute-0-2.local
/home/sarom/gamess.github.2017-05-31.14.06/ddikick.x /home/sarom/gamess.github.2017-05-31.14.06/gamess.00.x c6h6-r-rimp2 -ddi 1 1 compute-0-2.local -scr /scratch

 Distributed Data Interface kickoff program.
 Initiating 1 compute processes on 1 nodes to run the following command:
 /home/sarom/gamess.github.2017-05-31.14.06/gamess.00.x c6h6-r-rimp2 

          ******************************************************
          *         GAMESS VERSION = 20 APR 2017 (R1)          *
          *             FROM IOWA STATE UNIVERSITY             *
          * M.W.SCHMIDT, K.K.BALDRIDGE, J.A.BOATZ, S.T.ELBERT, *
          *   M.S.GORDON, J.H.JENSEN, S.KOSEKI, N.MATSUNAGA,   *
          *          K.A.NGUYEN, S.J.SU, T.L.WINDUS,           *
          *       TOGETHER WITH M.DUPUIS, J.A.MONTGOMERY       *
          *         J.COMPUT.CHEM.  14, 1347-1363(1993)        *
          **************** 64 BIT LINUX VERSION ****************

  SINCE 1993, STUDENTS AND POSTDOCS WORKING AT IOWA STATE UNIVERSITY
  AND ALSO IN THEIR VARIOUS JOBS AFTER LEAVING ISU HAVE MADE IMPORTANT
  CONTRIBUTIONS TO THE CODE:
     IVANA ADAMOVIC, CHRISTINE AIKENS, YURI ALEXEEV, POOJA ARORA,
     ANDREY ASADCHEV, ROB BELL, PRADIPTA BANDYOPADHYAY, JONATHAN BENTZ,
     BRETT BODE, KURT BRORSEN, CALEB CARLIN, GALINA CHABAN, WEI CHEN,
     CHEOL HO CHOI, PAUL DAY, ALBERT DEFUSCO, NUWAN DESILVA, TIM DUDLEY,
     DMITRI FEDOROV, GRAHAM FLETCHER, MARK FREITAG, KURT GLAESEMANN,
     DAN KEMP, GRANT MERRILL, NORIYUKI MINEZAWA, JONATHAN MULLIN,
     TAKESHI NAGATA, SEAN NEDD, HEATHER NETZLOFF, BOSILJKA NJEGIC, RYAN OLSON,
     MIKE PAK, SPENCER PRUITT, LUKE ROSKOP, JIM SHOEMAKER, LYUDMILA SLIPCHENKO,
     TONY SMITH, SAROM SOK LEANG, JIE SONG, TETSUYA TAKETSUGU, SIMON WEBB,
     PENG XU, SOOHAENG YOO, FEDERICO ZAHARIEV

  ADDITIONAL CODE HAS BEEN PROVIDED BY COLLABORATORS IN OTHER GROUPS:
     IOWA STATE UNIVERSITY:
          JOE IVANIC, AARON WEST, LAIMUTIS BYTAUTAS, KLAUS RUEDENBERG
     UNIVERSITY OF TOKYO: KIMIHIKO HIRAO, TAKAHITO NAKAJIMA,
          TAKAO TSUNEDA, MUNEAKI KAMIYA, SUSUMU YANAGISAWA,
          KIYOSHI YAGI, MAHITO CHIBA, SEIKEN TOKURA, NAOAKI KAWAKAMI
     UNIVERSITY OF AARHUS: FRANK JENSEN
     UNIVERSITY OF IOWA: VISVALDAS KAIRYS, HUI LI
     NATIONAL INST. OF STANDARDS AND TECHNOLOGY: WALT STEVENS, DAVID GARMER
     UNIVERSITY OF PISA: BENEDETTA MENNUCCI, JACOPO TOMASI
     UNIVERSITY OF MEMPHIS: HENRY KURTZ, PRAKASHAN KORAMBATH
     UNIVERSITY OF ALBERTA: TOBY ZENG, MARIUSZ KLOBUKOWSKI
     UNIVERSITY OF NEW ENGLAND: MARK SPACKMAN
     MIE UNIVERSITY: HIROAKI UMEDA
     NAT. INST. OF ADVANCED INDUSTRIAL SCIENCE AND TECHNOLOGY: KAZUO KITAURA
     MICHIGAN STATE UNIVERSITY:
          KAROL KOWALSKI, MARTA WLOCH, JEFFREY GOUR, JESSE LUTZ,
          WEI LI, PIOTR PIECUCH
     UNIVERSITY OF SILESIA: MONIKA MUSIAL, STANISLAW KUCHARSKI
     FACULTES UNIVERSITAIRES NOTRE-DAME DE LA PAIX:
          OLIVIER QUINET, BENOIT CHAMPAGNE
     UNIVERSITY OF CALIFORNIA - SANTA BARBARA: BERNARD KIRTMAN
     INSTITUTE FOR MOLECULAR SCIENCE:
          KAZUYA ISHIMURA, MICHIO KATOUDA, AND SHIGERU NAGASE
     UNIVERSITY OF NOTRE DAME: ANNA POMOGAEVA, DAN CHIPMAN
     KYUSHU UNIVERSITY:
          HARUYUKI NAKANO,
          FENG LONG GU, JACEK KORCHOWIEC, MARCIN MAKOWSKI, AND YURIKO AOKI,
          HIROTOSHI MORI AND EISAKU MIYOSHI
     PENNSYLVANIA STATE UNIVERSITY:
          TZVETELIN IORDANOV, CHET SWALINA, JONATHAN SKONE,
          SHARON HAMMES-SCHIFFER
     WASEDA UNIVERSITY:
          MASATO KOBAYASHI, TOMOKO AKAMA, TSUGUKI TOUMA,
          TAKESHI YOSHIKAWA, YASUHIRO IKABATA, JUNJI SEINO,
          YUYA NAKAJIMA, HIROMI NAKAI
     NANJING UNIVERSITY: SHUHUA LI
     UNIVERSITY OF NEBRASKA:
          PEIFENG SU, DEJUN SI, NANDUN THELLAMUREGE, YALI WANG, HUI LI
     UNIVERSITY OF ZURICH: ROBERTO PEVERATI, KIM BALDRIDGE
     N. COPERNICUS UNIVERSITY AND JACKSON STATE UNIVERSITY:
          MARIA BARYSZ
     UNIVERSITY OF COPENHAGEN: Jimmy Kromann, CASPER STEINMANN
     TOKYO INSTITUTE OF TECHNOLOGY: HIROYA NAKATA
     NAGOYA UNIVERSITY: YOSHIO NISHIMOTO, STEPHAN IRLE
     MOSCOW STATE UNIVERSITY: VLADIMIR MIRONOV

 EXECUTION OF GAMESS BEGUN Fri Jun  2 01:38:12 2017

            ECHO OF THE FIRST FEW INPUT CARDS -
 INPUT CARD>!   benzene...120 AOs, 114 MOs in cc-pVDZ basis set.                            
 INPUT CARD>!   test Michio's RI-MP2 on closed shell with default options                   
 INPUT CARD>!                                                                               
 INPUT CARD>!   FINAL E= -230.7220136426, in 9 iters.                                       
 INPUT CARD>!   fully accurate calculation: E(.P2)= -231.5027398334                         
 INPUT CARD>!   resolution of the identity: E(MP2)= -231.5026522581                         
 INPUT CARD>!                                                                               
 INPUT CARD>!   This run takes 5 seconds on one 2.66 GHz Cloverton (9 Jul 2010)             
 INPUT CARD>!         (versus 19 s.conds and 8 megawords for IMS code)                      
 INPUT CARD>!                                                                               
 INPUT CARD> $CONTRL SCFTYP=RHF MPLEVL=2 RUNTYP=ENERGY ispher=1 $END                        
 INPUT CARD> $SYSTEM MWORDS=1 memddi=0 $END                                                 
 INPUT CARD> $GUESS  GUESS=HUCKEL $END                                                      
 INPUT CARD> $BASIS  GBASIS=CCD $END                                                        
 INPUT CARD> $SCF    DIRSCF=.TRUE. $END                                                     
 INPUT CARD>                                                                                
 INPUT CARD> $mp2    code=rimp2 $end                                                        
 INPUT CARD> $rimp2  othaux=.f. ivmtd=0 gosmp=.f. usedm=.f. $end                            
 INPUT CARD> $auxbas cabnam=CCD $end                                                        
 INPUT CARD>                                                                                
 INPUT CARD> $DATA                                                                          
 INPUT CARD>C6H6 MP2/cc-pVDZ MP2/6-31G Opt geom                                             
 INPUT CARD>Dnh 6                                                                           
 INPUT CARD>                                                                                
 INPUT CARD>C    6.0  0.0000000000  1.3882822686  0.0000000000                              
 INPUT CARD>H    1.0  0.0000000000  2.4617106305  0.0000000000                              
 INPUT CARD> $END                                                                           
    1000000 WORDS OF MEMORY AVAILABLE

     BASIS OPTIONS
     -------------
     GBASIS=CCD          IGAUSS=       0      POLAR=NONE    
     NDFUNC=       0     NFFUNC=       0     DIFFSP=       F
     NPFUNC=       0      DIFFS=       F     BASNAM=        


     RUN TITLE
     ---------
 C6H6 MP2/cc-pVDZ MP2/6-31G Opt geom                                             

 THE POINT GROUP OF THE MOLECULE IS DNH     
 THE ORDER OF THE PRINCIPAL AXIS IS     6

 ATOM      ATOMIC                      COORDINATES (BOHR)
           CHARGE         X                   Y                   Z
 C           6.0    -2.2719943345        1.3117365406        0.0000000000
 C           6.0    -2.2719943345       -1.3117365406        0.0000000000
 C           6.0    -0.0000000000       -2.6234730813        0.0000000000
 C           6.0     2.2719943345       -1.3117365406        0.0000000000
 C           6.0     2.2719943345        1.3117365406        0.0000000000
 C           6.0     0.0000000000        2.6234730813        0.0000000000
 H           1.0    -4.0287142840        2.3259792764        0.0000000000
 H           1.0    -4.0287142840       -2.3259792764        0.0000000000
 H           1.0    -0.0000000000       -4.6519585527        0.0000000000
 H           1.0     4.0287142840       -2.3259792764        0.0000000000
 H           1.0     4.0287142840        2.3259792764        0.0000000000
 H           1.0     0.0000000000        4.6519585527        0.0000000000

          INTERNUCLEAR DISTANCES (ANGS.)
          ------------------------------

                1 C          2 C          3 C          4 C          5 C     

   1 C       0.0000000    1.3882823 *  2.4045754 *  2.7765645 *  2.4045754 *
   2 C       1.3882823 *  0.0000000    1.3882823 *  2.4045754 *  2.7765645 *
   3 C       2.4045754 *  1.3882823 *  0.0000000    1.3882823 *  2.4045754 *
   4 C       2.7765645 *  2.4045754 *  1.3882823 *  0.0000000    1.3882823 *
   5 C       2.4045754 *  2.7765645 *  2.4045754 *  1.3882823 *  0.0000000  
   6 C       1.3882823 *  2.4045754 *  2.7765645 *  2.4045754 *  1.3882823 *
   7 H       1.0734284 *  2.1377085 *  3.3771136    3.8499929    3.3771136  
   8 H       2.1377085 *  1.0734284 *  2.1377085 *  3.3771136    3.8499929  
   9 H       3.3771136    2.1377085 *  1.0734284 *  2.1377085 *  3.3771136  
  10 H       3.8499929    3.3771136    2.1377085 *  1.0734284 *  2.1377085 *
  11 H       3.3771136    3.8499929    3.3771136    2.1377085 *  1.0734284 *
  12 H       2.1377085 *  3.3771136    3.8499929    3.3771136    2.1377085 *

                6 C          7 H          8 H          9 H         10 H     

   1 C       1.3882823 *  1.0734284 *  2.1377085 *  3.3771136    3.8499929  
   2 C       2.4045754 *  2.1377085 *  1.0734284 *  2.1377085 *  3.3771136  
   3 C       2.7765645 *  3.3771136    2.1377085 *  1.0734284 *  2.1377085 *
   4 C       2.4045754 *  3.8499929    3.3771136    2.1377085 *  1.0734284 *
   5 C       1.3882823 *  3.3771136    3.8499929    3.3771136    2.1377085 *
   6 C       0.0000000    2.1377085 *  3.3771136    3.8499929    3.3771136  
   7 H       2.1377085 *  0.0000000    2.4617106 *  4.2638079    4.9234213  
   8 H       3.3771136    2.4617106 *  0.0000000    2.4617106 *  4.2638079  
   9 H       3.8499929    4.2638079    2.4617106 *  0.0000000    2.4617106 *
  10 H       3.3771136    4.9234213    4.2638079    2.4617106 *  0.0000000  
  11 H       2.1377085 *  4.2638079    4.9234213    4.2638079    2.4617106 *
  12 H       1.0734284 *  2.4617106 *  4.2638079    4.9234213    4.2638079  

               11 H         12 H     

   1 C       3.3771136    2.1377085 *
   2 C       3.8499929    3.3771136  
   3 C       3.3771136    3.8499929  
   4 C       2.1377085 *  3.3771136  
   5 C       1.0734284 *  2.1377085 *
   6 C       2.1377085 *  1.0734284 *
   7 H       4.2638079    2.4617106 *
   8 H       4.9234213    4.2638079  
   9 H       4.2638079    4.9234213  
  10 H       2.4617106 *  4.2638079  
  11 H       0.0000000    2.4617106 *
  12 H       2.4617106 *  0.0000000  

  * ... LESS THAN  3.000


     ATOMIC BASIS SET
     ----------------
 THE CONTRACTED PRIMITIVE FUNCTIONS HAVE BEEN UNNORMALIZED
 THE CONTRACTED BASIS FUNCTIONS ARE NOW NORMALIZED TO UNITY

  SHELL TYPE  PRIMITIVE        EXPONENT          CONTRACTION COEFFICIENT(S)

 C         

     31   S       1          6665.0000000    0.000691583963
     31   S       2          1000.0000000    0.005325796153
     31   S       3           228.0000000    0.027060721042
     31   S       4            64.7100000    0.101656846141
     31   S       5            21.0600000    0.274574823617
     31   S       6             7.4950000    0.448294318924
     31   S       7             2.7970000    0.284902610715
     31   S       8             0.5215000    0.015194859206

     32   S       9          6665.0000000   -0.000293269653
     32   S      10          1000.0000000   -0.002318035474
     32   S      11           228.0000000   -0.011499786039
     32   S      12            64.7100000   -0.046826727010
     32   S      13            21.0600000   -0.128466168750
     32   S      14             7.4950000   -0.301266272463
     32   S      15             2.7970000   -0.255630702330
     32   S      16             0.5215000    1.093793361012

     33   S      17             0.1596000    1.000000000000

     34   P      18             9.4390000    0.056979251590
     34   P      19             2.0020000    0.313207211501
     34   P      20             0.5456000    0.760376741738

     35   P      21             0.1517000    1.000000000000

     36   D      22             0.5500000    1.000000000000

 H         

     52   S      23            13.0100000    0.033498726390
     52   S      24             1.9620000    0.234800801174
     52   S      25             0.4446000    0.813682957883

     53   S      26             0.1220000    1.000000000000

     54   P      27             0.7270000    1.000000000000

 TOTAL NUMBER OF BASIS SET SHELLS             =   54
 NUMBER OF CARTESIAN GAUSSIAN BASIS FUNCTIONS =  120
 NOTE: THIS RUN WILL RESTRICT THE MO VARIATION SPACE TO SPHERICAL HARMONICS.
 THE NUMBER OF ORBITALS KEPT IN THE VARIATIONAL SPACE WILL BE PRINTED LATER.
 NUMBER OF ELECTRONS                          =   42
 CHARGE OF MOLECULE                           =    0
 SPIN MULTIPLICITY                            =    1
 NUMBER OF OCCUPIED ORBITALS (ALPHA)          =   21
 NUMBER OF OCCUPIED ORBITALS (BETA )          =   21
 TOTAL NUMBER OF ATOMS                        =   12
 THE NUCLEAR REPULSION ENERGY IS      204.6098358718

     $CONTRL OPTIONS
     ---------------
 SCFTYP=RHF          RUNTYP=ENERGY       EXETYP=RUN     
 MPLEVL=       2     CITYP =NONE         CCTYP =NONE         VBTYP =NONE    
 DFTTYP=NONE         TDDFT =NONE    
 MULT  =       1     ICHARG=       0     NZVAR =       0     COORD =UNIQUE  
 PP    =NONE         RELWFN=NONE         LOCAL =NONE         NUMGRD=       F
 ISPHER=       1     NOSYM =       0     MAXIT =      30     UNITS =ANGS    
 PLTORB=       F     MOLPLT=       F     AIMPAC=       F     FRIEND=        
 NPRINT=       7     IREST =       0     GEOM  =INPUT   
 NORMF =       0     NORMP =       0     ITOL  =      20     ICUT  =       9
 INTTYP=BEST         GRDTYP=BEST         QMTTOL= 1.0E-06

     $SYSTEM OPTIONS
     ---------------
  REPLICATED MEMORY=     1000000 WORDS (ON EVERY NODE).
 DISTRIBUTED MEMDDI=           0 MILLION WORDS IN AGGREGATE,
 MEMDDI DISTRIBUTED OVER   1 PROCESSORS IS           0 WORDS/PROCESSOR.
 TOTAL MEMORY REQUESTED ON EACH PROCESSOR=     1000000 WORDS.
 TIMLIM=      525600.00 MINUTES, OR     365.0 DAYS.
 PARALL= F  BALTYP=  DLB     KDIAG=    0  COREFL= F
 MXSEQ2=     300 MXSEQ3=     150  mem10=         0

          ----------------
          PROPERTIES INPUT
          ----------------

     MOMENTS            FIELD           POTENTIAL          DENSITY
 IEMOM =       1   IEFLD =       0   IEPOT =       0   IEDEN =       0
 WHERE =COMASS     WHERE =NUCLEI     WHERE =NUCLEI     WHERE =NUCLEI  
 OUTPUT=BOTH       OUTPUT=BOTH       OUTPUT=BOTH       OUTPUT=BOTH    
 IEMINT=       0   IEFINT=       0                     IEDINT=       0
                                                       MORB  =       0
          EXTRAPOLATION IN EFFECT
          DIIS IN EFFECT
 ORBITAL PRINTING OPTION: NPREO=     1   120     2     1

     -------------------------------
     INTEGRAL TRANSFORMATION OPTIONS
     -------------------------------
     NWORD  =            0
     CUTOFF = 1.0E-09     MPTRAN =       0
     DIRTRF =       T     AOINTS =DUP     

          ----------------------
          INTEGRAL INPUT OPTIONS
          ----------------------
 NOPK  =       1 NORDER=       0 SCHWRZ=       T

          -----------------------
          MP2 CONTROL INFORMATION
          -----------------------
          NACORE =        6  NBCORE =        6
          LMOMP2 =        F  AOINTS = DUP     
          METHOD =        2  NWORD  =               0
          MP2PRP =        F  OSPT   = NONE    
          CUTOFF = 1.00E-09  CPHFBS = BASISAO 
          CODE   = RIMP2   

          NUMBER OF CORE -A-  ORBITALS =     6
          NUMBER OF CORE -B-  ORBITALS =     6
          NUMBER OF OCC. -A-  ORBITALS =    21
          NUMBER OF OCC. -B-  ORBITALS =    21
          NUMBER OF MOLECULAR ORBITALS =   120
          NUMBER OF   BASIS  FUNCTIONS =   120


 **** EFFICIENCY NOTE ****
 THE MP2 TRANSFORMATION CANNOT USE SYMMETRY WHEN THE GROUP IS NON-ABELIAN.
 YOU MAY BE ABLE TO SPEED UP THIS RUN BY USING AN ABELIAN SUBGROUP IN $DATA.


     ------------------------------------------
     THE POINT GROUP IS DNH, NAXIS= 6, ORDER=24
     ------------------------------------------

 -- VARIATIONAL SPACE WILL BE RESTRICTED TO PURE SPHERICAL HARMONICS ONLY --
 AFTER EXCLUDING CONTAMINANT COMBINATIONS FROM THE CARTESIAN GAUSSIAN BASIS
 SET, THE NUMBER OF SPHERICAL HARMONICS KEPT IN THE VARIATION SPACE IS  114

     DIMENSIONS OF THE SYMMETRY SUBSPACES ARE
 A1G =   10     A1U =    1     B1U =    4     B1G =    4     A2G =    4
 A2U =    4     B2U =   10     B2G =    1     E1G =    5     E1U =   14
 E2U =    5     E2G =   14

 ..... DONE SETTING UP THE RUN .....
 STEP CPU TIME =     0.01 TOTAL CPU TIME =        0.0 (    0.0 MIN)
 TOTAL WALL CLOCK TIME=        0.0 SECONDS, CPU UTILIZATION IS  50.00%

          ********************
          1 ELECTRON INTEGRALS
          ********************
 ...... END OF ONE-ELECTRON INTEGRALS ......
 STEP CPU TIME =     0.02 TOTAL CPU TIME =        0.0 (    0.0 MIN)
 TOTAL WALL CLOCK TIME=        0.0 SECONDS, CPU UTILIZATION IS 100.00%

          -------------
          GUESS OPTIONS
          -------------
          GUESS =HUCKEL            NORB  =       0          NORDER=       0
          MIX   =       F          PRTMO =       F          PUNMO =       F
          TOLZ  = 1.0E-08          TOLE  = 1.0E-05
          SYMDEN=       F          PURIFY=       F

 INITIAL GUESS ORBITALS GENERATED BY HUCKEL   ROUTINE.
 HUCKEL GUESS REQUIRES    118716 WORDS.

 STATISTICS FOR GENERATION OF SYMMETRY ORBITAL -Q- MATRIX
 NUMBER OF CARTESIAN ATOMIC ORBITALS=        120
 NUMBER OF SPHERICAL CONTAMINANTS DROPPED=     6
 NUMBER OF LINEARLY DEPENDENT MOS DROPPED=     0
 TOTAL NUMBER OF MOS IN VARIATION SPACE=     114

 SYMMETRIES FOR INITIAL GUESS ORBITALS FOLLOW.   BOTH SET(S).
    21 ORBITALS ARE OCCUPIED (    6 CORE ORBITALS).
     7=?A1G     8=?E1U     9=?E1U    10=?E2G    11=?E2G    12=?A1G    13=A2U 
    14=?B2U    15=B1U     16=?E1U    17=?E1U    18=E1G     19=E1G     20=?E2G
    21=?E2G    22=E2U     23=E2U     24=B1G     25=E1U     26=E1U     27=A1G 
    28=A1G     29=A1G     30=A1G     31=A1G 
 ...... END OF INITIAL ORBITAL SELECTION ......
 STEP CPU TIME =     0.02 TOTAL CPU TIME =        0.0 (    0.0 MIN)
 TOTAL WALL CLOCK TIME=        0.1 SECONDS, CPU UTILIZATION IS 100.00%

                    ----------------------
                    AO INTEGRAL TECHNOLOGY
                    ----------------------
     S,P,L SHELL ROTATED AXIS INTEGRALS, REPROGRAMMED BY
        KAZUYA ISHIMURA (IMS) AND JOSE SIERRA (SYNSTAR).
     S,P,D,L SHELL ROTATED AXIS INTEGRALS PROGRAMMED BY
        KAZUYA ISHIMURA (INSTITUTE FOR MOLECULAR SCIENCE).
     S,P,D,F,G SHELL TO TOTAL QUARTET ANGULAR MOMENTUM SUM 5,
        ERIC PROGRAM BY GRAHAM FLETCHER (ELORET AND NASA ADVANCED
        SUPERCOMPUTING DIVISION, AMES RESEARCH CENTER).
     S,P,D,F,G,L SHELL GENERAL RYS QUADRATURE PROGRAMMED BY
        MICHEL DUPUIS (PACIFIC NORTHWEST NATIONAL LABORATORY).

          --------------------
          2 ELECTRON INTEGRALS
          --------------------

 DIRECT SCF METHOD SKIPS INTEGRAL STORAGE ON DISK.
 DIRECT TRANSFORMATION SKIPS AO INTEGRAL STORAGE ON DISK.
  ...... END OF TWO-ELECTRON INTEGRALS .....
 STEP CPU TIME =     0.01 TOTAL CPU TIME =        0.1 (    0.0 MIN)
 TOTAL WALL CLOCK TIME=        0.1 SECONDS, CPU UTILIZATION IS 100.00%

          --------------------------
                 RHF SCF CALCULATION
          --------------------------

     NUCLEAR ENERGY =       204.6098358718
     MAXIT =   30     NPUNCH=    2
     EXTRAP=T  DAMP=F  SHIFT=F  RSTRCT=F  DIIS=T  DEM=F  SOSCF=F
     DENSITY MATRIX CONV=  2.00E-06
     MEMORY REQUIRED FOR RHF ITERS=    151511 WORDS.

 DIRECT SCF CALCULATION, SCHWRZ=T   FDIFF=T,  DIRTHR=  0.00E+00 NITDIR=10
 SCHWARZ INEQUALITY OVERHEAD:      7260 INTEGRALS, T=        0.01

                                                                                   NONZERO     BLOCKS
 ITER EX DEM     TOTAL ENERGY        E CHANGE  DENSITY CHANGE    DIIS ERROR      INTEGRALS    SKIPPED
   1  0  0     -230.2059435001  -230.2059435001   0.182722905   0.595205579        1145642       3440
          * * *   INITIATING DIIS PROCEDURE   * * *
   2  1  0     -230.6886924234    -0.4827489233   0.055349740   0.106324297        1147953       3482
   3  2  0     -230.7172007523    -0.0285083289   0.011873827   0.044186522        1141671       4786
   4  3  0     -230.7215905481    -0.0043897958   0.006679640   0.011101334        1132888       6076
   5  4  0     -230.7220087238    -0.0004181757   0.000550341   0.001210138        1123524       7398
   6  5  0     -230.7220135874    -0.0000048636   0.000103086   0.000114818        1100445      10457
   7  6  0     -230.7220136419    -0.0000000545   0.000008049   0.000010904        1068826      14193
   8  7  0     -230.7220136425    -0.0000000007   0.000001680   0.000001607        1002410      19899
   9  8  0     -230.7220136426    -0.0000000001   0.000000218   0.000000247         930546      25827

          -----------------
          DENSITY CONVERGED
          -----------------
     TIME TO FORM FOCK OPERATORS=       2.4 SECONDS (       0.3 SEC/ITER)
     FOCK TIME ON FIRST ITERATION=       0.3, LAST ITERATION=       0.2
     TIME TO SOLVE SCF EQUATIONS=       0.1 SECONDS (       0.0 SEC/ITER)

 FINAL RHF ENERGY IS     -230.7220136426 AFTER   9 ITERATIONS

          ------------
          EIGENVECTORS
          ------------

                      1          2          3          4          5
                  -11.2356   -11.2350   -11.2350   -11.2338   -11.2338
                     A1G        E1U        E1U        E2G        E2G 
    1  C  1  S    0.408815  -0.500973  -0.289237  -0.289393  -0.501244
    2  C  1  S    0.001478  -0.002181  -0.001259  -0.001397  -0.002419
    3  C  1  S   -0.001889   0.004067   0.002348   0.003304   0.005722
    4  C  1  X   -0.000077   0.000035   0.000046  -0.000008   0.000060
    5  C  1  Y    0.000045  -0.000046   0.000019  -0.000069   0.000008
    6  C  1  Z   -0.000000  -0.000000   0.000000   0.000000  -0.000000
    7  C  1  X    0.000211   0.000657  -0.000504   0.000969   0.000969
    8  C  1  Y   -0.000122   0.000504  -0.001239   0.000150  -0.000969
    9  C  1  Z   -0.000000  -0.000000   0.000000   0.000000  -0.000000
   10  C  1 XX    0.000070  -0.000059  -0.000036  -0.000237  -0.000203
   11  C  1 YY   -0.000004  -0.000011  -0.000005  -0.000029  -0.000257
   12  C  1 ZZ   -0.000066   0.000071   0.000041   0.000265   0.000460
   13  C  1 XY   -0.000073   0.000050   0.000028  -0.000031   0.000083
   14  C  1 XZ   -0.000000  -0.000000   0.000000   0.000000  -0.000000
   15  C  1 YZ   -0.000000  -0.000000   0.000000   0.000000  -0.000000
   16  C  2  S    0.408815  -0.500973   0.289237  -0.289393   0.501244
   17  C  2  S    0.001478  -0.002181   0.001259  -0.001397   0.002419
   18  C  2  S   -0.001889   0.004067  -0.002348   0.003304  -0.005722
   19  C  2  X   -0.000077   0.000035  -0.000046  -0.000008  -0.000060
   20  C  2  Y   -0.000045   0.000046   0.000019   0.000069   0.000008
   21  C  2  Z   -0.000000  -0.000000   0.000000   0.000000  -0.000000
   22  C  2  X    0.000211   0.000657   0.000504   0.000969  -0.000969
   23  C  2  Y    0.000122  -0.000504  -0.001239  -0.000150  -0.000969
   24  C  2  Z   -0.000000  -0.000000   0.000000   0.000000  -0.000000
   25  C  2 XX    0.000070  -0.000059   0.000036  -0.000237   0.000203
   26  C  2 YY   -0.000004  -0.000011   0.000005  -0.000029   0.000257
   27  C  2 ZZ   -0.000066   0.000071  -0.000041   0.000265  -0.000460
   28  C  2 XY    0.000073  -0.000050   0.000028   0.000031   0.000083
   29  C  2 XZ   -0.000000  -0.000000   0.000000   0.000000  -0.000000
   30  C  2 YZ   -0.000000  -0.000000   0.000000   0.000000  -0.000000
   31  C  3  S    0.408815  -0.000000   0.578474   0.578786  -0.000000
   32  C  3  S    0.001478  -0.000000   0.002518   0.002793  -0.000000
   33  C  3  S   -0.001889  -0.000000  -0.004697  -0.006607  -0.000000
   34  C  3  X   -0.000000  -0.000045   0.000000   0.000000   0.000073
   35  C  3  Y   -0.000089  -0.000000  -0.000061  -0.000055  -0.000000
   36  C  3  Z   -0.000000  -0.000000   0.000000   0.000000  -0.000000
   37  C  3  X   -0.000000   0.001530   0.000000   0.000000  -0.000709
   38  C  3  Y    0.000243  -0.000000  -0.000367  -0.001528  -0.000000
   39  C  3  Z   -0.000000  -0.000000   0.000000   0.000000  -0.000000
   40  C  3 XX   -0.000041  -0.000000  -0.000017   0.000209  -0.000000
   41  C  3 YY    0.000106  -0.000000   0.000098   0.000322  -0.000000
   42  C  3 ZZ   -0.000066  -0.000000  -0.000081  -0.000531  -0.000000
   43  C  3 XY   -0.000000   0.000002   0.000000   0.000000   0.000138
   44  C  3 XZ   -0.000000  -0.000000   0.000000   0.000000  -0.000000
   45  C  3 YZ   -0.000000  -0.000000   0.000000   0.000000  -0.000000
   46  C  4  S    0.408815   0.500973   0.289237  -0.289393  -0.501244
   47  C  4  S    0.001478   0.002181   0.001259  -0.001397  -0.002419
   48  C  4  S   -0.001889  -0.004067  -0.002348   0.003304   0.005722
   49  C  4  X    0.000077   0.000035   0.000046   0.000008  -0.000060
   50  C  4  Y   -0.000045  -0.000046   0.000019   0.000069  -0.000008
   51  C  4  Z   -0.000000  -0.000000   0.000000   0.000000  -0.000000
   52  C  4  X   -0.000211   0.000657  -0.000504  -0.000969  -0.000969
   53  C  4  Y    0.000122   0.000504  -0.001239  -0.000150   0.000969
   54  C  4  Z   -0.000000  -0.000000   0.000000   0.000000  -0.000000
   55  C  4 XX    0.000070   0.000059   0.000036  -0.000237  -0.000203
   56  C  4 YY   -0.000004   0.000011   0.000005  -0.000029  -0.000257
   57  C  4 ZZ   -0.000066  -0.000071  -0.000041   0.000265   0.000460
   58  C  4 XY   -0.000073  -0.000050  -0.000028  -0.000031   0.000083
   59  C  4 XZ   -0.000000  -0.000000   0.000000   0.000000  -0.000000
   60  C  4 YZ   -0.000000  -0.000000   0.000000   0.000000  -0.000000
   61  C  5  S    0.408815   0.500973  -0.289237  -0.289393   0.501244
   62  C  5  S    0.001478   0.002181  -0.001259  -0.001397   0.002419
   63  C  5  S   -0.001889  -0.004067   0.002348   0.003304  -0.005722
   64  C  5  X    0.000077   0.000035  -0.000046   0.000008   0.000060
   65  C  5  Y    0.000045   0.000046   0.000019  -0.000069  -0.000008
   66  C  5  Z   -0.000000  -0.000000   0.000000   0.000000  -0.000000
   67  C  5  X   -0.000211   0.000657   0.000504  -0.000969   0.000969
   68  C  5  Y   -0.000122  -0.000504  -0.001239   0.000150   0.000969
   69  C  5  Z   -0.000000  -0.000000   0.000000   0.000000  -0.000000
   70  C  5 XX    0.000070   0.000059  -0.000036  -0.000237   0.000203
   71  C  5 YY   -0.000004   0.000011  -0.000005  -0.000029   0.000257
   72  C  5 ZZ   -0.000066  -0.000071   0.000041   0.000265  -0.000460
   73  C  5 XY    0.000073   0.000050  -0.000028   0.000031   0.000083
   74  C  5 XZ   -0.000000  -0.000000   0.000000   0.000000  -0.000000
   75  C  5 YZ   -0.000000  -0.000000   0.000000   0.000000  -0.000000
   76  C  6  S    0.408815  -0.000000  -0.578474   0.578786  -0.000000
   77  C  6  S    0.001478  -0.000000  -0.002518   0.002793  -0.000000
   78  C  6  S   -0.001889  -0.000000   0.004697  -0.006607  -0.000000
   79  C  6  X   -0.000000  -0.000045   0.000000   0.000000  -0.000073
   80  C  6  Y    0.000089  -0.000000  -0.000061   0.000055  -0.000000
   81  C  6  Z   -0.000000  -0.000000   0.000000   0.000000  -0.000000
   82  C  6  X   -0.000000   0.001530   0.000000   0.000000   0.000709
   83  C  6  Y   -0.000243  -0.000000  -0.000367   0.001528  -0.000000
   84  C  6  Z   -0.000000  -0.000000   0.000000   0.000000  -0.000000
   85  C  6 XX   -0.000041  -0.000000   0.000017   0.000209  -0.000000
   86  C  6 YY    0.000106  -0.000000  -0.000098   0.000322  -0.000000
   87  C  6 ZZ   -0.000066  -0.000000   0.000081  -0.000531  -0.000000
   88  C  6 XY   -0.000000  -0.000002   0.000000   0.000000   0.000138
   89  C  6 XZ   -0.000000  -0.000000   0.000000   0.000000  -0.000000
   90  C  6 YZ   -0.000000  -0.000000   0.000000   0.000000  -0.000000
   91  H  7  S   -0.000136   0.000148   0.000085   0.000192   0.000333
   92  H  7  S    0.000719  -0.000553  -0.000320  -0.000137  -0.000237
   93  H  7  X   -0.000113   0.000178   0.000102   0.000172   0.000305
   94  H  7  Y    0.000065  -0.000102  -0.000060  -0.000107  -0.000172
   95  H  7  Z   -0.000000  -0.000000   0.000000   0.000000  -0.000000
   96  H  8  S   -0.000136   0.000148  -0.000085   0.000192  -0.000333
   97  H  8  S    0.000719  -0.000553   0.000320  -0.000137   0.000237
   98  H  8  X   -0.000113   0.000178  -0.000102   0.000172  -0.000305
   99  H  8  Y   -0.000065   0.000102  -0.000060   0.000107  -0.000172
  100  H  8  Z   -0.000000  -0.000000   0.000000   0.000000  -0.000000
  101  H  9  S   -0.000136  -0.000000  -0.000170  -0.000385  -0.000000
  102  H  9  S    0.000719  -0.000000   0.000639   0.000273  -0.000000
  103  H  9  X   -0.000000   0.000001   0.000000   0.000000   0.000007
  104  H  9  Y   -0.000130  -0.000000  -0.000236  -0.000404  -0.000000
  105  H  9  Z   -0.000000  -0.000000   0.000000   0.000000  -0.000000
  106  H 10  S   -0.000136  -0.000148  -0.000085   0.000192   0.000333
  107  H 10  S    0.000719   0.000553   0.000320  -0.000137  -0.000237
  108  H 10  X    0.000113   0.000178   0.000102  -0.000172  -0.000305
  109  H 10  Y   -0.000065  -0.000102  -0.000060   0.000107   0.000172
  110  H 10  Z   -0.000000  -0.000000   0.000000   0.000000  -0.000000
  111  H 11  S   -0.000136  -0.000148   0.000085   0.000192  -0.000333
  112  H 11  S    0.000719   0.000553  -0.000320  -0.000137   0.000237
  113  H 11  X    0.000113   0.000178  -0.000102  -0.000172   0.000305
  114  H 11  Y    0.000065   0.000102  -0.000060  -0.000107   0.000172
  115  H 11  Z   -0.000000  -0.000000   0.000000   0.000000  -0.000000
  116  H 12  S   -0.000136  -0.000000   0.000170  -0.000385  -0.000000
  117  H 12  S    0.000719  -0.000000  -0.000639   0.000273  -0.000000
  118  H 12  X   -0.000000   0.000001   0.000000   0.000000  -0.000007
  119  H 12  Y    0.000130  -0.000000  -0.000236   0.000404  -0.000000
  120  H 12  Z   -0.000000  -0.000000   0.000000   0.000000  -0.000000

                      6          7          8          9         10
                  -11.2332    -1.1520    -1.0156    -1.0156    -0.8241
                     B2U        A1G        E1U        E1U        E2G 
    1  C  1  S    0.409434  -0.012212   0.016010   0.009243   0.005495
    2  C  1  S    0.002195   0.179716  -0.213877  -0.123482  -0.099616
    3  C  1  S   -0.007716   0.098693  -0.126090  -0.072798  -0.080646
    4  C  1  X   -0.000012   0.056370   0.005985  -0.064058   0.115584
    5  C  1  Y    0.000007  -0.032545   0.064058  -0.079952   0.139497
    6  C  1  Z    0.000000   0.000000   0.000000  -0.000000   0.000000
    7  C  1  X   -0.002314   0.010491  -0.005736  -0.028907   0.022915
    8  C  1  Y    0.001336  -0.006057   0.028907  -0.027642   0.047433
    9  C  1  Z    0.000000   0.000000   0.000000  -0.000000   0.000000
   10  C  1 XX    0.000344   0.002082   0.006642  -0.012748   0.009489
   11  C  1 YY    0.000238   0.006935  -0.015199   0.007808  -0.011364
   12  C  1 ZZ   -0.000582  -0.009017   0.008557   0.004940   0.001875
   13  C  1 XY   -0.000105   0.004853  -0.002693  -0.012610   0.005556
   14  C  1 XZ    0.000000   0.000000   0.000000  -0.000000   0.000000
   15  C  1 YZ    0.000000   0.000000   0.000000  -0.000000   0.000000
   16  C  2  S   -0.409434  -0.012212   0.016010  -0.009243   0.005495
   17  C  2  S   -0.002195   0.179716  -0.213877   0.123482  -0.099616
   18  C  2  S    0.007716   0.098693  -0.126090   0.072798  -0.080646
   19  C  2  X    0.000012   0.056370   0.005985   0.064058   0.115584
   20  C  2  Y    0.000007   0.032545  -0.064058  -0.079952  -0.139497
   21  C  2  Z    0.000000   0.000000   0.000000  -0.000000   0.000000
   22  C  2  X    0.002314   0.010491  -0.005736   0.028907   0.022915
   23  C  2  Y    0.001336   0.006057  -0.028907  -0.027642  -0.047433
   24  C  2  Z    0.000000   0.000000   0.000000  -0.000000   0.000000
   25  C  2 XX   -0.000344   0.002082   0.006642   0.012748   0.009489
   26  C  2 YY   -0.000238   0.006935  -0.015199  -0.007808  -0.011364
   27  C  2 ZZ    0.000582  -0.009017   0.008557  -0.004940   0.001875
   28  C  2 XY   -0.000105  -0.004853   0.002693  -0.012610  -0.005556
   29  C  2 XZ    0.000000   0.000000   0.000000  -0.000000   0.000000
   30  C  2 YZ    0.000000   0.000000   0.000000  -0.000000   0.000000
   31  C  3  S    0.409434  -0.012212   0.000000  -0.018486  -0.010990
   32  C  3  S    0.002195   0.179716   0.000000   0.246964   0.199232
   33  C  3  S   -0.007716   0.098693   0.000000   0.145596   0.161292
   34  C  3  X    0.000000   0.000000   0.116936  -0.000000   0.000000
   35  C  3  Y   -0.000014   0.065090   0.000000   0.030999  -0.060700
   36  C  3  Z    0.000000   0.000000   0.000000  -0.000000   0.000000
   37  C  3  X    0.000000   0.000000   0.044332  -0.000000   0.000000
   38  C  3  Y   -0.002673   0.012113   0.000000   0.022425   0.007744
   39  C  3  Z    0.000000   0.000000   0.000000  -0.000000   0.000000
   40  C  3 XX    0.000186   0.009361   0.000000   0.013578   0.003968
   41  C  3 YY    0.000396  -0.000344   0.000000  -0.003697  -0.000218
   42  C  3 ZZ   -0.000582  -0.009017   0.000000  -0.009881  -0.003749
   43  C  3 XY    0.000000   0.000000   0.019148  -0.000000   0.000000
   44  C  3 XZ    0.000000   0.000000   0.000000  -0.000000   0.000000
   45  C  3 YZ    0.000000   0.000000   0.000000  -0.000000   0.000000
   46  C  4  S   -0.409434  -0.012212  -0.016010  -0.009243   0.005495
   47  C  4  S   -0.002195   0.179716   0.213877   0.123482  -0.099616
   48  C  4  S    0.007716   0.098693   0.126090   0.072798  -0.080646
   49  C  4  X   -0.000012  -0.056370   0.005985  -0.064058  -0.115584
   50  C  4  Y    0.000007   0.032545   0.064058  -0.079952  -0.139497
   51  C  4  Z    0.000000   0.000000   0.000000  -0.000000   0.000000
   52  C  4  X   -0.002314  -0.010491  -0.005736  -0.028907  -0.022915
   53  C  4  Y    0.001336   0.006057   0.028907  -0.027642  -0.047433
   54  C  4  Z    0.000000   0.000000   0.000000  -0.000000   0.000000
   55  C  4 XX   -0.000344   0.002082  -0.006642   0.012748   0.009489
   56  C  4 YY   -0.000238   0.006935   0.015199  -0.007808  -0.011364
   57  C  4 ZZ    0.000582  -0.009017  -0.008557  -0.004940   0.001875
   58  C  4 XY    0.000105   0.004853   0.002693   0.012610   0.005556
   59  C  4 XZ    0.000000   0.000000   0.000000  -0.000000   0.000000
   60  C  4 YZ    0.000000   0.000000   0.000000  -0.000000   0.000000
   61  C  5  S    0.409434  -0.012212  -0.016010   0.009243   0.005495
   62  C  5  S    0.002195   0.179716   0.213877  -0.123482  -0.099616
   63  C  5  S   -0.007716   0.098693   0.126090  -0.072798  -0.080646
   64  C  5  X    0.000012  -0.056370   0.005985   0.064058  -0.115584
   65  C  5  Y    0.000007  -0.032545  -0.064058  -0.079952   0.139497
   66  C  5  Z    0.000000   0.000000   0.000000  -0.000000   0.000000
   67  C  5  X    0.002314  -0.010491  -0.005736   0.028907  -0.022915
   68  C  5  Y    0.001336  -0.006057  -0.028907  -0.027642   0.047433
   69  C  5  Z    0.000000   0.000000   0.000000  -0.000000   0.000000
   70  C  5 XX    0.000344   0.002082  -0.006642  -0.012748   0.009489
   71  C  5 YY    0.000238   0.006935   0.015199   0.007808  -0.011364
   72  C  5 ZZ   -0.000582  -0.009017  -0.008557   0.004940   0.001875
   73  C  5 XY    0.000105  -0.004853  -0.002693   0.012610  -0.005556
   74  C  5 XZ    0.000000   0.000000   0.000000  -0.000000   0.000000
   75  C  5 YZ    0.000000   0.000000   0.000000  -0.000000   0.000000
   76  C  6  S   -0.409434  -0.012212   0.000000   0.018486  -0.010990
   77  C  6  S   -0.002195   0.179716   0.000000  -0.246964   0.199232
   78  C  6  S    0.007716   0.098693   0.000000  -0.145596   0.161292
   79  C  6  X    0.000000   0.000000   0.116936  -0.000000   0.000000
   80  C  6  Y   -0.000014  -0.065090   0.000000   0.030999   0.060700
   81  C  6  Z    0.000000   0.000000   0.000000  -0.000000   0.000000
   82  C  6  X    0.000000   0.000000   0.044332  -0.000000   0.000000
   83  C  6  Y   -0.002673  -0.012113   0.000000   0.022425  -0.007744
   84  C  6  Z    0.000000   0.000000   0.000000  -0.000000   0.000000
   85  C  6 XX   -0.000186   0.009361   0.000000  -0.013578   0.003968
   86  C  6 YY   -0.000396  -0.000344   0.000000   0.003697  -0.000218
   87  C  6 ZZ    0.000582  -0.009017   0.000000   0.009881  -0.003749
   88  C  6 XY    0.000000   0.000000  -0.019148  -0.000000   0.000000
   89  C  6 XZ    0.000000   0.000000   0.000000  -0.000000   0.000000
   90  C  6 YZ    0.000000   0.000000   0.000000  -0.000000   0.000000
   91  H  7  S   -0.000408   0.047942  -0.093228  -0.053825  -0.079122
   92  H  7  S   -0.000166   0.000676  -0.011670  -0.006738  -0.017161
   93  H  7  X   -0.000301   0.007350  -0.011031  -0.008155  -0.006116
   94  H  7  Y    0.000174  -0.004244   0.008155   0.001615   0.007406
   95  H  7  Z    0.000000   0.000000   0.000000  -0.000000   0.000000
   96  H  8  S    0.000408   0.047942  -0.093228   0.053825  -0.079122
   97  H  8  S    0.000166   0.000676  -0.011670   0.006738  -0.017161
   98  H  8  X    0.000301   0.007350  -0.011031   0.008155  -0.006116
   99  H  8  Y    0.000174   0.004244  -0.008155   0.001615  -0.007406
  100  H  8  Z    0.000000   0.000000   0.000000  -0.000000   0.000000
  101  H  9  S   -0.000408   0.047942   0.000000   0.107650   0.158245
  102  H  9  S   -0.000166   0.000676   0.000000   0.013476   0.034323
  103  H  9  X    0.000000   0.000000   0.003093  -0.000000   0.000000
  104  H  9  Y   -0.000347   0.008487   0.000000   0.015739   0.017999
  105  H  9  Z    0.000000   0.000000   0.000000  -0.000000   0.000000
  106  H 10  S    0.000408   0.047942   0.093228   0.053825  -0.079122
  107  H 10  S    0.000166   0.000676   0.011670   0.006738  -0.017161
  108  H 10  X   -0.000301  -0.007350  -0.011031  -0.008155   0.006116
  109  H 10  Y    0.000174   0.004244   0.008155   0.001615  -0.007406
  110  H 10  Z    0.000000   0.000000   0.000000  -0.000000   0.000000
  111  H 11  S   -0.000408   0.047942   0.093228  -0.053825  -0.079122
  112  H 11  S   -0.000166   0.000676   0.011670  -0.006738  -0.017161
  113  H 11  X    0.000301  -0.007350  -0.011031   0.008155   0.006116
  114  H 11  Y    0.000174  -0.004244  -0.008155   0.001615   0.007406
  115  H 11  Z    0.000000   0.000000   0.000000  -0.000000   0.000000
  116  H 12  S    0.000408   0.047942   0.000000  -0.107650   0.158245
  117  H 12  S    0.000166   0.000676   0.000000  -0.013476   0.034323
  118  H 12  X    0.000000   0.000000   0.003093  -0.000000   0.000000
  119  H 12  Y   -0.000347  -0.008487   0.000000   0.015739  -0.017999
  120  H 12  Z    0.000000   0.000000   0.000000  -0.000000   0.000000

                     11         12         13         14         15
                   -0.8241    -0.7100    -0.6433    -0.6172    -0.5870
                     E2G        A1G        B2U        B1U        E1U 
    1  C  1  S    0.009517   0.003687  -0.006912  -0.000000   0.000328
    2  C  1  S   -0.172540  -0.011261   0.111061  -0.000000   0.039194
    3  C  1  S   -0.139683  -0.028025   0.151771  -0.000000   0.057811
    4  C  1  X   -0.006033   0.164439  -0.111246  -0.138501   0.196711
    5  C  1  Y   -0.115584  -0.094939   0.064228  -0.239891  -0.164381
    6  C  1  Z   -0.000000   0.000000  -0.000000  -0.000000  -0.000000
    7  C  1  X   -0.020973   0.053748  -0.009085  -0.047886   0.085468
    8  C  1  Y   -0.022915  -0.031032   0.005245  -0.082941  -0.048043
    9  C  1  Z   -0.000000   0.000000  -0.000000  -0.000000  -0.000000
   10  C  1 XX   -0.006435   0.002974   0.010182  -0.007528  -0.010561
   11  C  1 YY    0.003188  -0.001456  -0.011440   0.007528   0.011414
   12  C  1 ZZ    0.003247  -0.001518   0.001258  -0.000000  -0.000853
   13  C  1 XY   -0.005624  -0.004429  -0.021623  -0.005019   0.001040
   14  C  1 XZ   -0.000000   0.000000  -0.000000  -0.000000  -0.000000
   15  C  1 YZ   -0.000000   0.000000  -0.000000  -0.000000  -0.000000
   16  C  2  S   -0.009517   0.003687   0.006912  -0.000000   0.000328
   17  C  2  S    0.172540  -0.011261  -0.111061  -0.000000   0.039194
   18  C  2  S    0.139683  -0.028025  -0.151771  -0.000000   0.057811
   19  C  2  X    0.006033   0.164439   0.111246  -0.138501   0.196711
   20  C  2  Y   -0.115584   0.094939   0.064228   0.239891   0.164381
   21  C  2  Z   -0.000000   0.000000  -0.000000  -0.000000  -0.000000
   22  C  2  X    0.020973   0.053748   0.009085  -0.047886   0.085468
   23  C  2  Y   -0.022915   0.031032   0.005245   0.082941   0.048043
   24  C  2  Z   -0.000000   0.000000  -0.000000  -0.000000  -0.000000
   25  C  2 XX    0.006435   0.002974  -0.010182  -0.007528  -0.010561
   26  C  2 YY   -0.003188  -0.001456   0.011440   0.007528   0.011414
   27  C  2 ZZ   -0.003247  -0.001518  -0.001258  -0.000000  -0.000853
   28  C  2 XY   -0.005624   0.004429  -0.021623   0.005019  -0.001040
   29  C  2 XZ   -0.000000   0.000000  -0.000000  -0.000000  -0.000000
   30  C  2 YZ   -0.000000   0.000000  -0.000000  -0.000000  -0.000000
   31  C  3  S   -0.000000   0.003687  -0.006912  -0.000000  -0.000000
   32  C  3  S   -0.000000  -0.011261   0.111061  -0.000000  -0.000000
   33  C  3  S   -0.000000  -0.028025   0.151771  -0.000000  -0.000000
   34  C  3  X   -0.206229   0.000000  -0.000000   0.277003  -0.088004
   35  C  3  Y   -0.000000   0.189878  -0.128455  -0.000000  -0.000000
   36  C  3  Z   -0.000000   0.000000  -0.000000  -0.000000  -0.000000
   37  C  3  X   -0.060662   0.000000  -0.000000   0.095772   0.002256
   38  C  3  Y   -0.000000   0.062063  -0.010490  -0.000000  -0.000000
   39  C  3  Z   -0.000000   0.000000  -0.000000  -0.000000  -0.000000
   40  C  3 XX   -0.000000  -0.003670  -0.022252  -0.000000  -0.000000
   41  C  3 YY   -0.000000   0.005188   0.020994  -0.000000  -0.000000
   42  C  3 ZZ   -0.000000  -0.001518   0.001258  -0.000000  -0.000000
   43  C  3 XY   -0.015247   0.000000  -0.000000   0.010038  -0.020934
   44  C  3 XZ   -0.000000   0.000000  -0.000000  -0.000000  -0.000000
   45  C  3 YZ   -0.000000   0.000000  -0.000000  -0.000000  -0.000000
   46  C  4  S    0.009517   0.003687   0.006912  -0.000000  -0.000328
   47  C  4  S   -0.172540  -0.011261  -0.111061  -0.000000  -0.039194
   48  C  4  S   -0.139683  -0.028025  -0.151771  -0.000000  -0.057811
   49  C  4  X    0.006033  -0.164439  -0.111246  -0.138501   0.196711
   50  C  4  Y    0.115584   0.094939   0.064228  -0.239891  -0.164381
   51  C  4  Z   -0.000000   0.000000  -0.000000  -0.000000  -0.000000
   52  C  4  X    0.020973  -0.053748  -0.009085  -0.047886   0.085468
   53  C  4  Y    0.022915   0.031032   0.005245  -0.082941  -0.048043
   54  C  4  Z   -0.000000   0.000000  -0.000000  -0.000000  -0.000000
   55  C  4 XX   -0.006435   0.002974  -0.010182   0.007528   0.010561
   56  C  4 YY    0.003188  -0.001456   0.011440  -0.007528  -0.011414
   57  C  4 ZZ    0.003247  -0.001518  -0.001258  -0.000000   0.000853
   58  C  4 XY   -0.005624  -0.004429   0.021623   0.005019  -0.001040
   59  C  4 XZ   -0.000000   0.000000  -0.000000  -0.000000  -0.000000
   60  C  4 YZ   -0.000000   0.000000  -0.000000  -0.000000  -0.000000
   61  C  5  S   -0.009517   0.003687  -0.006912  -0.000000  -0.000328
   62  C  5  S    0.172540  -0.011261   0.111061  -0.000000  -0.039194
   63  C  5  S    0.139683  -0.028025   0.151771  -0.000000  -0.057811
   64  C  5  X   -0.006033  -0.164439   0.111246  -0.138501   0.196711
   65  C  5  Y    0.115584  -0.094939   0.064228   0.239891   0.164381
   66  C  5  Z   -0.000000   0.000000  -0.000000  -0.000000  -0.000000
   67  C  5  X   -0.020973  -0.053748   0.009085  -0.047886   0.085468
   68  C  5  Y    0.022915  -0.031032   0.005245   0.082941   0.048043
   69  C  5  Z   -0.000000   0.000000  -0.000000  -0.000000  -0.000000
   70  C  5 XX    0.006435   0.002974   0.010182   0.007528   0.010561
   71  C  5 YY   -0.003188  -0.001456  -0.011440  -0.007528  -0.011414
   72  C  5 ZZ   -0.003247  -0.001518   0.001258  -0.000000   0.000853
   73  C  5 XY   -0.005624   0.004429   0.021623  -0.005019   0.001040
   74  C  5 XZ   -0.000000   0.000000  -0.000000  -0.000000  -0.000000
   75  C  5 YZ   -0.000000   0.000000  -0.000000  -0.000000  -0.000000
   76  C  6  S   -0.000000   0.003687   0.006912  -0.000000  -0.000000
   77  C  6  S   -0.000000  -0.011261  -0.111061  -0.000000  -0.000000
   78  C  6  S   -0.000000  -0.028025  -0.151771  -0.000000  -0.000000
   79  C  6  X    0.206229   0.000000  -0.000000   0.277003  -0.088004
   80  C  6  Y   -0.000000  -0.189878  -0.128455  -0.000000  -0.000000
   81  C  6  Z   -0.000000   0.000000  -0.000000  -0.000000  -0.000000
   82  C  6  X    0.060662   0.000000  -0.000000   0.095772   0.002256
   83  C  6  Y   -0.000000  -0.062063  -0.010490  -0.000000  -0.000000
   84  C  6  Z   -0.000000   0.000000  -0.000000  -0.000000  -0.000000
   85  C  6 XX   -0.000000  -0.003670   0.022252  -0.000000  -0.000000
   86  C  6 YY   -0.000000   0.005188  -0.020994  -0.000000  -0.000000
   87  C  6 ZZ   -0.000000  -0.001518  -0.001258  -0.000000  -0.000000
   88  C  6 XY   -0.015247   0.000000  -0.000000  -0.010038   0.020934
   89  C  6 XZ   -0.000000   0.000000  -0.000000  -0.000000  -0.000000
   90  C  6 YZ   -0.000000   0.000000  -0.000000  -0.000000  -0.000000
   91  H  7  S   -0.137044  -0.150683   0.185690  -0.000000  -0.194174
   92  H  7  S   -0.029724  -0.036394   0.072762  -0.000000  -0.069766
   93  H  7  X   -0.014468  -0.011403   0.011452  -0.002750  -0.012198
   94  H  7  Y    0.006116   0.006584  -0.006612  -0.004763   0.004064
   95  H  7  Z   -0.000000   0.000000  -0.000000  -0.000000  -0.000000
   96  H  8  S    0.137044  -0.150683  -0.185690  -0.000000  -0.194174
   97  H  8  S    0.029724  -0.036394  -0.072762  -0.000000  -0.069766
   98  H  8  X    0.014468  -0.011403  -0.011452  -0.002750  -0.012198
   99  H  8  Y    0.006116  -0.006584  -0.006612   0.004763  -0.004064
  100  H  8  Z   -0.000000   0.000000  -0.000000  -0.000000  -0.000000
  101  H  9  S   -0.000000  -0.150683   0.185690  -0.000000  -0.000000
  102  H  9  S   -0.000000  -0.036394   0.072762  -0.000000  -0.000000
  103  H  9  X   -0.003875   0.000000  -0.000000   0.005500  -0.005159
  104  H  9  Y   -0.000000  -0.013167   0.013224  -0.000000  -0.000000
  105  H  9  Z   -0.000000   0.000000  -0.000000  -0.000000  -0.000000
  106  H 10  S   -0.137044  -0.150683  -0.185690  -0.000000   0.194174
  107  H 10  S   -0.029724  -0.036394  -0.072762  -0.000000   0.069766
  108  H 10  X    0.014468   0.011403   0.011452  -0.002750  -0.012198
  109  H 10  Y   -0.006116  -0.006584  -0.006612  -0.004763   0.004064
  110  H 10  Z   -0.000000   0.000000  -0.000000  -0.000000  -0.000000
  111  H 11  S    0.137044  -0.150683   0.185690  -0.000000   0.194174
  112  H 11  S    0.029724  -0.036394   0.072762  -0.000000   0.069766
  113  H 11  X   -0.014468   0.011403  -0.011452  -0.002750  -0.012198
  114  H 11  Y   -0.006116   0.006584  -0.006612   0.004763  -0.004064
  115  H 11  Z   -0.000000   0.000000  -0.000000  -0.000000  -0.000000
  116  H 12  S   -0.000000  -0.150683  -0.185690  -0.000000  -0.000000
  117  H 12  S   -0.000000  -0.036394  -0.072762  -0.000000  -0.000000
  118  H 12  X    0.003875   0.000000  -0.000000   0.005500  -0.005159
  119  H 12  Y   -0.000000   0.013167   0.013224  -0.000000  -0.000000
  120  H 12  Z   -0.000000   0.000000  -0.000000  -0.000000  -0.000000

                     16         17         18         19         20
                   -0.5870    -0.5012    -0.4919    -0.4919    -0.3343
                     E1U        A2U        E2G        E2G        E1G 
    1  C  1  S   -0.000190  -0.000000  -0.001389  -0.002405  -0.000000
    2  C  1  S   -0.022629  -0.000000  -0.007282  -0.012612  -0.000000
    3  C  1  S   -0.033377  -0.000000   0.000407   0.000705  -0.000000
    4  C  1  X   -0.164381  -0.000000   0.015730  -0.230037  -0.000000
    5  C  1  Y    0.006901  -0.000000   0.248200  -0.015730  -0.000000
    6  C  1  Z   -0.000000   0.215510  -0.000000   0.000000  -0.160441
    7  C  1  X   -0.048043  -0.000000   0.007810  -0.090414  -0.000000
    8  C  1  Y    0.029993  -0.000000   0.099433  -0.007810  -0.000000
    9  C  1  Z   -0.000000   0.127678  -0.000000   0.000000  -0.129095
   10  C  1 XX   -0.012032  -0.000000   0.021105   0.004817  -0.000000
   11  C  1 YY    0.011540  -0.000000  -0.021067  -0.004751  -0.000000
   12  C  1 ZZ    0.000492  -0.000000  -0.000038  -0.000066  -0.000000
   13  C  1 XY   -0.012687  -0.000000  -0.005524  -0.030727  -0.000000
   14  C  1 XZ   -0.000000   0.013696  -0.000000   0.000000  -0.018678
   15  C  1 YZ   -0.000000  -0.007908  -0.000000   0.000000  -0.019602
   16  C  2  S    0.000190  -0.000000  -0.001389   0.002405  -0.000000
   17  C  2  S    0.022629  -0.000000  -0.007282   0.012612  -0.000000
   18  C  2  S    0.033377  -0.000000   0.000407  -0.000705  -0.000000
   19  C  2  X    0.164381  -0.000000   0.015730   0.230037  -0.000000
   20  C  2  Y    0.006901  -0.000000  -0.248200  -0.015730  -0.000000
   21  C  2  Z   -0.000000   0.215510  -0.000000   0.000000   0.160441
   22  C  2  X    0.048043  -0.000000   0.007810   0.090414  -0.000000
   23  C  2  Y    0.029993  -0.000000  -0.099433  -0.007810  -0.000000
   24  C  2  Z   -0.000000   0.127678  -0.000000   0.000000   0.129095
   25  C  2 XX    0.012032  -0.000000   0.021105  -0.004817  -0.000000
   26  C  2 YY   -0.011540  -0.000000  -0.021067   0.004751  -0.000000
   27  C  2 ZZ   -0.000492  -0.000000  -0.000038   0.000066  -0.000000
   28  C  2 XY   -0.012687  -0.000000   0.005524  -0.030727  -0.000000
   29  C  2 XZ   -0.000000   0.013696  -0.000000   0.000000   0.018678
   30  C  2 YZ   -0.000000   0.007908  -0.000000   0.000000  -0.019602
   31  C  3  S    0.000379  -0.000000   0.002777   0.000000  -0.000000
   32  C  3  S    0.045257  -0.000000   0.014563   0.000000  -0.000000
   33  C  3  S    0.066755  -0.000000  -0.000814   0.000000  -0.000000
   34  C  3  X   -0.000000  -0.000000  -0.000000  -0.257282  -0.000000
   35  C  3  Y    0.291617  -0.000000   0.220956   0.000000  -0.000000
   36  C  3  Z   -0.000000   0.215510  -0.000000   0.000000   0.320882
   37  C  3  X   -0.000000  -0.000000  -0.000000  -0.103942  -0.000000
   38  C  3  Y    0.113206  -0.000000   0.085905   0.000000  -0.000000
   39  C  3  Z   -0.000000   0.127678  -0.000000   0.000000   0.258190
   40  C  3 XX    0.007737  -0.000000   0.029334   0.000000  -0.000000
   41  C  3 YY   -0.006752  -0.000000  -0.029410   0.000000  -0.000000
   42  C  3 ZZ   -0.000985  -0.000000   0.000076   0.000000  -0.000000
   43  C  3 XY   -0.000000  -0.000000  -0.000000  -0.021159  -0.000000
   44  C  3 XZ   -0.000000  -0.000000  -0.000000   0.000000  -0.000000
   45  C  3 YZ   -0.000000   0.015815  -0.000000   0.000000   0.012750
   46  C  4  S    0.000190  -0.000000  -0.001389  -0.002405  -0.000000
   47  C  4  S    0.022629  -0.000000  -0.007282  -0.012612  -0.000000
   48  C  4  S    0.033377  -0.000000   0.000407   0.000705  -0.000000
   49  C  4  X   -0.164381  -0.000000  -0.015730   0.230037  -0.000000
   50  C  4  Y    0.006901  -0.000000  -0.248200   0.015730  -0.000000
   51  C  4  Z   -0.000000   0.215510  -0.000000   0.000000   0.160441
   52  C  4  X   -0.048043  -0.000000  -0.007810   0.090414  -0.000000
   53  C  4  Y    0.029993  -0.000000  -0.099433   0.007810  -0.000000
   54  C  4  Z   -0.000000   0.127678  -0.000000   0.000000   0.129095
   55  C  4 XX    0.012032  -0.000000   0.021105   0.004817  -0.000000
   56  C  4 YY   -0.011540  -0.000000  -0.021067  -0.004751  -0.000000
   57  C  4 ZZ   -0.000492  -0.000000  -0.000038  -0.000066  -0.000000
   58  C  4 XY    0.012687  -0.000000  -0.005524  -0.030727  -0.000000
   59  C  4 XZ   -0.000000  -0.013696  -0.000000   0.000000  -0.018678
   60  C  4 YZ   -0.000000   0.007908  -0.000000   0.000000  -0.019602
   61  C  5  S   -0.000190  -0.000000  -0.001389   0.002405  -0.000000
   62  C  5  S   -0.022629  -0.000000  -0.007282   0.012612  -0.000000
   63  C  5  S   -0.033377  -0.000000   0.000407  -0.000705  -0.000000
   64  C  5  X    0.164381  -0.000000  -0.015730  -0.230037  -0.000000
   65  C  5  Y    0.006901  -0.000000   0.248200   0.015730  -0.000000
   66  C  5  Z   -0.000000   0.215510  -0.000000   0.000000  -0.160441
   67  C  5  X    0.048043  -0.000000  -0.007810  -0.090414  -0.000000
   68  C  5  Y    0.029993  -0.000000   0.099433   0.007810  -0.000000
   69  C  5  Z   -0.000000   0.127678  -0.000000   0.000000  -0.129095
   70  C  5 XX   -0.012032  -0.000000   0.021105  -0.004817  -0.000000
   71  C  5 YY    0.011540  -0.000000  -0.021067   0.004751  -0.000000
   72  C  5 ZZ    0.000492  -0.000000  -0.000038   0.000066  -0.000000
   73  C  5 XY    0.012687  -0.000000   0.005524  -0.030727  -0.000000
   74  C  5 XZ   -0.000000  -0.013696  -0.000000   0.000000   0.018678
   75  C  5 YZ   -0.000000  -0.007908  -0.000000   0.000000  -0.019602
   76  C  6  S   -0.000379  -0.000000   0.002777   0.000000  -0.000000
   77  C  6  S   -0.045257  -0.000000   0.014563   0.000000  -0.000000
   78  C  6  S   -0.066755  -0.000000  -0.000814   0.000000  -0.000000
   79  C  6  X   -0.000000  -0.000000  -0.000000   0.257282  -0.000000
   80  C  6  Y    0.291617  -0.000000  -0.220956   0.000000  -0.000000
   81  C  6  Z   -0.000000   0.215510  -0.000000   0.000000  -0.320882
   82  C  6  X   -0.000000  -0.000000  -0.000000   0.103942  -0.000000
   83  C  6  Y    0.113206  -0.000000  -0.085905   0.000000  -0.000000
   84  C  6  Z   -0.000000   0.127678  -0.000000   0.000000  -0.258190
   85  C  6 XX   -0.007737  -0.000000   0.029334   0.000000  -0.000000
   86  C  6 YY    0.006752  -0.000000  -0.029410   0.000000  -0.000000
   87  C  6 ZZ    0.000985  -0.000000   0.000076   0.000000  -0.000000
   88  C  6 XY   -0.000000  -0.000000  -0.000000  -0.021159  -0.000000
   89  C  6 XZ   -0.000000  -0.000000  -0.000000   0.000000  -0.000000
   90  C  6 YZ   -0.000000  -0.015815  -0.000000   0.000000   0.012750
   91  H  7  S    0.112107  -0.000000   0.109805   0.190188  -0.000000
   92  H  7  S    0.040279  -0.000000   0.058154   0.100726  -0.000000
   93  H  7  X    0.004064  -0.000000   0.008066   0.005618  -0.000000
   94  H  7  Y   -0.007506  -0.000000   0.003696  -0.008066  -0.000000
   95  H  7  Z   -0.000000   0.007500  -0.000000   0.000000  -0.006102
   96  H  8  S   -0.112107  -0.000000   0.109805  -0.190188  -0.000000
   97  H  8  S   -0.040279  -0.000000   0.058154  -0.100726  -0.000000
   98  H  8  X   -0.004064  -0.000000   0.008066  -0.005618  -0.000000
   99  H  8  Y   -0.007506  -0.000000  -0.003696  -0.008066  -0.000000
  100  H  8  Z   -0.000000   0.007500  -0.000000   0.000000   0.006102
  101  H  9  S   -0.224213  -0.000000  -0.219610   0.000000  -0.000000
  102  H  9  S   -0.080559  -0.000000  -0.116309   0.000000  -0.000000
  103  H  9  X   -0.000000  -0.000000  -0.000000  -0.008353  -0.000000
  104  H  9  Y   -0.014545  -0.000000  -0.010275   0.000000  -0.000000
  105  H  9  Z   -0.000000   0.007500  -0.000000   0.000000   0.012204
  106  H 10  S   -0.112107  -0.000000   0.109805   0.190188  -0.000000
  107  H 10  S   -0.040279  -0.000000   0.058154   0.100726  -0.000000
  108  H 10  X    0.004064  -0.000000  -0.008066  -0.005618  -0.000000
  109  H 10  Y   -0.007506  -0.000000  -0.003696   0.008066  -0.000000
  110  H 10  Z   -0.000000   0.007500  -0.000000   0.000000   0.006102
  111  H 11  S    0.112107  -0.000000   0.109805  -0.190188  -0.000000
  112  H 11  S    0.040279  -0.000000   0.058154  -0.100726  -0.000000
  113  H 11  X   -0.004064  -0.000000  -0.008066   0.005618  -0.000000
  114  H 11  Y   -0.007506  -0.000000   0.003696   0.008066  -0.000000
  115  H 11  Z   -0.000000   0.007500  -0.000000   0.000000  -0.006102
  116  H 12  S    0.224213  -0.000000  -0.219610   0.000000  -0.000000
  117  H 12  S    0.080559  -0.000000  -0.116309   0.000000  -0.000000
  118  H 12  X   -0.000000  -0.000000  -0.000000   0.008353  -0.000000
  119  H 12  Y   -0.014545  -0.000000   0.010275   0.000000  -0.000000
  120  H 12  Z   -0.000000   0.007500  -0.000000   0.000000  -0.012204

                     21         22         23         24         25
                   -0.3343     0.1391     0.1391     0.1840     0.2208
                     E1G        E2U        E2U        A1G        E1U 
    1  C  1  S   -0.000000  -0.000000  -0.000000   0.022108  -0.022961
    2  C  1  S   -0.000000  -0.000000  -0.000000  -0.030662   0.016119
    3  C  1  S   -0.000000  -0.000000  -0.000000  -0.589497   0.907038
    4  C  1  X   -0.000000  -0.000000  -0.000000   0.081224  -0.120317
    5  C  1  Y   -0.000000  -0.000000  -0.000000  -0.046894   0.065587
    6  C  1  Z   -0.277892  -0.270796  -0.156344  -0.000000  -0.000000
    7  C  1  X   -0.000000  -0.000000  -0.000000   0.244884  -0.460515
    8  C  1  Y   -0.000000  -0.000000  -0.000000  -0.141384   0.379176
    9  C  1  Z   -0.223600  -0.507787  -0.293171  -0.000000  -0.000000
   10  C  1 XX   -0.000000  -0.000000  -0.000000   0.000291   0.008763
   11  C  1 YY   -0.000000  -0.000000  -0.000000  -0.005863  -0.000590
   12  C  1 ZZ   -0.000000  -0.000000  -0.000000   0.005572  -0.008174
   13  C  1 XY   -0.000000  -0.000000  -0.000000  -0.006155  -0.006816
   14  C  1 XZ   -0.001966  -0.001312   0.021976  -0.000000  -0.000000
   15  C  1 YZ    0.018678  -0.021976   0.026688  -0.000000  -0.000000
   16  C  2  S   -0.000000  -0.000000  -0.000000   0.022108  -0.022961
   17  C  2  S   -0.000000  -0.000000  -0.000000  -0.030662   0.016119
   18  C  2  S   -0.000000  -0.000000  -0.000000  -0.589497   0.907038
   19  C  2  X   -0.000000  -0.000000  -0.000000   0.081224  -0.120317
   20  C  2  Y   -0.000000  -0.000000  -0.000000   0.046894  -0.065587
   21  C  2  Z   -0.277892   0.270796  -0.156344  -0.000000  -0.000000
   22  C  2  X   -0.000000  -0.000000  -0.000000   0.244884  -0.460515
   23  C  2  Y   -0.000000  -0.000000  -0.000000   0.141384  -0.379176
   24  C  2  Z   -0.223600   0.507787  -0.293171  -0.000000  -0.000000
   25  C  2 XX   -0.000000  -0.000000  -0.000000   0.000291   0.008763
   26  C  2 YY   -0.000000  -0.000000  -0.000000  -0.005863  -0.000590
   27  C  2 ZZ   -0.000000  -0.000000  -0.000000   0.005572  -0.008174
   28  C  2 XY   -0.000000  -0.000000  -0.000000   0.006155   0.006816
   29  C  2 XZ   -0.001966   0.001312   0.021976  -0.000000  -0.000000
   30  C  2 YZ   -0.018678  -0.021976  -0.026688  -0.000000  -0.000000
   31  C  3  S   -0.000000  -0.000000  -0.000000   0.022108  -0.000000
   32  C  3  S   -0.000000  -0.000000  -0.000000  -0.030662  -0.000000
   33  C  3  S   -0.000000  -0.000000  -0.000000  -0.589497  -0.000000
   34  C  3  X   -0.000000  -0.000000  -0.000000  -0.000000  -0.006717
   35  C  3  Y   -0.000000  -0.000000  -0.000000   0.093789  -0.000000
   36  C  3  Z   -0.000000  -0.000000   0.312689  -0.000000  -0.000000
   37  C  3  X   -0.000000  -0.000000  -0.000000  -0.000000   0.196238
   38  C  3  Y   -0.000000  -0.000000  -0.000000   0.282768  -0.000000
   39  C  3  Z   -0.000000  -0.000000   0.586342  -0.000000  -0.000000
   40  C  3 XX   -0.000000  -0.000000  -0.000000  -0.008941  -0.000000
   41  C  3 YY   -0.000000  -0.000000  -0.000000   0.003368  -0.000000
   42  C  3 ZZ   -0.000000  -0.000000  -0.000000   0.005572  -0.000000
   43  C  3 XY   -0.000000  -0.000000  -0.000000  -0.000000   0.002537
   44  C  3 XZ    0.030386  -0.039376  -0.000000  -0.000000  -0.000000
   45  C  3 YZ   -0.000000  -0.000000  -0.011375  -0.000000  -0.000000
   46  C  4  S   -0.000000  -0.000000  -0.000000   0.022108   0.022961
   47  C  4  S   -0.000000  -0.000000  -0.000000  -0.030662  -0.016119
   48  C  4  S   -0.000000  -0.000000  -0.000000  -0.589497  -0.907038
   49  C  4  X   -0.000000  -0.000000  -0.000000  -0.081224  -0.120317
   50  C  4  Y   -0.000000  -0.000000  -0.000000   0.046894   0.065587
   51  C  4  Z    0.277892  -0.270796  -0.156344  -0.000000  -0.000000
   52  C  4  X   -0.000000  -0.000000  -0.000000  -0.244884  -0.460515
   53  C  4  Y   -0.000000  -0.000000  -0.000000   0.141384   0.379176
   54  C  4  Z    0.223600  -0.507787  -0.293171  -0.000000  -0.000000
   55  C  4 XX   -0.000000  -0.000000  -0.000000   0.000291  -0.008763
   56  C  4 YY   -0.000000  -0.000000  -0.000000  -0.005863   0.000590
   57  C  4 ZZ   -0.000000  -0.000000  -0.000000   0.005572   0.008174
   58  C  4 XY   -0.000000  -0.000000  -0.000000  -0.006155   0.006816
   59  C  4 XZ   -0.001966   0.001312  -0.021976  -0.000000  -0.000000
   60  C  4 YZ    0.018678   0.021976  -0.026688  -0.000000  -0.000000
   61  C  5  S   -0.000000  -0.000000  -0.000000   0.022108   0.022961
   62  C  5  S   -0.000000  -0.000000  -0.000000  -0.030662  -0.016119
   63  C  5  S   -0.000000  -0.000000  -0.000000  -0.589497  -0.907038
   64  C  5  X   -0.000000  -0.000000  -0.000000  -0.081224  -0.120317
   65  C  5  Y   -0.000000  -0.000000  -0.000000  -0.046894  -0.065587
   66  C  5  Z    0.277892   0.270796  -0.156344  -0.000000  -0.000000
   67  C  5  X   -0.000000  -0.000000  -0.000000  -0.244884  -0.460515
   68  C  5  Y   -0.000000  -0.000000  -0.000000  -0.141384  -0.379176
   69  C  5  Z    0.223600   0.507787  -0.293171  -0.000000  -0.000000
   70  C  5 XX   -0.000000  -0.000000  -0.000000   0.000291  -0.008763
   71  C  5 YY   -0.000000  -0.000000  -0.000000  -0.005863   0.000590
   72  C  5 ZZ   -0.000000  -0.000000  -0.000000   0.005572   0.008174
   73  C  5 XY   -0.000000  -0.000000  -0.000000   0.006155  -0.006816
   74  C  5 XZ   -0.001966  -0.001312  -0.021976  -0.000000  -0.000000
   75  C  5 YZ   -0.018678   0.021976   0.026688  -0.000000  -0.000000
   76  C  6  S   -0.000000  -0.000000  -0.000000   0.022108  -0.000000
   77  C  6  S   -0.000000  -0.000000  -0.000000  -0.030662  -0.000000
   78  C  6  S   -0.000000  -0.000000  -0.000000  -0.589497  -0.000000
   79  C  6  X   -0.000000  -0.000000  -0.000000  -0.000000  -0.006717
   80  C  6  Y   -0.000000  -0.000000  -0.000000  -0.093789  -0.000000
   81  C  6  Z   -0.000000  -0.000000   0.312689  -0.000000  -0.000000
   82  C  6  X   -0.000000  -0.000000  -0.000000  -0.000000   0.196238
   83  C  6  Y   -0.000000  -0.000000  -0.000000  -0.282768  -0.000000
   84  C  6  Z   -0.000000  -0.000000   0.586342  -0.000000  -0.000000
   85  C  6 XX   -0.000000  -0.000000  -0.000000  -0.008941  -0.000000
   86  C  6 YY   -0.000000  -0.000000  -0.000000   0.003368  -0.000000
   87  C  6 ZZ   -0.000000  -0.000000  -0.000000   0.005572  -0.000000
   88  C  6 XY   -0.000000  -0.000000  -0.000000  -0.000000  -0.002537
   89  C  6 XZ    0.030386   0.039376  -0.000000  -0.000000  -0.000000
   90  C  6 YZ   -0.000000  -0.000000   0.011375  -0.000000  -0.000000
   91  H  7  S   -0.000000  -0.000000  -0.000000   0.027881  -0.002366
   92  H  7  S   -0.000000  -0.000000  -0.000000   0.768416  -1.161636
   93  H  7  X   -0.000000  -0.000000  -0.000000   0.007325  -0.017045
   94  H  7  Y   -0.000000  -0.000000  -0.000000  -0.004229   0.008254
   95  H  7  Z   -0.010569  -0.014606  -0.008433  -0.000000  -0.000000
   96  H  8  S   -0.000000  -0.000000  -0.000000   0.027881  -0.002366
   97  H  8  S   -0.000000  -0.000000  -0.000000   0.768416  -1.161636
   98  H  8  X   -0.000000  -0.000000  -0.000000   0.007325  -0.017045
   99  H  8  Y   -0.000000  -0.000000  -0.000000   0.004229  -0.008254
  100  H  8  Z   -0.010569   0.014606  -0.008433  -0.000000  -0.000000
  101  H  9  S   -0.000000  -0.000000  -0.000000   0.027881  -0.000000
  102  H  9  S   -0.000000  -0.000000  -0.000000   0.768416  -0.000000
  103  H  9  X   -0.000000  -0.000000  -0.000000  -0.000000  -0.002748
  104  H  9  Y   -0.000000  -0.000000  -0.000000   0.008458  -0.000000
  105  H  9  Z   -0.000000  -0.000000   0.016866  -0.000000  -0.000000
  106  H 10  S   -0.000000  -0.000000  -0.000000   0.027881   0.002366
  107  H 10  S   -0.000000  -0.000000  -0.000000   0.768416   1.161636
  108  H 10  X   -0.000000  -0.000000  -0.000000  -0.007325  -0.017045
  109  H 10  Y   -0.000000  -0.000000  -0.000000   0.004229   0.008254
  110  H 10  Z    0.010569  -0.014606  -0.008433  -0.000000  -0.000000
  111  H 11  S   -0.000000  -0.000000  -0.000000   0.027881   0.002366
  112  H 11  S   -0.000000  -0.000000  -0.000000   0.768416   1.161636
  113  H 11  X   -0.000000  -0.000000  -0.000000  -0.007325  -0.017045
  114  H 11  Y   -0.000000  -0.000000  -0.000000  -0.004229  -0.008254
  115  H 11  Z    0.010569   0.014606  -0.008433  -0.000000  -0.000000
  116  H 12  S   -0.000000  -0.000000  -0.000000   0.027881  -0.000000
  117  H 12  S   -0.000000  -0.000000  -0.000000   0.768416  -0.000000
  118  H 12  X   -0.000000  -0.000000  -0.000000  -0.000000  -0.002748
  119  H 12  Y   -0.000000  -0.000000  -0.000000  -0.008458  -0.000000
  120  H 12  Z   -0.000000  -0.000000   0.016866  -0.000000  -0.000000

                     26         27         28         29         30
                    0.2208     0.2569     0.2569     0.2746     0.3543
                     E1U        E2G        E2G        B2U        B1G 
    1  C  1  S   -0.013257  -0.011510  -0.019935  -0.028032   0.000000
    2  C  1  S    0.009306   0.037274   0.064561  -0.124553   0.000000
    3  C  1  S    0.523679   0.497592   0.861854   1.220907   0.000000
    4  C  1  X   -0.065587  -0.025321  -0.078198   0.049327   0.000000
    5  C  1  Y    0.044584   0.048960   0.025321  -0.028479   0.000000
    6  C  1  Z    0.000000  -0.000000   0.000000  -0.000000   0.233754
    7  C  1  X   -0.379176  -0.330349  -0.791666   1.593914   0.000000
    8  C  1  Y    0.022680   0.410211   0.330349  -0.920247   0.000000
    9  C  1  Z    0.000000  -0.000000   0.000000  -0.000000   0.755287
   10  C  1 XX    0.002862  -0.002308   0.012623   0.008987   0.000000
   11  C  1 YY    0.001857   0.005107  -0.007774   0.019370   0.000000
   12  C  1 ZZ   -0.004719  -0.002799  -0.004848  -0.028357   0.000000
   13  C  1 XY   -0.005400  -0.011776  -0.009317   0.010384   0.000000
   14  C  1 XZ    0.000000  -0.000000   0.000000  -0.000000  -0.014144
   15  C  1 YZ    0.000000  -0.000000   0.000000  -0.000000   0.008166
   16  C  2  S    0.013257  -0.011510   0.019935   0.028032   0.000000
   17  C  2  S   -0.009306   0.037274  -0.064561   0.124553   0.000000
   18  C  2  S   -0.523679   0.497592  -0.861854  -1.220907   0.000000
   19  C  2  X    0.065587  -0.025321   0.078198  -0.049327   0.000000
   20  C  2  Y    0.044584  -0.048960   0.025321  -0.028479   0.000000
   21  C  2  Z    0.000000  -0.000000   0.000000  -0.000000  -0.233754
   22  C  2  X    0.379176  -0.330349   0.791666  -1.593914   0.000000
   23  C  2  Y    0.022680  -0.410211   0.330349  -0.920247   0.000000
   24  C  2  Z    0.000000  -0.000000   0.000000  -0.000000  -0.755287
   25  C  2 XX   -0.002862  -0.002308  -0.012623  -0.008987   0.000000
   26  C  2 YY   -0.001857   0.005107   0.007774  -0.019370   0.000000
   27  C  2 ZZ    0.004719  -0.002799   0.004848   0.028357   0.000000
   28  C  2 XY   -0.005400   0.011776  -0.009317   0.010384   0.000000
   29  C  2 XZ    0.000000  -0.000000   0.000000  -0.000000   0.014144
   30  C  2 YZ    0.000000  -0.000000   0.000000  -0.000000   0.008166
   31  C  3  S    0.026513   0.023019   0.000000  -0.028032   0.000000
   32  C  3  S   -0.018613  -0.074549   0.000000  -0.124553   0.000000
   33  C  3  S   -1.047357  -0.995184   0.000000   1.220907   0.000000
   34  C  3  X    0.000000  -0.000000  -0.034341  -0.000000   0.000000
   35  C  3  Y    0.158184   0.092817   0.000000   0.056958   0.000000
   36  C  3  Z    0.000000  -0.000000   0.000000  -0.000000   0.233754
   37  C  3  X    0.000000  -0.000000  -0.219484  -0.000000   0.000000
   38  C  3  Y    0.679432   0.982393   0.000000   1.840494   0.000000
   39  C  3  Z    0.000000  -0.000000   0.000000  -0.000000   0.755287
   40  C  3 XX    0.003883   0.011158   0.000000   0.024562   0.000000
   41  C  3 YY   -0.013322  -0.016756   0.000000   0.003795   0.000000
   42  C  3 ZZ    0.009438   0.005598   0.000000  -0.028357   0.000000
   43  C  3 XY    0.000000  -0.000000   0.011080  -0.000000   0.000000
   44  C  3 XZ    0.000000  -0.000000   0.000000  -0.000000   0.000000
   45  C  3 YZ    0.000000  -0.000000   0.000000  -0.000000  -0.016332
   46  C  4  S    0.013257  -0.011510  -0.019935   0.028032   0.000000
   47  C  4  S   -0.009306   0.037274   0.064561   0.124553   0.000000
   48  C  4  S   -0.523679   0.497592   0.861854  -1.220907   0.000000
   49  C  4  X   -0.065587   0.025321   0.078198   0.049327   0.000000
   50  C  4  Y    0.044584  -0.048960  -0.025321  -0.028479   0.000000
   51  C  4  Z    0.000000  -0.000000   0.000000  -0.000000  -0.233754
   52  C  4  X   -0.379176   0.330349   0.791666   1.593914   0.000000
   53  C  4  Y    0.022680  -0.410211  -0.330349  -0.920247   0.000000
   54  C  4  Z    0.000000  -0.000000   0.000000  -0.000000  -0.755287
   55  C  4 XX   -0.002862  -0.002308   0.012623  -0.008987   0.000000
   56  C  4 YY   -0.001857   0.005107  -0.007774  -0.019370   0.000000
   57  C  4 ZZ    0.004719  -0.002799  -0.004848   0.028357   0.000000
   58  C  4 XY    0.005400  -0.011776  -0.009317  -0.010384   0.000000
   59  C  4 XZ    0.000000  -0.000000   0.000000  -0.000000  -0.014144
   60  C  4 YZ    0.000000  -0.000000   0.000000  -0.000000   0.008166
   61  C  5  S   -0.013257  -0.011510   0.019935  -0.028032   0.000000
   62  C  5  S    0.009306   0.037274  -0.064561  -0.124553   0.000000
   63  C  5  S    0.523679   0.497592  -0.861854   1.220907   0.000000
   64  C  5  X    0.065587   0.025321  -0.078198  -0.049327   0.000000
   65  C  5  Y    0.044584   0.048960  -0.025321  -0.028479   0.000000
   66  C  5  Z    0.000000  -0.000000   0.000000  -0.000000   0.233754
   67  C  5  X    0.379176   0.330349  -0.791666  -1.593914   0.000000
   68  C  5  Y    0.022680   0.410211  -0.330349  -0.920247   0.000000
   69  C  5  Z    0.000000  -0.000000   0.000000  -0.000000   0.755287
   70  C  5 XX    0.002862  -0.002308  -0.012623   0.008987   0.000000
   71  C  5 YY    0.001857   0.005107   0.007774   0.019370   0.000000
   72  C  5 ZZ   -0.004719  -0.002799   0.004848  -0.028357   0.000000
   73  C  5 XY    0.005400   0.011776  -0.009317  -0.010384   0.000000
   74  C  5 XZ    0.000000  -0.000000   0.000000  -0.000000   0.014144
   75  C  5 YZ    0.000000  -0.000000   0.000000  -0.000000   0.008166
   76  C  6  S   -0.026513   0.023019   0.000000   0.028032   0.000000
   77  C  6  S    0.018613  -0.074549   0.000000   0.124553   0.000000
   78  C  6  S    1.047357  -0.995184   0.000000  -1.220907   0.000000
   79  C  6  X    0.000000  -0.000000   0.034341  -0.000000   0.000000
   80  C  6  Y    0.158184  -0.092817   0.000000   0.056958   0.000000
   81  C  6  Z    0.000000  -0.000000   0.000000  -0.000000  -0.233754
   82  C  6  X    0.000000  -0.000000   0.219484  -0.000000   0.000000
   83  C  6  Y    0.679432  -0.982393   0.000000   1.840494   0.000000
   84  C  6  Z    0.000000  -0.000000   0.000000  -0.000000  -0.755287
   85  C  6 XX   -0.003883   0.011158   0.000000  -0.024562   0.000000
   86  C  6 YY    0.013322  -0.016756   0.000000  -0.003795   0.000000
   87  C  6 ZZ   -0.009438   0.005598   0.000000   0.028357   0.000000
   88  C  6 XY    0.000000  -0.000000   0.011080  -0.000000   0.000000
   89  C  6 XZ    0.000000  -0.000000   0.000000  -0.000000   0.000000
   90  C  6 YZ    0.000000  -0.000000   0.000000  -0.000000  -0.016332
   91  H  7  S   -0.001366   0.000540   0.000936   0.035642   0.000000
   92  H  7  S   -0.670671  -0.798784  -1.383535   1.557516   0.000000
   93  H  7  X   -0.008254  -0.006287  -0.017788  -0.001631   0.000000
   94  H  7  Y    0.007514   0.010528   0.006287   0.000942   0.000000
   95  H  7  Z    0.000000  -0.000000   0.000000  -0.000000   0.019969
   96  H  8  S    0.001366   0.000540  -0.000936  -0.035642   0.000000
   97  H  8  S    0.670671  -0.798784   1.383535  -1.557516   0.000000
   98  H  8  X    0.008254  -0.006287   0.017788   0.001631   0.000000
   99  H  8  Y    0.007514  -0.010528   0.006287   0.000942   0.000000
  100  H  8  Z    0.000000  -0.000000   0.000000  -0.000000  -0.019969
  101  H  9  S    0.002732  -0.001081   0.000000   0.035642   0.000000
  102  H  9  S    1.341341   1.597569   0.000000   1.557516   0.000000
  103  H  9  X    0.000000  -0.000000  -0.006898  -0.000000   0.000000
  104  H  9  Y    0.021811   0.021418   0.000000  -0.001883   0.000000
  105  H  9  Z    0.000000  -0.000000   0.000000  -0.000000   0.019969
  106  H 10  S    0.001366   0.000540   0.000936  -0.035642   0.000000
  107  H 10  S    0.670671  -0.798784  -1.383535  -1.557516   0.000000
  108  H 10  X   -0.008254   0.006287   0.017788  -0.001631   0.000000
  109  H 10  Y    0.007514  -0.010528  -0.006287   0.000942   0.000000
  110  H 10  Z    0.000000  -0.000000   0.000000  -0.000000  -0.019969
  111  H 11  S   -0.001366   0.000540  -0.000936   0.035642   0.000000
  112  H 11  S   -0.670671  -0.798784   1.383535   1.557516   0.000000
  113  H 11  X    0.008254   0.006287  -0.017788   0.001631   0.000000
  114  H 11  Y    0.007514   0.010528  -0.006287   0.000942   0.000000
  115  H 11  Z    0.000000  -0.000000   0.000000  -0.000000   0.019969
  116  H 12  S   -0.002732  -0.001081   0.000000  -0.035642   0.000000
  117  H 12  S   -1.341341   1.597569   0.000000  -1.557516   0.000000
  118  H 12  X    0.000000  -0.000000   0.006898  -0.000000   0.000000
  119  H 12  Y    0.021811  -0.021418   0.000000  -0.001883   0.000000
  120  H 12  Z    0.000000  -0.000000   0.000000  -0.000000  -0.019969

                     31         32         33         34         35
                    0.4402     0.4402     0.4734     0.4734     0.5843
                     E2G        E2G        E1U        E1U        B1U 
    1  C  1  S    0.028288   0.048996  -0.019144   0.011053  -0.000000
    2  C  1  S   -0.026589  -0.046053   0.031599  -0.018243  -0.000000
    3  C  1  S   -1.426246  -2.470331   1.918844  -1.107845  -0.000000
    4  C  1  X   -0.068775  -0.117902   0.123524   0.040646   0.145459
    5  C  1  Y    0.038488   0.068775   0.040646   0.170457   0.251942
    6  C  1  Z   -0.000000   0.000000  -0.000000  -0.000000  -0.000000
    7  C  1  X   -1.275407  -1.057527   0.804909   0.893174  -0.240566
    8  C  1  Y   -0.415187   1.275407   0.893174   1.836258  -0.416672
    9  C  1  Z   -0.000000   0.000000  -0.000000  -0.000000  -0.000000
   10  C  1 XX    0.005776  -0.011613   0.024241  -0.025179   0.028757
   11  C  1 YY   -0.020324  -0.013586  -0.005813   0.014540  -0.028757
   12  C  1 ZZ    0.014549   0.025199  -0.018428   0.010640  -0.000000
   13  C  1 XY   -0.001139  -0.016384  -0.042968   0.017352   0.019171
   14  C  1 XZ   -0.000000   0.000000  -0.000000  -0.000000  -0.000000
   15  C  1 YZ   -0.000000   0.000000  -0.000000  -0.000000  -0.000000
   16  C  2  S    0.028288  -0.048996  -0.019144  -0.011053  -0.000000
   17  C  2  S   -0.026589   0.046053   0.031599   0.018243  -0.000000
   18  C  2  S   -1.426246   2.470331   1.918844   1.107845  -0.000000
   19  C  2  X   -0.068775   0.117902   0.123524  -0.040646   0.145459
   20  C  2  Y   -0.038488   0.068775  -0.040646   0.170457  -0.251942
   21  C  2  Z   -0.000000   0.000000  -0.000000  -0.000000  -0.000000
   22  C  2  X   -1.275407   1.057527   0.804909  -0.893174  -0.240566
   23  C  2  Y    0.415187   1.275407  -0.893174   1.836258   0.416672
   24  C  2  Z   -0.000000   0.000000  -0.000000  -0.000000  -0.000000
   25  C  2 XX    0.005776   0.011613   0.024241   0.025179   0.028757
   26  C  2 YY   -0.020324   0.013586  -0.005813  -0.014540  -0.028757
   27  C  2 ZZ    0.014549  -0.025199  -0.018428  -0.010640  -0.000000
   28  C  2 XY    0.001139  -0.016384   0.042968   0.017352  -0.019171
   29  C  2 XZ   -0.000000   0.000000  -0.000000  -0.000000  -0.000000
   30  C  2 YZ   -0.000000   0.000000  -0.000000  -0.000000  -0.000000
   31  C  3  S   -0.056575   0.000000  -0.000000  -0.022106  -0.000000
   32  C  3  S    0.053178   0.000000  -0.000000   0.036487  -0.000000
   33  C  3  S    2.852492   0.000000  -0.000000   2.215690  -0.000000
   34  C  3  X   -0.000000   0.001219   0.193924  -0.000000  -0.290918
   35  C  3  Y    0.157609   0.000000  -0.000000   0.100057  -0.000000
   36  C  3  Z   -0.000000   0.000000  -0.000000  -0.000000  -0.000000
   37  C  3  X   -0.000000   1.151544   2.351932  -0.000000   0.481131
   38  C  3  Y    1.793884   0.000000  -0.000000   0.289235  -0.000000
   39  C  3  Z   -0.000000   0.000000  -0.000000  -0.000000  -0.000000
   40  C  3 XX    0.029307   0.000000  -0.000000  -0.035248  -0.000000
   41  C  3 YY   -0.000210   0.000000  -0.000000   0.056527  -0.000000
   42  C  3 ZZ   -0.029097   0.000000  -0.000000  -0.021279  -0.000000
   43  C  3 XY   -0.000000  -0.014411  -0.012914  -0.000000  -0.038343
   44  C  3 XZ   -0.000000   0.000000  -0.000000  -0.000000  -0.000000
   45  C  3 YZ   -0.000000   0.000000  -0.000000  -0.000000  -0.000000
   46  C  4  S    0.028288   0.048996   0.019144  -0.011053  -0.000000
   47  C  4  S   -0.026589  -0.046053  -0.031599   0.018243  -0.000000
   48  C  4  S   -1.426246  -2.470331  -1.918844   1.107845  -0.000000
   49  C  4  X    0.068775   0.117902   0.123524   0.040646   0.145459
   50  C  4  Y   -0.038488  -0.068775   0.040646   0.170457   0.251942
   51  C  4  Z   -0.000000   0.000000  -0.000000  -0.000000  -0.000000
   52  C  4  X    1.275407   1.057527   0.804909   0.893174  -0.240566
   53  C  4  Y    0.415187  -1.275407   0.893174   1.836258  -0.416672
   54  C  4  Z   -0.000000   0.000000  -0.000000  -0.000000  -0.000000
   55  C  4 XX    0.005776  -0.011613  -0.024241   0.025179  -0.028757
   56  C  4 YY   -0.020324  -0.013586   0.005813  -0.014540   0.028757
[...]
             97  H  8  S      0.18210     0.24217
             98  H  8  X      0.01770     0.03438
             99  H  8  Y      0.00855     0.02140
            100  H  8  Z      0.00589     0.01822
            101  H  9  S      0.76778     0.60719
            102  H  9  S      0.18210     0.24264
            103  H  9  X      0.00398     0.01547
            104  H  9  Y      0.02228     0.04129
            105  H  9  Z      0.00589     0.01822
            106  H 10  S      0.76778     0.60125
            107  H 10  S      0.18210     0.24217
            108  H 10  X      0.01770     0.03438
            109  H 10  Y      0.00855     0.02140
            110  H 10  Z      0.00589     0.01822
            111  H 11  S      0.76778     0.60125
            112  H 11  S      0.18210     0.24217
            113  H 11  X      0.01770     0.03438
            114  H 11  Y      0.00855     0.02140
            115  H 11  Z      0.00589     0.01822
            116  H 12  S      0.76778     0.60719
            117  H 12  S      0.18210     0.24264
            118  H 12  X      0.00398     0.01547
            119  H 12  Y      0.02228     0.04129
            120  H 12  Z      0.00589     0.01822

          ----- MULLIKEN ATOMIC OVERLAP POPULATIONS -----
          (OFF-DIAGONAL ELEMENTS NEED TO BE MULTIPLIED BY 2)

             1           2           3           4           5

    1    4.6773782
    2    0.5600658   4.6773782
    3   -0.0515140   0.5600658   4.6773782
    4   -0.0386236  -0.0515140   0.5600658   4.6773782
    5   -0.0515140  -0.0386236  -0.0515140   0.5600658   4.6773782
    6    0.5600658  -0.0515140  -0.0386236  -0.0515140   0.5600658
    7    0.4223678  -0.0361628   0.0062416  -0.0004103   0.0062416
    8   -0.0361628   0.4223678  -0.0361628   0.0062416  -0.0004103
    9    0.0062416  -0.0361628   0.4223678  -0.0361628   0.0062416
   10   -0.0004103   0.0062416  -0.0361628   0.4223678  -0.0361628
   11    0.0062416  -0.0004103   0.0062416  -0.0361628   0.4223678
   12   -0.0361628   0.0062416  -0.0004103   0.0062416  -0.0361628

             6           7           8           9          10

    6    4.6773782
    7   -0.0361628   0.6389861
    8    0.0062416  -0.0093730   0.6389861
    9   -0.0004103  -0.0001860  -0.0093730   0.6389861
   10    0.0062416   0.0000435  -0.0001860  -0.0093730   0.6389861
   11   -0.0361628  -0.0001860   0.0000435  -0.0001860  -0.0093730
   12    0.4223678  -0.0093730  -0.0001860   0.0000435  -0.0001860

            11          12

   11    0.6389861
   12   -0.0093730   0.6389861

          TOTAL MULLIKEN AND LOWDIN ATOMIC POPULATIONS
       ATOM         MULL.POP.    CHARGE          LOW.POP.     CHARGE
    1 C             6.017973   -0.017973         6.083628   -0.083628
    2 C             6.017973   -0.017973         6.083628   -0.083628
    3 C             6.017973   -0.017973         6.073075   -0.073075
    4 C             6.017973   -0.017973         6.083628   -0.083628
    5 C             6.017973   -0.017973         6.083628   -0.083628
    6 C             6.017973   -0.017973         6.073075   -0.073075
    7 H             0.982027    0.017973         0.917431    0.082569
    8 H             0.982027    0.017973         0.917431    0.082569
    9 H             0.982027    0.017973         0.924806    0.075194
   10 H             0.982027    0.017973         0.917431    0.082569
   11 H             0.982027    0.017973         0.917431    0.082569
   12 H             0.982027    0.017973         0.924806    0.075194

          MULLIKEN SPHERICAL HARMONIC POPULATIONS
       ATOM           S       P       D      F      G      H      I    TOTAL
    1 C             3.09    2.84    0.08   0.00   0.00   0.00   0.00    6.02
    2 C             3.09    2.84    0.08   0.00   0.00   0.00   0.00    6.02
    3 C             3.09    2.84    0.08   0.00   0.00   0.00   0.00    6.02
    4 C             3.09    2.84    0.08   0.00   0.00   0.00   0.00    6.02
    5 C             3.09    2.84    0.08   0.00   0.00   0.00   0.00    6.02
    6 C             3.09    2.84    0.08   0.00   0.00   0.00   0.00    6.02
    7 H             0.95    0.03    0.00   0.00   0.00   0.00   0.00    0.98
    8 H             0.95    0.03    0.00   0.00   0.00   0.00   0.00    0.98
    9 H             0.95    0.03    0.00   0.00   0.00   0.00   0.00    0.98
   10 H             0.95    0.03    0.00   0.00   0.00   0.00   0.00    0.98
   11 H             0.95    0.03    0.00   0.00   0.00   0.00   0.00    0.98
   12 H             0.95    0.03    0.00   0.00   0.00   0.00   0.00    0.98

          -------------------------------
          BOND ORDER AND VALENCE ANALYSIS     BOND ORDER THRESHOLD=0.050
          -------------------------------

                   BOND                       BOND                       BOND
  ATOM PAIR DIST  ORDER      ATOM PAIR DIST  ORDER      ATOM PAIR DIST  ORDER
    1   2  1.388  1.462        1   4  2.777  0.084        1   6  1.388  1.462
    1   7  1.073  0.976        2   3  1.388  1.462        2   5  2.777  0.084
    2   8  1.073  0.976        3   4  1.388  1.462        3   6  2.777  0.084
    3   9  1.073  0.976        4   5  1.388  1.462        4  10  1.073  0.976
    5   6  1.388  1.462        5  11  1.073  0.976        6  12  1.073  0.976

                       TOTAL       BONDED        FREE
      ATOM            VALENCE     VALENCE     VALENCE
    1 C                 3.990       3.990      -0.000
    2 C                 3.990       3.990      -0.000
    3 C                 3.990       3.990       0.000
    4 C                 3.990       3.990       0.000
    5 C                 3.990       3.990      -0.000
    6 C                 3.990       3.990      -0.000
    7 H                 0.981       0.981      -0.000
    8 H                 0.981       0.981      -0.000
    9 H                 0.981       0.981      -0.000
   10 H                 0.981       0.981      -0.000
   11 H                 0.981       0.981      -0.000
   12 H                 0.981       0.981      -0.000

          ---------------------
          ELECTROSTATIC MOMENTS
          ---------------------

 POINT   1           X           Y           Z (BOHR)    CHARGE
                -0.000000   -0.000000    0.000000       -0.00 (A.U.)
         DX          DY          DZ         /D/  (DEBYE)
     0.000000   -0.000000    0.000000    0.000000
 ...... END OF PROPERTY EVALUATION ......
 STEP CPU TIME =     0.03 TOTAL CPU TIME =        2.7 (    0.0 MIN)
 TOTAL WALL CLOCK TIME=        2.7 SECONDS, CPU UTILIZATION IS  99.63%

 -----------------------------     ----------------------------------
 RHF RI-MP2 ENERGY CALCULATION     PROGRAM WRITTEN BY M.KATOUDA (IMS)
 -----------------------------     ----------------------------------
 IAUXBF=1   OTHAUX= F STOL= 1.00E-06   IVMTD=0 VTOL= 1.00E-06

        PROCESS BASED PARALLEL RI-MP2 ALGORITHM IS CHOOSEN
 (EACH AND EVERY PROCESS ALLOCATES THE REPLICATED MEMORY ARRAYS)

     AUXILIARY BASIS OPTIONS
     -----------------------
     CABNAM=CCD      EXTCAB= F

     ATOMIC AUXILIARY BASIS SET
     --------------------------
 THE CONTRACTED PRIMITIVE FUNCTIONS HAVE BEEN UNNORMALIZED
 THE CONTRACTED BASIS FUNCTIONS ARE NOW NORMALIZED TO UNITY

  SHELL TYPE  PRIMITIVE        EXPONENT          CONTRACTION COEFFICIENT(S)

 C         

      1   S       1            62.7453000   15.888979046124

      2   S       2            13.8045000    5.104175552364

      3   S       3             4.7727700    2.301378078074

      4   S       4             1.5133300    0.972434421749

      5   S       5             0.7826970    0.593069164270

      6   S       6             0.4090720    0.364552354737

      7   S       7             0.2067960    0.218557992418

      8   P       8            20.8851000   63.640822915207

      9   P       9             6.0052300   13.399918124956

     10   P      10             1.7206000    2.808923982402

     11   P      11             0.7544650    1.002279758566

     12   P      12             0.3216670    0.345301308215

     13   D      13            10.1715000   95.352747687104

     14   D      14             2.6784400    9.230023780319

     15   D      15             0.9225150    1.429265695169

     16   D      16             0.3408420    0.250251903730

     17   F      17             2.7429300   14.254027087824

     18   F      18             0.8957560    1.149162202128

 C         

     19   S      19            62.7453000   15.888979046124

     20   S      20            13.8045000    5.104175552364

     21   S      21             4.7727700    2.301378078074

     22   S      22             1.5133300    0.972434421749

     23   S      23             0.7826970    0.593069164270

     24   S      24             0.4090720    0.364552354737

     25   S      25             0.2067960    0.218557992418

     26   P      26            20.8851000   63.640822915207

     27   P      27             6.0052300   13.399918124956

     28   P      28             1.7206000    2.808923982402

     29   P      29             0.7544650    1.002279758566

     30   P      30             0.3216670    0.345301308215

     31   D      31            10.1715000   95.352747687104

     32   D      32             2.6784400    9.230023780319

     33   D      33             0.9225150    1.429265695169

     34   D      34             0.3408420    0.250251903730

     35   F      35             2.7429300   14.254027087824

     36   F      36             0.8957560    1.149162202128

 C         

     37   S      37            62.7453000   15.888979046124

     38   S      38            13.8045000    5.104175552364

     39   S      39             4.7727700    2.301378078074

     40   S      40             1.5133300    0.972434421749

     41   S      41             0.7826970    0.593069164270

     42   S      42             0.4090720    0.364552354737

     43   S      43             0.2067960    0.218557992418

     44   P      44            20.8851000   63.640822915207

     45   P      45             6.0052300   13.399918124956

     46   P      46             1.7206000    2.808923982402

     47   P      47             0.7544650    1.002279758566

     48   P      48             0.3216670    0.345301308215

     49   D      49            10.1715000   95.352747687104

     50   D      50             2.6784400    9.230023780319

     51   D      51             0.9225150    1.429265695169

     52   D      52             0.3408420    0.250251903730

     53   F      53             2.7429300   14.254027087824

     54   F      54             0.8957560    1.149162202128

 C         

     55   S      55            62.7453000   15.888979046124

     56   S      56            13.8045000    5.104175552364

     57   S      57             4.7727700    2.301378078074

     58   S      58             1.5133300    0.972434421749

     59   S      59             0.7826970    0.593069164270

     60   S      60             0.4090720    0.364552354737

     61   S      61             0.2067960    0.218557992418

     62   P      62            20.8851000   63.640822915207

     63   P      63             6.0052300   13.399918124956

     64   P      64             1.7206000    2.808923982402

     65   P      65             0.7544650    1.002279758566

     66   P      66             0.3216670    0.345301308215

     67   D      67            10.1715000   95.352747687104

     68   D      68             2.6784400    9.230023780319

     69   D      69             0.9225150    1.429265695169

     70   D      70             0.3408420    0.250251903730

     71   F      71             2.7429300   14.254027087824

     72   F      72             0.8957560    1.149162202128

 C         

     73   S      73            62.7453000   15.888979046124

     74   S      74            13.8045000    5.104175552364

     75   S      75             4.7727700    2.301378078074

     76   S      76             1.5133300    0.972434421749

     77   S      77             0.7826970    0.593069164270

     78   S      78             0.4090720    0.364552354737

     79   S      79             0.2067960    0.218557992418

     80   P      80            20.8851000   63.640822915207

     81   P      81             6.0052300   13.399918124956

     82   P      82             1.7206000    2.808923982402

     83   P      83             0.7544650    1.002279758566

     84   P      84             0.3216670    0.345301308215

     85   D      85            10.1715000   95.352747687104

     86   D      86             2.6784400    9.230023780319

     87   D      87             0.9225150    1.429265695169

     88   D      88             0.3408420    0.250251903730

     89   F      89             2.7429300   14.254027087824

     90   F      90             0.8957560    1.149162202128

 C         

     91   S      91            62.7453000   15.888979046124

     92   S      92            13.8045000    5.104175552364

     93   S      93             4.7727700    2.301378078074

     94   S      94             1.5133300    0.972434421749

     95   S      95             0.7826970    0.593069164270

     96   S      96             0.4090720    0.364552354737

     97   S      97             0.2067960    0.218557992418

     98   P      98            20.8851000   63.640822915207

     99   P      99             6.0052300   13.399918124956

    100   P     100             1.7206000    2.808923982402

    101   P     101             0.7544650    1.002279758566

    102   P     102             0.3216670    0.345301308215

    103   D     103            10.1715000   95.352747687104

    104   D     104             2.6784400    9.230023780319

    105   D     105             0.9225150    1.429265695169

    106   D     106             0.3408420    0.250251903730

    107   F     107             2.7429300   14.254027087824

    108   F     108             0.8957560    1.149162202128

 H         

    109   S     109             5.1158895    2.424381492937

    110   S     110             1.1429653    0.787834274449

    111   S     111             0.2916615    0.282858643623

    112   P     112             1.9149640    3.211004127562

    113   P     113             0.9864012    1.401222491831

    114   D     114             1.1720835    2.173135983785

 H         

    115   S     115             5.1158895    2.424381492937

    116   S     116             1.1429653    0.787834274449

    117   S     117             0.2916615    0.282858643623

    118   P     118             1.9149640    3.211004127562

    119   P     119             0.9864012    1.401222491831

    120   D     120             1.1720835    2.173135983785

 H         

    121   S     121             5.1158895    2.424381492937

    122   S     122             1.1429653    0.787834274449

    123   S     123             0.2916615    0.282858643623

    124   P     124             1.9149640    3.211004127562

    125   P     125             0.9864012    1.401222491831

    126   D     126             1.1720835    2.173135983785

 H         

    127   S     127             5.1158895    2.424381492937

    128   S     128             1.1429653    0.787834274449

    129   S     129             0.2916615    0.282858643623

    130   P     130             1.9149640    3.211004127562

    131   P     131             0.9864012    1.401222491831

    132   D     132             1.1720835    2.173135983785

 H         

    133   S     133             5.1158895    2.424381492937

    134   S     134             1.1429653    0.787834274449

    135   S     135             0.2916615    0.282858643623

    136   P     136             1.9149640    3.211004127562

    137   P     137             0.9864012    1.401222491831

    138   D     138             1.1720835    2.173135983785

 H         

    139   S     139             5.1158895    2.424381492937

    140   S     140             1.1429653    0.787834274449

    141   S     141             0.2916615    0.282858643623

    142   P     142             1.9149640    3.211004127562

    143   P     143             0.9864012    1.401222491831

    144   D     144             1.1720835    2.173135983785

 CHECKING SIZE OF OCCUPIED ORBITAL BATCH
 LV=  0 LENBAT=  15 INEED3=     1348197 INEED4=     1180566
 LV=  1 LENBAT=   8 INEED3=      801355 INEED4=      633724

 NUMBER OF OCCUPIED ORBITALS            =    21
 NUMBER OF CORRELATED OCCUPIED ORBITALS =    15
 NUMBER OF VIRTUAL ORBITALS             =    93
 NUMBER OF BASIS FUNCTIONS              =   120
 NUMBER OF BASIS SHELLS                 =    54
 NUMBER OF AUXILIARY BASIS FUNCTIONS    =   420
 NUMBER OF AUXILIARY BASIS SHELLS       =   144
 LEVEL  OF OCCUPIED ORBITAL BATCH       =     1
 LENGTH OF OCCUPIED ORBITAL BATCH       =     8
 NUMBER OF OCCUPIED ORBITAL BATCH       =     2

 USING MULTIPLE DISK FILES TO CONTAIN LARGE DATA SETS (USEDM = .FALSE.)

 SPHERICAL HARMONIC GAUSSIANS ARE EMPLOYED FOR AUXILIARY BASIS SETS

 MEMORY REQUIRED FOR 2C-2E ERI MATRIX GENERATION  =      176806 WORDS

 TIME OF 2C-2E ERI MATRIX GENERATION =          0.0

 TIME OF CHOLESKY DECOMPOSITION      =          0.0
 TIME OF INVERSE MATRIX GENERATION   =          0.0

 IVMTD=0 VTOL=0.1000E-05 NAUXBAS=   420 NAUXBASD=   420

 MEMORY REQUIRED FOR 1/3 TRANSFORMATION           =      161708 WORDS

 TIME OF 3C-2E ERI GENERATION        =          0.5
 TIME OF 1/3 INTEGRAL TRANSFORMATION =          0.1
 TIME OF 2/3 INTEGRAL TRANSFORMATION =          0.0
 TIME OF 2/3 INTEGRAL WRITE          =          0.0

 MEMORY REQUIRED FOR 2/3 TRANSFORMATION           =      527944 WORDS

 TIME OF 2/3 INTEGRAL READ           =          0.0
 TIME OF 3/3 INTEGRAL TRANSFORMATION =          0.3
 TIME OF 3/3 INTEGRAL WRITE          =          0.0

 MEMORY REQUIRED FOR 4C-2E ERI GENERATION
 AND MP2 ENERGY ACCUMULATION                      =      633729 WORDS

 TIME OF 3/3 INTEGRAL READ           =          0.0
 TIME OF TEI GENERATION              =          0.4
 TIME OF MP2 ENERGY ACCUMULATION     =          0.0

 RESULTS OF RI-MOLLER-PLESSET 2ND ORDER CORRECTION ARE
               E(0)=      -230.7220136426
               E(1)=         0.0
               E(2)=        -0.7806386155
             E(MP2)=      -231.5026522581
 SPIN-COMPONENT-SCALED MP2 RESULTS ARE
              E(2S)=        -0.5753299365
              E(2T)=        -0.2053086790
             E(2ST)=        -0.7588321502 = 6/5 * E(2S) + 1/3 * E(2T)
            SCS-MP2=      -231.4808457927
 ..... DONE WITH MP2 ENERGY .....
 STEP CPU TIME =     1.34 TOTAL CPU TIME =        4.0 (    0.1 MIN)
 TOTAL WALL CLOCK TIME=        4.0 SECONDS, CPU UTILIZATION IS  99.50%
               633877  WORDS OF DYNAMIC MEMORY USED
 EXECUTION OF GAMESS TERMINATED NORMALLY Fri Jun  2 01:38:16 2017
 DDI: 263640 bytes (0.3 MB / 0 MWords) used by master data server.

 ----------------------------------------
 CPU timing information for all processes
 ========================================
 0: 3.994 + 0.27 = 4.22
 ----------------------------------------
 ddikick.x: exited gracefully.
unset echo
----- accounting info -----
Files used on the master node compute-0-2.local were:
-rw-rw-r-- 1 sarom sarom     834 Jun  2 01:38 /scratch/c6h6-r-rimp2.F05
-rw-rw-r-- 1 sarom sarom 2290400 Jun  2 01:38 /scratch/c6h6-r-rimp2.F10
-rw-rw-r-- 1 sarom sarom 1411208 Jun  2 01:38 /scratch/c6h6-r-rimp2.F51
-rw-rw-r-- 1 sarom sarom 5107200 Jun  2 01:38 /scratch/c6h6-r-rimp2.F52
-rw-rw-r-- 1 sarom sarom 4687200 Jun  2 01:38 /scratch/c6h6-r-rimp2.F53
rm: cannot remove `/scratch/sarom': Is a directory
rm: cannot remove `/scratch/tmp': Is a directory
ls: No match.
ls: No match.
ls: No match.
Fri Jun  2 01:38:19 CDT 2017
0.144u 0.072s 0:07.33 2.8%	0+0k 8+384io 0pf+0w
Deleting shmid=3964928.
Deleting shmid=3997697.
Deleting shmid=4227074.
/opt/gridengine/default/spool/compute-0-2/active_jobs/23620.1/pe_hostfile compute-0-2.local
