----- GAMESS execution script 'rungms' -----
This job is running on host compute-3-0
under operating system Linux at Mon Nov 28 21:49:41 CST 2016
Available scratch disk space (Kbyte units) at beginning of the job is
Filesystem            1K-blocks       Used  Available Use% Mounted on
bolt.local:/export/home/sarom
                     9590469632 1552999424 7550302208  18% /home/sarom
Copying input file h3ccho-rmp2.inp to your run's scratch directory...
cp h3ccho-rmp2.inp .//h3ccho-rmp2.F05
unset echo
/home/sarom/gamessGH/ddikick.x /home/sarom/gamessGH/gamess.00.x h3ccho-rmp2 -ddi 1 1 localhost -scr ./

 Distributed Data Interface kickoff program.
 Initiating 1 compute processes on 1 nodes to run the following command:
 /home/sarom/gamessGH/gamess.00.x h3ccho-rmp2 

          ******************************************************
          *         GAMESS VERSION = 18 AUG 2016 (R1)          *
          *             FROM IOWA STATE UNIVERSITY             *
          * M.W.SCHMIDT, K.K.BALDRIDGE, J.A.BOATZ, S.T.ELBERT, *
          *   M.S.GORDON, J.H.JENSEN, S.KOSEKI, N.MATSUNAGA,   *
          *          K.A.NGUYEN, S.J.SU, T.L.WINDUS,           *
          *       TOGETHER WITH M.DUPUIS, J.A.MONTGOMERY       *
          *         J.COMPUT.CHEM.  14, 1347-1363(1993)        *
          **************** 64 BIT LINUX VERSION ****************

  SINCE 1993, STUDENTS AND POSTDOCS WORKING AT IOWA STATE UNIVERSITY
  AND ALSO IN THEIR VARIOUS JOBS AFTER LEAVING ISU HAVE MADE IMPORTANT
  CONTRIBUTIONS TO THE CODE:
     IVANA ADAMOVIC, CHRISTINE AIKENS, YURI ALEXEEV, POOJA ARORA,
     ANDREY ASADCHEV, ROB BELL, PRADIPTA BANDYOPADHYAY, JONATHAN BENTZ,
     BRETT BODE, KURT BRORSEN, CALEB CARLIN, GALINA CHABAN, WEI CHEN,
     CHEOL HO CHOI, PAUL DAY, ALBERT DEFUSCO, NUWAN DESILVA, TIM DUDLEY,
     DMITRI FEDOROV, GRAHAM FLETCHER, MARK FREITAG, KURT GLAESEMANN,
     DAN KEMP, GRANT MERRILL, NORIYUKI MINEZAWA, JONATHAN MULLIN,
     TAKESHI NAGATA, SEAN NEDD, HEATHER NETZLOFF, BOSILJKA NJEGIC, RYAN OLSON,
     MIKE PAK, SPENCER PRUITT, LUKE ROSKOP, JIM SHOEMAKER, LYUDMILA SLIPCHENKO,
     TONY SMITH, SAROM SOK LEANG, JIE SONG, TETSUYA TAKETSUGU, SIMON WEBB,
     PENG XU, SOOHAENG YOO, FEDERICO ZAHARIEV

  ADDITIONAL CODE HAS BEEN PROVIDED BY COLLABORATORS IN OTHER GROUPS:
     IOWA STATE UNIVERSITY:
          JOE IVANIC, AARON WEST, LAIMUTIS BYTAUTAS, KLAUS RUEDENBERG
     UNIVERSITY OF TOKYO: KIMIHIKO HIRAO, TAKAHITO NAKAJIMA,
          TAKAO TSUNEDA, MUNEAKI KAMIYA, SUSUMU YANAGISAWA,
          KIYOSHI YAGI, MAHITO CHIBA, SEIKEN TOKURA, NAOAKI KAWAKAMI
     UNIVERSITY OF AARHUS: FRANK JENSEN
     UNIVERSITY OF IOWA: VISVALDAS KAIRYS, HUI LI
     NATIONAL INST. OF STANDARDS AND TECHNOLOGY: WALT STEVENS, DAVID GARMER
     UNIVERSITY OF PISA: BENEDETTA MENNUCCI, JACOPO TOMASI
     UNIVERSITY OF MEMPHIS: HENRY KURTZ, PRAKASHAN KORAMBATH
     UNIVERSITY OF ALBERTA: TOBY ZENG, MARIUSZ KLOBUKOWSKI
     UNIVERSITY OF NEW ENGLAND: MARK SPACKMAN
     MIE UNIVERSITY: HIROAKI UMEDA
     NAT. INST. OF ADVANCED INDUSTRIAL SCIENCE AND TECHNOLOGY: KAZUO KITAURA
     MICHIGAN STATE UNIVERSITY:
          KAROL KOWALSKI, MARTA WLOCH, JEFFREY GOUR, JESSE LUTZ,
          WEI LI, PIOTR PIECUCH
     UNIVERSITY OF SILESIA: MONIKA MUSIAL, STANISLAW KUCHARSKI
     FACULTES UNIVERSITAIRES NOTRE-DAME DE LA PAIX:
          OLIVIER QUINET, BENOIT CHAMPAGNE
     UNIVERSITY OF CALIFORNIA - SANTA BARBARA: BERNARD KIRTMAN
     INSTITUTE FOR MOLECULAR SCIENCE:
          KAZUYA ISHIMURA, MICHIO KATOUDA, AND SHIGERU NAGASE
     UNIVERSITY OF NOTRE DAME: ANNA POMOGAEVA, DAN CHIPMAN
     KYUSHU UNIVERSITY:
          HARUYUKI NAKANO,
          FENG LONG GU, JACEK KORCHOWIEC, MARCIN MAKOWSKI, AND YURIKO AOKI,
          HIROTOSHI MORI AND EISAKU MIYOSHI
     PENNSYLVANIA STATE UNIVERSITY:
          TZVETELIN IORDANOV, CHET SWALINA, JONATHAN SKONE,
          SHARON HAMMES-SCHIFFER
     WASEDA UNIVERSITY:
          MASATO KOBAYASHI, TOMOKO AKAMA, TSUGUKI TOUMA,
          TAKESHI YOSHIKAWA, YASUHIRO IKABATA, JUNJI SEINO,
          YUYA NAKAJIMA, HIROMI NAKAI
     NANJING UNIVERSITY: SHUHUA LI
     UNIVERSITY OF NEBRASKA:
          PEIFENG SU, DEJUN SI, NANDUN THELLAMUREGE, YALI WANG, HUI LI
     UNIVERSITY OF ZURICH: ROBERTO PEVERATI, KIM BALDRIDGE
     N. COPERNICUS UNIVERSITY AND JACKSON STATE UNIVERSITY:
          MARIA BARYSZ
     UNIVERSITY OF COPENHAGEN: Jimmy Kromann, CASPER STEINMANN
     TOKYO INSTITUTE OF TECHNOLOGY: HIROYA NAKATA
     NAGOYA UNIVERSITY: YOSHIO NISHIMOTO, STEPHAN IRLE
     MOSCOW STATE UNIVERSITY: VLADIMIR MIRONOV

 EXECUTION OF GAMESS BEGUN Mon Nov 28 21:49:42 2016

            ECHO OF THE FIRST FEW INPUT CARDS -
 INPUT CARD>!  RMP2/6-31G(d) geometry optimization of acetaldehyde                          
 INPUT CARD>!  Memory is set small to force MP2 into doing passes.                          
 INPUT CARD>!  There are 53 AOs and 50 MOs, using pure 5d basis.                            
 INPUT CARD>!                                                                               
 INPUT CARD>!     NSERCH:   0  E=     -153.3382673858  R.M.S.=  0.0091343                   
 INPUT CARD>!     NSERCH:   1  E=     -153.3395338366  R.M.S.=  0.0028131                   
 INPUT CARD>!     NSERCH:   2  E=     -153.3396206088  R.M.S.=  0.0018158                   
 INPUT CARD>!     NSERCH:   3  E=     -153.3397344996  R.M.S.=  0.0005319                   
 INPUT CARD>!     NSERCH:   4  E=     -153.3397379468  R.M.S.=  0.0002182                   
 INPUT CARD>!     NSERCH:   5  E=     -153.3397386356  R.M.S.=  0.0000379                   
 INPUT CARD>!     NSERCH:   6  E=     -153.3397387174  R.M.S.=  0.0000156                   
 INPUT CARD>!     NSERCH:   7  E=     -153.3397387559  R.M.S.=  0.0000038                   
 INPUT CARD>!     NSERCH:   8  E=     -153.3397387689  R.M.S.=  0.0000007                   
 INPUT CARD>!                                                                               
 INPUT CARD>!  This run takes 27 seconds on a 2.66 GHz Cloverton ( 1 Apr 2015)              
 INPUT CARD>!  results have not changed much since 2005                                     
 INPUT CARD>!                                                                               
 INPUT CARD> $contrl scftyp=rhf runtyp=optimize mplevl=2 ispher=1 nzvar=15 coord=zmt $end   
 INPUT CARD> $system mwords=1 memddi=0 $end                                                 
 INPUT CARD> $statpt opttol=0.00001 $end                                                    
 INPUT CARD> $basis  gbasis=n31 ngauss=6 ndfunc=1 $end                                      
 INPUT CARD> $guess  guess=huckel $end                                                      
 INPUT CARD> $data                                                                          
 INPUT CARD>acetaldehyde...starting at RHF/AM1 geometry                                     
 INPUT CARD>Cs                                                                              
 INPUT CARD>                                                                                
 INPUT CARD>O                                                                               
 INPUT CARD>C 1 rCO                                                                         
 INPUT CARD>C 2 rCC  1 aCCO                                                                 
 INPUT CARD>H 3 rCHa 2 aHCHa 1  180.0                                                       
 INPUT CARD>H 3 rCHb 2 aHCHb 1  wHCCO                                                       
 INPUT CARD>H 3 rCHb 2 aHCHb 1 -wHCCO                                                       
 INPUT CARD>H 2 rCHc 3 aHCHc 4   0.0                                                        
 INPUT CARD>                                                                                
 INPUT CARD>rCO=1.2318887                                                                   
 INPUT CARD>rCC=1.4904024                                                                   
 INPUT CARD>rCHa=1.1155143                                                                  
 INPUT CARD>rCHb=1.1182753                                                                  
 INPUT CARD>rCHc=1.1139774                                                                  
 INPUT CARD>aCCO=123.22482                                                                  
 INPUT CARD>aHCHa=111.07266                                                                 
 INPUT CARD>aHCHb=109.92908                                                                 
 INPUT CARD>aHCHc=115.73159                                                                 
 INPUT CARD>wHCCO=59.39658                                                                  
 INPUT CARD> $end                                                                           
    1000000 WORDS OF MEMORY AVAILABLE

     BASIS OPTIONS
     -------------
     GBASIS=N31          IGAUSS=       6      POLAR=POPN31  
     NDFUNC=       1     NFFUNC=       0     DIFFSP=       F
     NPFUNC=       0      DIFFS=       F     BASNAM=        


     RUN TITLE
     ---------
 acetaldehyde...starting at RHF/AM1 geometry                                     

 THE POINT GROUP OF THE MOLECULE IS CS      
 THE ORDER OF THE PRINCIPAL AXIS IS     0

 YOUR FULLY SUBSTITUTED Z-MATRIX IS
 O   
 C      1   1.2318887
 C      2   1.4904024  1  123.2248
 H      3   1.1155143  2  111.0727  1  180.0000  0
 H      3   1.1182753  2  109.9291  1   59.3966  0
 H      3   1.1182753  2  109.9291  1  -59.3966  0
 H      2   1.1139774  3  115.7316  4    0.0000  0

 THE MOMENTS OF INERTIA ARE (AMU-ANGSTROM**2)
 IXX=     9.272   IYY=    49.661   IZZ=    55.632

 ATOM      ATOMIC                      COORDINATES (BOHR)
           CHARGE         X                   Y                   Z
 O           8.0    -2.1668797781        0.4445691926        0.0000000000
 C           6.0    -0.2133835297       -0.8215746480        0.0000000000
 C           6.0     2.3630366995        0.3161693922        0.0000000000
 H           1.0     3.8509956765       -1.1770523151        0.0000000000
 H           1.0     2.6133871008        1.5323575829       -1.7099615376
 H           1.0     2.6133871008        1.5323575829        1.7099615376
 H           1.0    -0.2833770092       -2.9255227520        0.0000000000

          INTERNUCLEAR DISTANCES (ANGS.)
          ------------------------------

                1 O          2 C          3 C          4 H          5 H     

   1 O       0.0000000    1.2318887 *  2.3980915 *  3.2981153    2.7475565 *
   2 C       1.2318887 *  0.0000000    1.4904024 *  2.1589876 *  2.1466340 *
   3 C       2.3980915 *  1.4904024 *  0.0000000    1.1155143 *  1.1182753 *
   4 H       3.2981153    2.1589876 *  1.1155143 *  0.0000000    1.8175174 *
   5 H       2.7475565 *  2.1466340 *  1.1182753 *  1.8175174 *  0.0000000  
   6 H       2.7475565 *  2.1466340 *  1.1182753 *  1.8175174 *  1.8097455 *
   7 H       2.0430013 *  1.1139774 *  2.2144708 *  2.3754216 *  2.9552504 *

                6 H          7 H     

   1 O       2.7475565 *  2.0430013 *
   2 C       2.1466340 *  1.1139774 *
   3 C       1.1182753 *  2.2144708 *
   4 H       1.8175174 *  2.3754216 *
   5 H       1.8097455 *  2.9552504 *
   6 H       0.0000000    2.9552504 *
   7 H       2.9552504 *  0.0000000  

  * ... LESS THAN  3.000


     ATOMIC BASIS SET
     ----------------
 THE CONTRACTED PRIMITIVE FUNCTIONS HAVE BEEN UNNORMALIZED
 THE CONTRACTED BASIS FUNCTIONS ARE NOW NORMALIZED TO UNITY

  SHELL TYPE  PRIMITIVE        EXPONENT          CONTRACTION COEFFICIENT(S)

 O         

      1   S       1          5484.6716600    0.001831074430
      1   S       2           825.2349460    0.013950172200
      1   S       3           188.0469580    0.068445078098
      1   S       4            52.9645000    0.232714335992
      1   S       5            16.8975704    0.470192897984
      1   S       6             5.7996353    0.358520852987

      2   L       7            15.5396162   -0.110777549525    0.070874268231
      2   L       8             3.5999336   -0.148026262701    0.339752839147
      2   L       9             1.0137618    1.130767015354    0.727158577316

      3   L      10             0.2700058    1.000000000000    1.000000000000

      4   D      11             0.8000000    1.000000000000

 C         

      5   S      12          3047.5248800    0.001834737132
      5   S      13           457.3695180    0.014037322813
      5   S      14           103.9486850    0.068842622264
      5   S      15            29.2101553    0.232184443216
      5   S      16             9.2866630    0.467941348435
      5   S      17             3.1639270    0.362311985337

      6   L      18             7.8682723   -0.119332419775    0.068999066591
      6   L      19             1.8812885   -0.160854151696    0.316423960957
      6   L      20             0.5442493    1.143456437840    0.744308290898

      7   L      21             0.1687145    1.000000000000    1.000000000000

      8   D      22             0.8000000    1.000000000000

 C         

      9   S      23          3047.5248800    0.001834737132
      9   S      24           457.3695180    0.014037322813
      9   S      25           103.9486850    0.068842622264
      9   S      26            29.2101553    0.232184443216
      9   S      27             9.2866630    0.467941348435
      9   S      28             3.1639270    0.362311985337

     10   L      29             7.8682723   -0.119332419775    0.068999066591
     10   L      30             1.8812885   -0.160854151696    0.316423960957
     10   L      31             0.5442493    1.143456437840    0.744308290898

     11   L      32             0.1687145    1.000000000000    1.000000000000

     12   D      33             0.8000000    1.000000000000

 H         

     13   S      34            18.7311370    0.033494604338
     13   S      35             2.8253944    0.234726953484
     13   S      36             0.6401217    0.813757326146

     14   S      37             0.1612778    1.000000000000

 H         

     17   S      38            18.7311370    0.033494604338
     17   S      39             2.8253944    0.234726953484
     17   S      40             0.6401217    0.813757326146

     18   S      41             0.1612778    1.000000000000

 H         

     19   S      42            18.7311370    0.033494604338
     19   S      43             2.8253944    0.234726953484
     19   S      44             0.6401217    0.813757326146

     20   S      45             0.1612778    1.000000000000

 TOTAL NUMBER OF BASIS SET SHELLS             =   20
 NUMBER OF CARTESIAN GAUSSIAN BASIS FUNCTIONS =   53
 NOTE: THIS RUN WILL RESTRICT THE MO VARIATION SPACE TO SPHERICAL HARMONICS.
 THE NUMBER OF ORBITALS KEPT IN THE VARIATIONAL SPACE WILL BE PRINTED LATER.
 NUMBER OF ELECTRONS                          =   24
 CHARGE OF MOLECULE                           =    0
 SPIN MULTIPLICITY                            =    1
 NUMBER OF OCCUPIED ORBITALS (ALPHA)          =   12
 NUMBER OF OCCUPIED ORBITALS (BETA )          =   12
 TOTAL NUMBER OF ATOMS                        =    7
 THE NUCLEAR REPULSION ENERGY IS       69.1236737655

     $CONTRL OPTIONS
     ---------------
 SCFTYP=RHF          RUNTYP=OPTIMIZE     EXETYP=RUN     
 MPLEVL=       2     CITYP =NONE         CCTYP =NONE         VBTYP =NONE    
 DFTTYP=NONE         TDDFT =NONE    
 MULT  =       1     ICHARG=       0     NZVAR =      15     COORD =ZMT     
 PP    =NONE         RELWFN=NONE         LOCAL =NONE         NUMGRD=       F
 ISPHER=       1     NOSYM =       0     MAXIT =      30     UNITS =ANGS    
 PLTORB=       F     MOLPLT=       F     AIMPAC=       F     FRIEND=        
 NPRINT=       7     IREST =       0     GEOM  =INPUT   
 NORMF =       0     NORMP =       0     ITOL  =      20     ICUT  =       9
 INTTYP=BEST         GRDTYP=BEST         QMTTOL= 1.0E-06

     $SYSTEM OPTIONS
     ---------------
  REPLICATED MEMORY=     1000000 WORDS (ON EVERY NODE).
 DISTRIBUTED MEMDDI=           0 MILLION WORDS IN AGGREGATE,
 MEMDDI DISTRIBUTED OVER   1 PROCESSORS IS           0 WORDS/PROCESSOR.
 TOTAL MEMORY REQUESTED ON EACH PROCESSOR=     1000000 WORDS.
 TIMLIM=      525600.00 MINUTES, OR     365.0 DAYS.
 PARALL= F  BALTYP=  DLB     KDIAG=    0  COREFL= F
 MXSEQ2=     300 MXSEQ3=     150  mem10=         0

          ----------------
          PROPERTIES INPUT
          ----------------

     MOMENTS            FIELD           POTENTIAL          DENSITY
 IEMOM =       1   IEFLD =       0   IEPOT =       0   IEDEN =       0
 WHERE =COMASS     WHERE =NUCLEI     WHERE =NUCLEI     WHERE =NUCLEI  
 OUTPUT=BOTH       OUTPUT=BOTH       OUTPUT=BOTH       OUTPUT=BOTH    
 IEMINT=       0   IEFINT=       0                     IEDINT=       0
                                                       MORB  =       0
          EXTRAPOLATION IN EFFECT
          SOSCF IN EFFECT
 ORBITAL PRINTING OPTION: NPREO=     1    53     2     1

     -------------------------------
     INTEGRAL TRANSFORMATION OPTIONS
     -------------------------------
     NWORD  =            0
     CUTOFF = 1.0E-09     MPTRAN =       0
     DIRTRF =       F     AOINTS =DUP     

          ----------------------
          INTEGRAL INPUT OPTIONS
          ----------------------
 NOPK  =       1 NORDER=       0 SCHWRZ=       T

          -----------------------
          MP2 CONTROL INFORMATION
          -----------------------
          NACORE =        3  NBCORE =        3
          LMOMP2 =        F  AOINTS = DUP     
          METHOD =        2  NWORD  =               0
          MP2PRP =        F  OSPT   = NONE    
          CUTOFF = 1.00E-09  CPHFBS = BASISAO 
          CODE   = IMS     

          NUMBER OF CORE -A-  ORBITALS =     3
          NUMBER OF CORE -B-  ORBITALS =     3
          NUMBER OF OCC. -A-  ORBITALS =    12
          NUMBER OF OCC. -B-  ORBITALS =    12
          NUMBER OF MOLECULAR ORBITALS =    53
          NUMBER OF   BASIS  FUNCTIONS =    53


   --- ENCODED Z MATRIX ---
 COORD  TYPE   I   J   K   L   M   N
    1      1    2   1
    2      1    3   2
    3      2    3   2   1
    4      1    4   3
    5      2    4   3   2
    6      3    4   3   2   1
    7      1    6   3
    8      2    6   3   2
    9      3    6   3   2   1
   10      1    5   3
   11      2    5   3   2
   12      3    5   3   2   1
   13      1    7   2
   14      2    7   2   3
   15      3    7   2   3   4

 THE DETERMINANT OF THE G MATRIX IS 10**(    -8)


                     --------------------
                     INTERNAL COORDINATES
                     --------------------

                 - - ATOMS - -         COORDINATE      COORDINATE
 NO.   TYPE    I  J  K  L  M  N        (BOHR,RAD)       (ANG,DEG)
 ----------------------------------------------------------------
   1 STRETCH   2  1                     2.3279321       1.2318887
   2 STRETCH   3  2                     2.8164521       1.4904024
   3 BEND      3  2  1                  2.1506788     123.2248200
   4 STRETCH   4  3                     2.1080164       1.1155143
   5 BEND      4  3  2                  1.9385836     111.0726600
   6 TORSION   4  3  2  1               3.1415927     180.0000000
   7 STRETCH   6  3                     2.1132339       1.1182753
   8 BEND      6  3  2                  1.9186244     109.9290800
   9 TORSION   6  3  2  1               1.0366659      59.3965800
  10 STRETCH   5  3                     2.1132339       1.1182753
  11 BEND      5  3  2                  1.9186244     109.9290800
  12 TORSION   5  3  2  1              -1.0366659     -59.3965800
  13 STRETCH   7  2                     2.1051120       1.1139774
  14 BEND      7  2  3                  2.0198973     115.7315900
  15 TORSION   7  2  3  4               0.0000000       0.0000000

     ------------------------------------------
     THE POINT GROUP IS CS , NAXIS= 0, ORDER= 2
     ------------------------------------------

 -- VARIATIONAL SPACE WILL BE RESTRICTED TO PURE SPHERICAL HARMONICS ONLY --
 AFTER EXCLUDING CONTAMINANT COMBINATIONS FROM THE CARTESIAN GAUSSIAN BASIS
 SET, THE NUMBER OF SPHERICAL HARMONICS KEPT IN THE VARIATION SPACE IS   50

     DIMENSIONS OF THE SYMMETRY SUBSPACES ARE
 A'  =   36     A'' =   14

 ..... DONE SETTING UP THE RUN .....
 STEP CPU TIME =     0.03 TOTAL CPU TIME =        0.0 (    0.0 MIN)
 TOTAL WALL CLOCK TIME=        0.0 SECONDS, CPU UTILIZATION IS 100.00%


          -----------------------------
          STATIONARY POINT LOCATION RUN
          -----------------------------

 OBTAINING INITIAL HESSIAN, HESS=GUESS   
 DIAGONAL GUESS HESSIAN IN INTERNAL COORDS IS
     1  0.5293     2  0.3965     3  0.2599     4  0.3296     5  0.2249
     6  0.2500     7  0.3278     8  0.2248     9  0.2500    10  0.3278
    11  0.2248    12  0.2500    13  0.3306    14  0.2250    15  0.2500

          PARAMETERS CONTROLLING GEOMETRY SEARCH ARE
          METHOD =QA                  UPHESS =BFGS    
          NNEG   =         0          NFRZ   =         0
          NSTEP  =        50          IFOLOW =         1
          HESS   =GUESS               RESTAR =         F
          IHREP  =         0          HSSEND =         F
          NPRT   =         0          NPUN   =         0
          OPTTOL = 1.000E-05          RMIN   = 1.500E-03
          RMAX   = 1.000E-01          RLIM   = 7.000E-02
          DXMAX  = 3.000E-01          PURIFY =         F
          MOVIE  =         F          TRUPD  =         T
          TRMAX  = 5.000E-01          TRMIN  = 5.000E-02
          ITBMAT =         5          STPT   =         F
          STSTEP = 1.000E-02          PROJCT=          T

 BEGINNING GEOMETRY SEARCH POINT NSERCH=   0 ...

 COORDINATES OF SYMMETRY UNIQUE ATOMS (ANGS)
   ATOM   CHARGE       X              Y              Z
 ------------------------------------------------------------
 O           8.0  -1.1466634804   0.2352559024   0.0000000000
 C           6.0  -0.1129177093  -0.4347586123   0.0000000000
 C           6.0   1.2504652605   0.1673096493   0.0000000000
 H           1.0   2.0378592989  -0.6228693063   0.0000000000
 H           1.0   1.3829449972   0.8108887706   0.9048727428
 H           1.0  -0.1499566662  -1.5481200825   0.0000000000
 COORDINATES OF ALL ATOMS ARE (ANGS)
   ATOM   CHARGE       X              Y              Z
 ------------------------------------------------------------
 O           8.0  -1.1466634804   0.2352559024   0.0000000000
 C           6.0  -0.1129177093  -0.4347586123   0.0000000000
 C           6.0   1.2504652605   0.1673096493   0.0000000000
 H           1.0   2.0378592989  -0.6228693063   0.0000000000
 H           1.0   1.3829449972   0.8108887706  -0.9048727428
 H           1.0   1.3829449972   0.8108887706   0.9048727428
 H           1.0  -0.1499566662  -1.5481200825   0.0000000000


                     --------------------
                     INTERNAL COORDINATES
                     --------------------

                 - - ATOMS - -         COORDINATE      COORDINATE
 NO.   TYPE    I  J  K  L  M  N        (BOHR,RAD)       (ANG,DEG)
 ----------------------------------------------------------------
   1 STRETCH   2  1                     2.3279321       1.2318887
   2 STRETCH   3  2                     2.8164521       1.4904024
   3 BEND      3  2  1                  2.1506788     123.2248200
   4 STRETCH   4  3                     2.1080164       1.1155143
   5 BEND      4  3  2                  1.9385836     111.0726600
   6 TORSION   4  3  2  1               3.1415927     180.0000000
   7 STRETCH   6  3                     2.1132339       1.1182753
   8 BEND      6  3  2                  1.9186244     109.9290800
   9 TORSION   6  3  2  1               1.0366659      59.3965800
  10 STRETCH   5  3                     2.1132339       1.1182753
  11 BEND      5  3  2                  1.9186244     109.9290800
  12 TORSION   5  3  2  1              -1.0366659     -59.3965800
  13 STRETCH   7  2                     2.1051120       1.1139774
  14 BEND      7  2  3                  2.0198973     115.7315900
  15 TORSION   7  2  3  4               0.0000000       0.0000000

 THE CURRENT FULLY SUBSTITUTED Z-MATRIX IS
 O   
 C      1   1.2318887
 C      2   1.4904024  1   123.2248200
 H      3   1.1155143  2   111.0726600  1   180.0000000  0
 H      3   1.1182753  2   109.9290800  1    59.3965800  0
 H      3   1.1182753  2   109.9290800  1   -59.3965800  0
 H      2   1.1139774  3   115.7315900  4     0.0000000  0

          ********************
          1 ELECTRON INTEGRALS
          ********************
 ...... END OF ONE-ELECTRON INTEGRALS ......
 STEP CPU TIME =     0.00 TOTAL CPU TIME =        0.0 (    0.0 MIN)
 TOTAL WALL CLOCK TIME=        0.0 SECONDS, CPU UTILIZATION IS  75.00%

          -------------
          GUESS OPTIONS
          -------------
          GUESS =HUCKEL            NORB  =       0          NORDER=       0
          MIX   =       F          PRTMO =       F          PUNMO =       F
          TOLZ  = 1.0E-08          TOLE  = 1.0E-05
          SYMDEN=       F          PURIFY=       F

 INITIAL GUESS ORBITALS GENERATED BY HUCKEL   ROUTINE.
 HUCKEL GUESS REQUIRES     27154 WORDS.

 STATISTICS FOR GENERATION OF SYMMETRY ORBITAL -Q- MATRIX
 NUMBER OF CARTESIAN ATOMIC ORBITALS=         53
 NUMBER OF SPHERICAL CONTAMINANTS DROPPED=     3
 NUMBER OF LINEARLY DEPENDENT MOS DROPPED=     0
 TOTAL NUMBER OF MOS IN VARIATION SPACE=      50

 SYMMETRIES FOR INITIAL GUESS ORBITALS FOLLOW.   BOTH SET(S).
    12 ORBITALS ARE OCCUPIED (    3 CORE ORBITALS).
     4=A'       5=A'       6=A'       7=A''      8=A'       9=A'      10=A'' 
    11=A'      12=A'      13=A''     14=A'      15=A''     16=A'      17=A'  
    18=A'      19=A'      20=A'      21=A'      22=A'  
 ...... END OF INITIAL ORBITAL SELECTION ......
 STEP CPU TIME =     0.01 TOTAL CPU TIME =        0.0 (    0.0 MIN)
 TOTAL WALL CLOCK TIME=        0.0 SECONDS, CPU UTILIZATION IS 100.00%

                    ----------------------
                    AO INTEGRAL TECHNOLOGY
                    ----------------------
     S,P,L SHELL ROTATED AXIS INTEGRALS, REPROGRAMMED BY
        KAZUYA ISHIMURA (IMS) AND JOSE SIERRA (SYNSTAR).
     S,P,D,L SHELL ROTATED AXIS INTEGRALS PROGRAMMED BY
        KAZUYA ISHIMURA (INSTITUTE FOR MOLECULAR SCIENCE).
     S,P,D,F,G SHELL TO TOTAL QUARTET ANGULAR MOMENTUM SUM 5,
        ERIC PROGRAM BY GRAHAM FLETCHER (ELORET AND NASA ADVANCED
        SUPERCOMPUTING DIVISION, AMES RESEARCH CENTER).
     S,P,D,F,G,L SHELL GENERAL RYS QUADRATURE PROGRAMMED BY
        MICHEL DUPUIS (PACIFIC NORTHWEST NATIONAL LABORATORY).

          --------------------
          2 ELECTRON INTEGRALS
          --------------------

 THE -PK- OPTION IS OFF, THE INTEGRALS ARE NOT IN SUPERMATRIX FORM.
 STORING   15000 INTEGRALS/RECORD ON DISK, USING 12 BYTES/INTEGRAL.
 TWO ELECTRON INTEGRAL EVALUATION REQUIRES   90606 WORDS OF MEMORY.
 SCHWARZ INEQUALITY OVERHEAD:      1430 INTEGRALS, T=        0.00
 II,JST,KST,LST =  1  1  1  1 NREC =         1 INTLOC =    1
 II,JST,KST,LST =  2  1  1  1 NREC =         1 INTLOC =    2
 II,JST,KST,LST =  3  1  1  1 NREC =         1 INTLOC =   34
 II,JST,KST,LST =  4  1  1  1 NREC =         1 INTLOC =  214
 II,JST,KST,LST =  5  1  1  1 NREC =         1 INTLOC = 1189
 II,JST,KST,LST =  6  1  1  1 NREC =         1 INTLOC = 2364
 II,JST,KST,LST =  7  1  1  1 NREC =         1 INTLOC = 9259
 II,JST,KST,LST =  8  1  1  1 NREC =         2 INTLOC = 6298
 II,JST,KST,LST =  9  1  1  1 NREC =         4 INTLOC = 7025
 II,JST,KST,LST = 10  1  1  1 NREC =         4 INTLOC =14193
 II,JST,KST,LST = 11  1  1  1 NREC =         7 INTLOC = 8853
 II,JST,KST,LST = 12  1  1  1 NREC =        11 INTLOC = 4495
 II,JST,KST,LST = 13  1  1  1 NREC =        19 INTLOC =  219
 II,JST,KST,LST = 14  1  1  1 NREC =        20 INTLOC =10486
 II,JST,KST,LST = 15  1  1  1 NREC =        22 INTLOC = 9326
 II,JST,KST,LST = 16  1  1  1 NREC =        22 INTLOC = 9326
 II,JST,KST,LST = 17  1  1  1 NREC =        22 INTLOC = 9326
 II,JST,KST,LST = 18  1  1  1 NREC =        26 INTLOC = 5041
 II,JST,KST,LST = 19  1  1  1 NREC =        30 INTLOC = 9210
 II,JST,KST,LST = 20  1  1  1 NREC =        33 INTLOC = 2420
 SCHWARZ INEQUALITY TEST SKIPPED         475 INTEGRAL BLOCKS.
 TOTAL NUMBER OF NONZERO TWO-ELECTRON INTEGRALS =              523500
         35 INTEGRAL RECORDS WERE STORED ON DISK FILE  8.
  ...... END OF TWO-ELECTRON INTEGRALS .....
 STEP CPU TIME =     0.09 TOTAL CPU TIME =        0.1 (    0.0 MIN)
 TOTAL WALL CLOCK TIME=        0.2 SECONDS, CPU UTILIZATION IS  54.17%

          --------------------------
                 RHF SCF CALCULATION
          --------------------------

     NUCLEAR ENERGY =        69.1236737655
     MAXIT =   30     NPUNCH=    2
     EXTRAP=T  DAMP=F  SHIFT=F  RSTRCT=F  DIIS=F  DEM=F  SOSCF=T
     DENSITY MATRIX CONV=  1.00E-06
     SOSCF WILL OPTIMIZE     456 ORBITAL ROTATIONS, SOGTOL=   0.250
     MEMORY REQUIRED FOR RHF ITERS=     52229 WORDS.

 ITER EX DEM     TOTAL ENERGY        E CHANGE  DENSITY CHANGE     ORB. GRAD
   1  0  0     -152.4543297122  -152.4543297122   0.276832337   0.000000000
          ---------------START SECOND ORDER SCF---------------
   2  1  0     -152.8412001802    -0.3868704680   0.184309215   0.079562579
   3  2  0     -152.8653950942    -0.0241949140   0.080585124   0.065249327
   4  3  0     -152.9067381447    -0.0413430505   0.011525192   0.004710741
   5  4  0     -152.9073108587    -0.0005727140   0.006140032   0.002485229
   6  5  0     -152.9073763175    -0.0000654588   0.001671040   0.000792525
   7  6  0     -152.9073817531    -0.0000054356   0.000575786   0.000180096
   8  7  0     -152.9073823978    -0.0000006447   0.000205414   0.000063817
   9  8  0     -152.9073824938    -0.0000000960   0.000064861   0.000019207
  10  9  0     -152.9073825017    -0.0000000079   0.000018173   0.000005774
  11 10  0     -152.9073825024    -0.0000000007   0.000002747   0.000001236
  12 11  0     -152.9073825025    -0.0000000000   0.000000777   0.000000212
  13 12  0     -152.9073825025    -0.0000000000   0.000000197   0.000000056

          -----------------
          DENSITY CONVERGED
          -----------------
     TIME TO FORM FOCK OPERATORS=       0.1 SECONDS (       0.0 SEC/ITER)
     TIME TO SOLVE SCF EQUATIONS=       0.0 SECONDS (       0.0 SEC/ITER)

 FINAL RHF ENERGY IS     -152.9073825025 AFTER  13 ITERATIONS

          ------------
          EIGENVECTORS
          ------------

                      1          2          3          4          5
                  -20.5638   -11.3401   -11.2463    -1.3764    -1.0186
                     A'         A'         A'         A'         A'  
    1  O  1  S    0.995865  -0.000296  -0.000003  -0.196964   0.057410
    2  O  1  S    0.022576   0.000402  -0.000217   0.432244  -0.129984
    3  O  1  X    0.001702   0.000042  -0.000091   0.110924   0.034471
    4  O  1  Y   -0.001080  -0.000054  -0.000022  -0.069900   0.007252
    5  O  1  Z   -0.000000  -0.000000   0.000000  -0.000000  -0.000000
    6  O  1  S   -0.011318  -0.001992   0.000278   0.415602  -0.147596
    7  O  1  X   -0.003137  -0.001379   0.000070   0.048783   0.015596
    8  O  1  Y    0.001779   0.001110  -0.000159  -0.028903   0.001812
    9  O  1  Z   -0.000000  -0.000000   0.000000  -0.000000  -0.000000
   10  O  1 XX   -0.000029  -0.000287   0.000046   0.008015   0.002477
   11  O  1 YY    0.000161  -0.000102   0.000084  -0.001360  -0.002776
   12  O  1 ZZ   -0.000131   0.000389  -0.000130  -0.006655   0.000299
   13  O  1 XY    0.000098   0.000362  -0.000001  -0.011013  -0.000372
   14  O  1 XZ   -0.000000  -0.000000   0.000000  -0.000000  -0.000000
   15  O  1 YZ   -0.000000  -0.000000   0.000000  -0.000000  -0.000000
   16  C  2  S    0.000125   0.996206  -0.003702  -0.111496  -0.085213
   17  C  2  S    0.000027   0.023988  -0.000611   0.213621   0.180816
   18  C  2  X   -0.000021  -0.000583  -0.000069  -0.137019   0.181530
   19  C  2  Y   -0.000103   0.000534  -0.000094   0.095142  -0.000969
   20  C  2  Z   -0.000000  -0.000000   0.000000  -0.000000  -0.000000
   21  C  2  S    0.005347  -0.009636   0.004270   0.066987   0.118737
   22  C  2  X   -0.002920  -0.002853   0.002080   0.018660   0.032208
   23  C  2  Y    0.003145   0.001289   0.000872  -0.021540  -0.013533
   24  C  2  Z   -0.000000  -0.000000   0.000000  -0.000000  -0.000000
   25  C  2 XX   -0.000318   0.000734  -0.000354   0.017120   0.007133
   26  C  2 YY    0.000119   0.000106   0.000151  -0.000609   0.002213
   27  C  2 ZZ    0.000199  -0.000840   0.000203  -0.016511  -0.009346
   28  C  2 XY    0.000496  -0.000580  -0.000275  -0.024768   0.016510
   29  C  2 XZ   -0.000000  -0.000000   0.000000  -0.000000  -0.000000
   30  C  2 YZ   -0.000000  -0.000000   0.000000  -0.000000  -0.000000
   31  C  3  S    0.000008   0.003548   0.996203  -0.018781  -0.176862
   32  C  3  S   -0.000170  -0.000262   0.025784   0.037754   0.335390
   33  C  3  X    0.000227   0.000258  -0.000218  -0.027894  -0.047823
   34  C  3  Y   -0.000005   0.000182  -0.000113  -0.005654  -0.030171
   35  C  3  Z   -0.000000  -0.000000   0.000000  -0.000000  -0.000000
   36  C  3  S   -0.000282   0.002779  -0.017813   0.018980   0.336305
   37  C  3  X    0.000544  -0.001367   0.000887  -0.005317  -0.006498
   38  C  3  Y   -0.000711  -0.001478   0.000345   0.007467  -0.008310
   39  C  3  Z   -0.000000  -0.000000   0.000000  -0.000000  -0.000000
   40  C  3 XX   -0.000196  -0.000372   0.000047   0.005252   0.001515
   41  C  3 YY    0.000262   0.000139  -0.000015  -0.003092  -0.000153
   42  C  3 ZZ   -0.000066   0.000234  -0.000032  -0.002160  -0.001362
   43  C  3 XY    0.000064  -0.000292   0.000047   0.002552   0.002670
   44  C  3 XZ   -0.000000  -0.000000   0.000000  -0.000000  -0.000000
   45  C  3 YZ   -0.000000  -0.000000   0.000000  -0.000000  -0.000000
   46  H  4  S   -0.000140  -0.000209   0.000046   0.005710   0.107683
   47  H  4  S    0.000003  -0.000007   0.002994  -0.000592   0.018694
   48  H  5  S    0.000064  -0.000156   0.000052   0.006896   0.102880
   49  H  5  S   -0.000039   0.000569   0.003023  -0.000704   0.017486
   50  H  6  S    0.000064  -0.000156   0.000052   0.006896   0.102880
   51  H  6  S   -0.000039   0.000569   0.003023  -0.000704   0.017486
   52  H  7  S   -0.000143  -0.000212  -0.000211   0.028403   0.056020
   53  H  7  S    0.000729   0.002744   0.000117  -0.010637   0.008471

                      6          7          8          9         10
                   -0.7983    -0.6661    -0.6171    -0.5992    -0.5514
                     A'         A'         A'         A''        A'  
    1  O  1  S    0.068792   0.050596  -0.047598  -0.000000  -0.010511
    2  O  1  S   -0.161723  -0.118448   0.110661  -0.000000   0.027084
    3  O  1  X    0.094938   0.364006  -0.198799  -0.000000  -0.212398
    4  O  1  Y   -0.154475   0.058948   0.371229  -0.000000   0.017558
    5  O  1  Z   -0.000000   0.000000  -0.000000   0.189881   0.000000
    6  O  1  S   -0.209826  -0.199239   0.208223  -0.000000   0.050008
    7  O  1  X    0.053049   0.209039  -0.111500  -0.000000  -0.139678
    8  O  1  Y   -0.079680   0.036691   0.223788  -0.000000   0.012433
    9  O  1  Z   -0.000000   0.000000  -0.000000   0.129509   0.000000
   10  O  1 XX   -0.000468   0.021854  -0.000429  -0.000000  -0.011053
   11  O  1 YY    0.003801  -0.014734  -0.008442  -0.000000   0.006654
   12  O  1 ZZ   -0.003333  -0.007120   0.008871  -0.000000   0.004398
   13  O  1 XY   -0.011283  -0.005293   0.021368  -0.000000   0.005355
   14  O  1 XZ   -0.000000   0.000000  -0.000000   0.015107   0.000000
   15  O  1 YZ   -0.000000   0.000000  -0.000000  -0.009325   0.000000
   16  C  2  S   -0.133658  -0.037565  -0.002850  -0.000000  -0.001682
   17  C  2  S    0.283088   0.091512  -0.002019  -0.000000  -0.004255
   18  C  2  X   -0.000250   0.017412   0.369977  -0.000000   0.058477
   19  C  2  Y   -0.190696   0.330112  -0.003314  -0.000000  -0.159919
   20  C  2  Z   -0.000000   0.000000  -0.000000   0.186294   0.000000
   21  C  2  S    0.281678   0.032958   0.064624  -0.000000   0.066512
   22  C  2  X    0.041955   0.035954   0.097104  -0.000000  -0.000254
   23  C  2  Y   -0.088617   0.104278   0.030385  -0.000000  -0.070347
   24  C  2  Z   -0.000000   0.000000  -0.000000   0.091694   0.000000
   25  C  2 XX   -0.006420   0.004827  -0.007127  -0.000000  -0.014079
   26  C  2 YY    0.018598  -0.004115   0.005353  -0.000000   0.012964
   27  C  2 ZZ   -0.012178  -0.000712   0.001773  -0.000000   0.001114
   28  C  2 XY    0.000737  -0.006346   0.014865  -0.000000   0.018747
   29  C  2 XZ   -0.000000   0.000000  -0.000000  -0.001590   0.000000
   30  C  2 YZ   -0.000000   0.000000  -0.000000   0.012853   0.000000
   31  C  3  S    0.075317   0.016706   0.012969  -0.000000  -0.000372
   32  C  3  S   -0.137679  -0.026199  -0.020685  -0.000000   0.002178
   33  C  3  X   -0.121902  -0.222475  -0.217958  -0.000000  -0.155459
   34  C  3  Y   -0.103563   0.086982  -0.175603  -0.000000   0.360594
   35  C  3  Z   -0.000000   0.000000  -0.000000   0.384857   0.000000
   36  C  3  S   -0.213073  -0.057400  -0.061835  -0.000000   0.000334
   37  C  3  X   -0.036417  -0.093547  -0.102180  -0.000000  -0.084561
   38  C  3  Y   -0.021446   0.050147  -0.087180  -0.000000   0.209753
   39  C  3  Z   -0.000000   0.000000  -0.000000   0.215913   0.000000
   40  C  3 XX    0.012434   0.008222   0.015874  -0.000000  -0.018776
   41  C  3 YY   -0.002124  -0.010789  -0.001849  -0.000000  -0.005703
   42  C  3 ZZ   -0.010310   0.002566  -0.014025  -0.000000   0.024479
   43  C  3 XY    0.010912   0.014232   0.011575  -0.000000   0.024342
   44  C  3 XZ   -0.000000   0.000000  -0.000000  -0.001176   0.000000
   45  C  3 YZ   -0.000000   0.000000  -0.000000   0.027458   0.000000
   46  H  4  S   -0.064503  -0.143922  -0.033322  -0.000000  -0.251426
   47  H  4  S   -0.022501  -0.101150  -0.019760  -0.000000  -0.212813
   48  H  5  S   -0.095331  -0.001770  -0.091202  -0.197148   0.129481
   49  H  5  S   -0.045112  -0.001454  -0.059158  -0.145106   0.104797
   50  H  6  S   -0.095331  -0.001770  -0.091202   0.197148   0.129481
   51  H  6  S   -0.045112  -0.001454  -0.059158   0.145106   0.104797
   52  H  7  S    0.205350  -0.137681   0.000390  -0.000000   0.102601
   53  H  7  S    0.089883  -0.102950   0.007779  -0.000000   0.078356

                     11         12         13         14         15
                   -0.4880    -0.4245     0.1377     0.2425     0.2553
                     A''        A'         A''        A'         A'  
    1  O  1  S   -0.000000   0.000334   0.000000  -0.007663   0.001642
    2  O  1  S   -0.000000  -0.005427   0.000000   0.017758   0.001259
    3  O  1  X   -0.000000   0.297465   0.000000   0.037841   0.010861
    4  O  1  Y   -0.000000   0.455239   0.000000   0.070970   0.044728
    5  O  1  Z    0.465350  -0.000000  -0.345841  -0.000000  -0.000000
    6  O  1  S   -0.000000   0.025548   0.000000   0.097517  -0.047196
    7  O  1  X   -0.000000   0.240519   0.000000   0.098302   0.002357
    8  O  1  Y   -0.000000   0.356306   0.000000   0.102291   0.120243
    9  O  1  Z    0.342796  -0.000000  -0.468983  -0.000000  -0.000000
   10  O  1 XX   -0.000000   0.015251   0.000000   0.003781  -0.006573
   11  O  1 YY   -0.000000  -0.014750   0.000000  -0.002156  -0.001073
   12  O  1 ZZ   -0.000000  -0.000501   0.000000  -0.001626   0.007646
   13  O  1 XY   -0.000000   0.007927   0.000000  -0.004252  -0.001193
   14  O  1 XZ    0.030944  -0.000000  -0.001432  -0.000000  -0.000000
   15  O  1 YZ   -0.020174  -0.000000  -0.000678  -0.000000  -0.000000
   16  C  2  S   -0.000000   0.003352   0.000000  -0.032663  -0.074325
   17  C  2  S   -0.000000  -0.020172   0.000000   0.087631   0.036692
   18  C  2  X   -0.000000  -0.119490   0.000000  -0.000103   0.029520
   19  C  2  Y   -0.000000  -0.164688   0.000000  -0.130066  -0.190428
   20  C  2  Z    0.257595  -0.000000   0.411350  -0.000000  -0.000000
   21  C  2  S   -0.000000   0.021395   0.000000   0.406138   1.402004
   22  C  2  X   -0.000000   0.019029   0.000000  -0.038165   0.189902
   23  C  2  Y   -0.000000  -0.060280   0.000000  -0.462075  -0.423252
   24  C  2  Z    0.193277  -0.000000   0.610181  -0.000000  -0.000000
   25  C  2 XX   -0.000000  -0.045374   0.000000   0.000677   0.005069
   26  C  2 YY   -0.000000   0.047264   0.000000   0.003051  -0.011178
   27  C  2 ZZ   -0.000000  -0.001890   0.000000  -0.003728   0.006109
   28  C  2 XY   -0.000000  -0.020545   0.000000  -0.000003  -0.014735
   29  C  2 XZ   -0.032661  -0.000000   0.026001  -0.000000  -0.000000
   30  C  2 YZ    0.015471  -0.000000  -0.019551  -0.000000  -0.000000
   31  C  3  S   -0.000000   0.030039   0.000000  -0.117174   0.079441
   32  C  3  S   -0.000000  -0.061003   0.000000   0.070173  -0.060932
   33  C  3  X   -0.000000   0.218600   0.000000   0.189100   0.089486
   34  C  3  Y   -0.000000   0.099086   0.000000  -0.001555  -0.174173
   35  C  3  Z   -0.202358  -0.000000   0.026823  -0.000000  -0.000000
   36  C  3  S   -0.000000  -0.183184   0.000000   2.121705  -1.362071
   37  C  3  X   -0.000000   0.122356   0.000000   0.615032   0.394342
   38  C  3  Y   -0.000000   0.107197   0.000000   0.134114  -0.618260
   39  C  3  Z   -0.158791  -0.000000   0.279390  -0.000000  -0.000000
   40  C  3 XX   -0.000000  -0.010396   0.000000   0.001853  -0.008481
   41  C  3 YY   -0.000000   0.005354   0.000000  -0.000957   0.000144
   42  C  3 ZZ   -0.000000   0.005042   0.000000  -0.000895   0.008337
   43  C  3 XY   -0.000000  -0.009370   0.000000   0.008296   0.011777
   44  C  3 XZ   -0.009182  -0.000000  -0.024700  -0.000000  -0.000000
   45  C  3 YZ   -0.019620  -0.000000  -0.025565  -0.000000  -0.000000
   46  H  4  S   -0.000000   0.037419   0.000000  -0.021060  -0.049967
   47  H  4  S   -0.000000   0.082593   0.000000  -1.339409  -0.488416
   48  H  5  S    0.122146   0.033195   0.093169  -0.005952   0.025213
   49  H  5  S    0.092303   0.053010   0.473933  -0.901602   0.993724
   50  H  6  S   -0.122146   0.033195  -0.093169  -0.005952   0.025213
   51  H  6  S   -0.092303   0.053010  -0.473933  -0.901602   0.993724
   52  H  7  S   -0.000000   0.180261   0.000000   0.023602  -0.055862
   53  H  7  S   -0.000000   0.223608   0.000000  -0.739805  -1.326019

                     16         17         18         19         20
                    0.3192     0.3208     0.4155     0.4441     0.7477
                     A''        A'         A'         A'         A'' 
    1  O  1  S    0.000000   0.013035  -0.080682   0.060329  -0.000000
    2  O  1  S    0.000000  -0.055691   0.076356  -0.043878  -0.000000
    3  O  1  X    0.000000  -0.083834   0.042117  -0.125767  -0.000000
    4  O  1  Y    0.000000   0.042567  -0.127570   0.001908  -0.000000
    5  O  1  Z    0.144057  -0.000000  -0.000000   0.000000   0.003839
    6  O  1  S    0.000000   0.071490   1.769300  -1.392324  -0.000000
    7  O  1  X    0.000000  -0.040605   0.485916  -0.735705  -0.000000
    8  O  1  Y    0.000000   0.100920  -0.627692   0.089886  -0.000000
    9  O  1  Z    0.231040  -0.000000  -0.000000   0.000000   0.035006
   10  O  1 XX    0.000000   0.001694   0.025494  -0.018155  -0.000000
   11  O  1 YY    0.000000  -0.001736  -0.003330  -0.007307  -0.000000
   12  O  1 ZZ    0.000000   0.000042  -0.022164   0.025463  -0.000000
   13  O  1 XY    0.000000   0.000458  -0.036841   0.024742  -0.000000
   14  O  1 XZ   -0.000065  -0.000000  -0.000000   0.000000   0.053936
   15  O  1 YZ   -0.000431  -0.000000  -0.000000   0.000000  -0.043535
   16  C  2  S    0.000000  -0.085931   0.000857  -0.083052  -0.000000
   17  C  2  S    0.000000   0.114013   0.067896   0.045449  -0.000000
   18  C  2  X    0.000000   0.046830   0.226151   0.225205  -0.000000
   19  C  2  Y    0.000000  -0.141163   0.088719   0.312922  -0.000000
   20  C  2  Z   -0.131597  -0.000000  -0.000000   0.000000   0.889856
   21  C  2  S    0.000000   1.466118  -0.296889   2.411161  -0.000000
   22  C  2  X    0.000000   0.327550   2.450234   0.075937  -0.000000
   23  C  2  Y    0.000000  -0.750626  -0.248370   1.899488  -0.000000
   24  C  2  Z   -0.557537  -0.000000  -0.000000   0.000000  -0.706173
   25  C  2 XX    0.000000  -0.014498   0.002321   0.008925  -0.000000
   26  C  2 YY    0.000000   0.013814   0.001191  -0.009200  -0.000000
   27  C  2 ZZ    0.000000   0.000684  -0.003512   0.000275  -0.000000
   28  C  2 XY    0.000000   0.017321   0.001758  -0.003354  -0.000000
   29  C  2 XZ    0.006889  -0.000000  -0.000000   0.000000  -0.007925
   30  C  2 YZ    0.007626  -0.000000  -0.000000   0.000000   0.017173
   31  C  3  S    0.000000   0.039060   0.040809   0.062659  -0.000000
   32  C  3  S    0.000000  -0.026395   0.030187   0.010205  -0.000000
   33  C  3  X    0.000000  -0.061417   0.003531   0.098306  -0.000000
   34  C  3  Y    0.000000   0.248533   0.061396   0.007062  -0.000000
   35  C  3  Z    0.348626  -0.000000  -0.000000   0.000000   0.411437
   36  C  3  S    0.000000  -0.659587  -1.483185  -1.300132  -0.000000
   37  C  3  X    0.000000  -0.198019   1.002809   1.907372  -0.000000
   38  C  3  Y    0.000000   1.406071   0.849218   0.082586  -0.000000
   39  C  3  Z    1.499830  -0.000000  -0.000000   0.000000  -0.796618
   40  C  3 XX    0.000000   0.011641  -0.004851   0.042958  -0.000000
   41  C  3 YY    0.000000  -0.000488   0.009423  -0.024904  -0.000000
   42  C  3 ZZ    0.000000  -0.011153  -0.004572  -0.018054  -0.000000
   43  C  3 XY    0.000000   0.001034   0.027530   0.010968  -0.000000
   44  C  3 XZ    0.009928  -0.000000  -0.000000   0.000000  -0.028161
   45  C  3 YZ   -0.005897  -0.000000  -0.000000   0.000000   0.065906
   46  H  4  S    0.000000   0.045272  -0.122806  -0.026444  -0.000000
   47  H  4  S    0.000000   1.654141   0.113640  -0.610085  -0.000000
   48  H  5  S    0.027343  -0.037099   0.010513  -0.096317  -0.272943
   49  H  5  S    1.519991  -0.645326  -0.127554   0.037336  -0.170782
   50  H  6  S   -0.027343  -0.037099   0.010513  -0.096317   0.272943
   51  H  6  S   -1.519991  -0.645326  -0.127554   0.037336   0.170782
   52  H  7  S    0.000000   0.006422   0.015424  -0.057990  -0.000000
   53  H  7  S    0.000000  -1.436650   0.328832   1.050834  -0.000000

                     21         22         23         24         25
                    0.7488     0.7886     0.8199     0.9155     0.9633
                     A'         A'         A''        A'         A'  
    1  O  1  S   -0.026667   0.001394  -0.000000   0.036767  -0.016344
    2  O  1  S    0.073580  -0.097051  -0.000000  -0.091118   0.102650
    3  O  1  X    0.047477  -0.221310  -0.000000  -0.194246   0.173514
    4  O  1  Y   -0.003415  -0.198336  -0.000000   0.013522  -0.276548
    5  O  1  Z   -0.000000  -0.000000   0.081562  -0.000000  -0.000000
    6  O  1  S    0.355032   0.534252  -0.000000  -0.241214  -0.681775
    7  O  1  X    0.337023   0.085668  -0.000000  -0.497612  -0.142474
    8  O  1  Y    0.001993  -0.204569  -0.000000   0.084408  -0.140693
    9  O  1  Z   -0.000000  -0.000000   0.151785  -0.000000  -0.000000
   10  O  1 XX    0.005625   0.030563  -0.000000   0.020131  -0.135535
   11  O  1 YY    0.015372  -0.013460  -0.000000   0.026148   0.041876
   12  O  1 ZZ   -0.020997  -0.017103  -0.000000  -0.046279   0.093659
   13  O  1 XY    0.016888  -0.001751  -0.000000  -0.112910   0.088955
   14  O  1 XZ   -0.000000  -0.000000   0.053968  -0.000000  -0.000000
   15  O  1 YZ   -0.000000  -0.000000  -0.006597  -0.000000  -0.000000
   16  C  2  S    0.057555  -0.028954  -0.000000  -0.018720   0.041687
   17  C  2  S    0.333462   0.036031  -0.000000   0.285188  -0.834119
   18  C  2  X    0.198892  -0.076955  -0.000000  -0.943483   0.066545
   19  C  2  Y   -0.072085  -0.134444  -0.000000  -0.087549  -0.867456
   20  C  2  Z   -0.000000  -0.000000   0.605349  -0.000000  -0.000000
   21  C  2  S   -0.918722  -0.359374  -0.000000   0.791272   1.568101
   22  C  2  X   -0.355510   0.978002  -0.000000   1.262758   0.503827
   23  C  2  Y   -0.628592   0.299376  -0.000000   1.451782   2.210483
   24  C  2  Z   -0.000000  -0.000000  -1.209152  -0.000000  -0.000000
   25  C  2 XX    0.079720  -0.076662  -0.000000  -0.023137   0.097864
   26  C  2 YY    0.025298   0.040925  -0.000000   0.034599  -0.034803
   27  C  2 ZZ   -0.105018   0.035738  -0.000000  -0.011462  -0.063061
   28  C  2 XY    0.064381  -0.014165  -0.000000   0.129990  -0.090128
   29  C  2 XZ   -0.000000  -0.000000   0.014685  -0.000000  -0.000000
   30  C  2 YZ   -0.000000  -0.000000   0.027142  -0.000000  -0.000000
   31  C  3  S   -0.016106   0.017584  -0.000000  -0.022050  -0.029443
   32  C  3  S    0.235739  -0.153337  -0.000000   0.240468   0.100245
   33  C  3  X   -0.483416   0.697226  -0.000000  -0.452997  -0.199490
   34  C  3  Y   -0.701751  -0.237692  -0.000000   0.057570   0.087179
   35  C  3  Z   -0.000000  -0.000000  -0.646718  -0.000000  -0.000000
   36  C  3  S    0.279877  -0.459059  -0.000000  -1.209510  -0.900177
   37  C  3  X    0.011653  -0.770321  -0.000000   1.327304   1.280684
   38  C  3  Y    1.055478   0.823864  -0.000000  -0.325737  -0.204123
   39  C  3  Z   -0.000000  -0.000000   1.627690  -0.000000  -0.000000
   40  C  3 XX    0.052580   0.027438  -0.000000  -0.021220  -0.060491
   41  C  3 YY    0.022376   0.037294  -0.000000  -0.043028   0.015217
   42  C  3 ZZ   -0.074957  -0.064732  -0.000000   0.064248   0.045274
   43  C  3 XY   -0.012328  -0.086293  -0.000000  -0.094632  -0.014798
   44  C  3 XZ   -0.000000  -0.000000  -0.000531  -0.000000  -0.000000
   45  C  3 YZ   -0.000000  -0.000000  -0.108788  -0.000000  -0.000000
   46  H  4  S    0.213826   0.469440  -0.000000  -0.009071  -0.211081
   47  H  4  S    0.214069   0.082516  -0.000000  -0.608341  -0.317867
   48  H  5  S   -0.190360  -0.135573   0.362077  -0.050305  -0.149663
   49  H  5  S   -0.000905  -0.040933   0.206072   0.131071  -0.070298
   50  H  6  S   -0.190360  -0.135573  -0.362077  -0.050305  -0.149663
   51  H  6  S   -0.000905  -0.040933  -0.206072   0.131071  -0.070298
   52  H  7  S    0.259814   0.211144  -0.000000   0.268127   0.015044
   53  H  7  S   -0.231004   0.172573  -0.000000   0.631099   0.956640

                     26         27         28         29         30
                    1.0084     1.0835     1.1005     1.1283     1.1783
                     A'         A'         A''        A'         A'  
    1  O  1  S    0.015304  -0.020524   0.000000   0.044541  -0.000135
    2  O  1  S   -0.154438   0.085494   0.000000  -0.189427  -0.003627
    3  O  1  X   -0.040174  -0.028533   0.000000   0.353966  -0.012559
    4  O  1  Y    0.067488  -0.003334   0.000000  -0.357496   0.002870
    5  O  1  Z    0.000000   0.000000   0.065784  -0.000000   0.000000
    6  O  1  S    0.463662   0.095901   0.000000  -0.559315  -0.084614
    7  O  1  X    0.023308   0.203588   0.000000  -0.873115  -0.037760
    8  O  1  Y    0.159144   0.004673   0.000000   0.578337  -0.101965
    9  O  1  Z    0.000000   0.000000  -0.103303  -0.000000   0.000000
   10  O  1 XX   -0.015588   0.035534   0.000000   0.011736  -0.000688
   11  O  1 YY    0.023202  -0.055313   0.000000  -0.040249  -0.018529
   12  O  1 ZZ   -0.007614   0.019780   0.000000   0.028513   0.019217
   13  O  1 XY   -0.032989   0.038452   0.000000   0.067090   0.017921
   14  O  1 XZ    0.000000   0.000000   0.000954  -0.000000   0.000000
   15  O  1 YZ    0.000000   0.000000  -0.021153  -0.000000   0.000000
   16  C  2  S   -0.027435   0.028319   0.000000   0.042334  -0.015001
   17  C  2  S   -0.807245  -1.322884   0.000000  -0.146286  -0.320524
   18  C  2  X   -0.455773  -0.021372   0.000000  -0.094382  -0.034423
   19  C  2  Y    0.160946   0.573842   0.000000   0.332099  -0.082876
   20  C  2  Z    0.000000   0.000000  -0.008230  -0.000000   0.000000
   21  C  2  S    1.864756   2.255016   0.000000   1.335538   0.628743
   22  C  2  X    1.040554   0.262092   0.000000  -0.238852   0.290956
   23  C  2  Y   -1.263331  -1.364468   0.000000   0.023433   0.373683
   24  C  2  Z    0.000000   0.000000  -0.011337  -0.000000   0.000000
   25  C  2 XX    0.061465  -0.087120   0.000000   0.062220  -0.041511
   26  C  2 YY   -0.155395   0.114428   0.000000   0.064600  -0.003592
   27  C  2 ZZ    0.093930  -0.027308   0.000000  -0.126820   0.045102
   28  C  2 XY    0.011207   0.025554   0.000000  -0.141943  -0.041477
   29  C  2 XZ    0.000000   0.000000  -0.107398  -0.000000   0.000000
   30  C  2 YZ    0.000000   0.000000  -0.065796  -0.000000   0.000000
   31  C  3  S   -0.034351  -0.020561   0.000000  -0.000284   0.056843
   32  C  3  S   -0.088387  -0.141389   0.000000   0.082173  -1.384697
   33  C  3  X    0.072547  -0.196863   0.000000   0.236843  -0.423932
   34  C  3  Y   -0.564384   0.297449   0.000000  -0.430526  -0.265095
   35  C  3  Z    0.000000   0.000000  -0.871969  -0.000000   0.000000
   36  C  3  S   -0.074575   0.155334   0.000000  -0.327378   2.226253
   37  C  3  X    0.017021   0.331365   0.000000  -0.212304   0.841306
   38  C  3  Y    1.811571  -0.016241   0.000000   0.548934   0.424418
   39  C  3  Z    0.000000   0.000000   1.240718  -0.000000   0.000000
   40  C  3 XX   -0.084386   0.036897   0.000000  -0.074738  -0.095226
   41  C  3 YY    0.095628   0.002715   0.000000  -0.039402   0.021622
   42  C  3 ZZ   -0.011242  -0.039613   0.000000   0.114140   0.073604
   43  C  3 XY    0.017324  -0.113145   0.000000   0.077464  -0.067572
   44  C  3 XZ    0.000000   0.000000   0.078398  -0.000000   0.000000
   45  C  3 YZ    0.000000   0.000000   0.199667  -0.000000   0.000000
   46  H  4  S   -0.230364   0.254802   0.000000  -0.515128   0.456784
   47  H  4  S    0.702039  -0.569438   0.000000   0.955051  -0.935357
   48  H  5  S   -0.176779  -0.289337  -0.675654   0.256822   0.546901
   49  H  5  S   -0.581192   0.182643   1.296845  -0.399522  -1.084011
   50  H  6  S   -0.176779  -0.289337   0.675654   0.256822   0.546901
   51  H  6  S   -0.581192   0.182643  -1.296845  -0.399522  -1.084011
   52  H  7  S   -0.692847   0.520651   0.000000   0.569093  -0.026860
   53  H  7  S   -0.480544  -1.826782   0.000000  -0.745404   0.171678

                     31         32         33         34         35
                    1.2056     1.2984     1.3588     1.4640     1.6612
                     A'         A''        A'         A'         A'' 
    1  O  1  S   -0.031645   0.000000  -0.001441   0.006394  -0.000000
    2  O  1  S    0.179946   0.000000   0.023648  -0.181991  -0.000000
    3  O  1  X   -0.575712   0.000000  -0.460863   0.034549  -0.000000
    4  O  1  Y    0.253564   0.000000  -0.730718   0.025970  -0.000000
    5  O  1  Z   -0.000000  -0.969241   0.000000  -0.000000  -0.076290
    6  O  1  S    0.091016   0.000000  -0.010711   0.558732  -0.000000
    7  O  1  X    0.886683   0.000000   0.821317   0.223761  -0.000000
    8  O  1  Y   -0.533370   0.000000   1.280921   0.030078  -0.000000
    9  O  1  Z   -0.000000   1.254536   0.000000  -0.000000   0.004181
   10  O  1 XX    0.033161   0.000000  -0.082579   0.090575  -0.000000
   11  O  1 YY   -0.017874   0.000000   0.101720   0.067607  -0.000000
   12  O  1 ZZ   -0.015287   0.000000  -0.019141  -0.158182  -0.000000
   13  O  1 XY   -0.011287   0.000000  -0.050620   0.046732  -0.000000
   14  O  1 XZ   -0.000000  -0.035181   0.000000  -0.000000  -0.009451
   15  O  1 YZ   -0.000000   0.038020   0.000000  -0.000000  -0.249469
   16  C  2  S   -0.022749   0.000000   0.009418   0.040772  -0.000000
   17  C  2  S   -0.316675   0.000000   0.151298   0.691647  -0.000000
   18  C  2  X    0.052282   0.000000   0.152481   0.004607  -0.000000
   19  C  2  Y   -0.018540   0.000000   0.241875  -0.064896  -0.000000
   20  C  2  Z   -0.000000   0.119542   0.000000  -0.000000   0.037854
   21  C  2  S   -0.379851   0.000000  -0.647399  -3.614041  -0.000000
   22  C  2  X   -0.031748   0.000000  -1.190433  -1.465621  -0.000000
   23  C  2  Y    0.170415   0.000000  -1.416383  -0.865834  -0.000000
   24  C  2  Z   -0.000000  -0.614422   0.000000  -0.000000  -0.018603
   25  C  2 XX   -0.120403   0.000000   0.122352  -0.038560  -0.000000
   26  C  2 YY    0.049000   0.000000  -0.113082   0.139307  -0.000000
   27  C  2 ZZ    0.071403   0.000000  -0.009270  -0.100747  -0.000000
   28  C  2 XY    0.162730   0.000000   0.060226   0.008510  -0.000000
   29  C  2 XZ   -0.000000   0.066577   0.000000  -0.000000  -0.467906
   30  C  2 YZ   -0.000000  -0.005948   0.000000  -0.000000  -0.392331
   31  C  3  S   -0.013224   0.000000   0.000867  -0.114405  -0.000000
   32  C  3  S   -0.018020   0.000000  -0.219855  -2.009889  -0.000000
   33  C  3  X    0.187972   0.000000  -0.093689   0.067861  -0.000000
   34  C  3  Y   -0.357616   0.000000   0.159523   0.093677  -0.000000
   35  C  3  Z   -0.000000  -0.119367   0.000000  -0.000000   0.158053
   36  C  3  S    0.155389   0.000000   1.500647   6.064963  -0.000000
   37  C  3  X   -0.118441   0.000000  -0.422738  -1.109321  -0.000000
   38  C  3  Y    0.113099   0.000000  -0.454129  -0.625983  -0.000000
   39  C  3  Z   -0.000000   0.459460   0.000000  -0.000000   0.024252
   40  C  3 XX   -0.001947   0.000000   0.039761   0.071155  -0.000000
   41  C  3 YY   -0.148041   0.000000  -0.009140  -0.019080  -0.000000
   42  C  3 ZZ    0.149988   0.000000  -0.030621  -0.052075  -0.000000
   43  C  3 XY    0.045144   0.000000   0.044372   0.040979  -0.000000
   44  C  3 XZ   -0.000000   0.013052   0.000000  -0.000000   0.600996
   45  C  3 YZ   -0.000000   0.020532   0.000000  -0.000000  -0.109347
   46  H  4  S   -0.630570   0.000000   0.009586  -0.526560  -0.000000
   47  H  4  S    0.659033   0.000000  -0.241957  -0.667357  -0.000000
   48  H  5  S    0.181547  -0.034416   0.013783  -0.528298   0.154904
   49  H  5  S   -0.281126   0.259726   0.033235  -0.485933  -0.112207
   50  H  6  S    0.181547   0.034416   0.013783  -0.528298  -0.154904
   51  H  6  S   -0.281126  -0.259726   0.033235  -0.485933   0.112207
   52  H  7  S    0.337276   0.000000  -0.097681   0.051058  -0.000000
   53  H  7  S   -0.134372   0.000000  -0.652289  -0.021395  -0.000000

                     36         37         38         39         40
                    1.7880     1.8616     2.0031     2.1033     2.1039
                     A''        A'         A'         A'         A'' 
    1  O  1  S   -0.000000   0.039378   0.012452   0.006799  -0.000000
    2  O  1  S   -0.000000  -1.613674   0.086987   0.103596  -0.000000
    3  O  1  X   -0.000000  -0.143369  -0.211933  -0.212348  -0.000000
    4  O  1  Y   -0.000000   0.104672   0.050399  -0.158255  -0.000000
    5  O  1  Z   -0.145465   0.000000   0.000000   0.000000   0.058538
    6  O  1  S   -0.000000   3.504362  -0.706402  -0.581663  -0.000000
    7  O  1  X   -0.000000   1.063023   0.020130   0.066029  -0.000000
    8  O  1  Y   -0.000000  -0.705976   0.122294   0.366347  -0.000000
    9  O  1  Z   -0.094138   0.000000   0.000000   0.000000  -0.089897
   10  O  1 XX   -0.000000  -0.116563   0.014487   0.542982  -0.000000
   11  O  1 YY   -0.000000   0.050812  -0.438118  -0.140302  -0.000000
   12  O  1 ZZ   -0.000000   0.065751   0.423630  -0.402680  -0.000000
   13  O  1 XY   -0.000000   0.155093  -0.197600   0.405173  -0.000000
   14  O  1 XZ    0.498315   0.000000   0.000000   0.000000   0.345519
   15  O  1 YZ   -0.108279   0.000000   0.000000   0.000000   0.795175
   16  C  2  S   -0.000000  -0.015589   0.016811  -0.026365  -0.000000
   17  C  2  S   -0.000000  -0.075612   0.448075   0.008858  -0.000000
   18  C  2  X   -0.000000   0.078742  -0.002454  -0.039678  -0.000000
   19  C  2  Y   -0.000000  -0.008260   0.046525  -0.110242  -0.000000
   20  C  2  Z   -0.193414   0.000000   0.000000   0.000000   0.062622
   21  C  2  S   -0.000000  -1.625679  -1.168630   0.872984  -0.000000
   22  C  2  X   -0.000000   1.350096  -1.158397  -0.394982  -0.000000
   23  C  2  Y   -0.000000  -0.763784   0.433635  -0.081081  -0.000000
   24  C  2  Z    0.101487   0.000000   0.000000   0.000000   0.197904
   25  C  2 XX   -0.000000  -0.049466  -0.035938  -0.222983  -0.000000
   26  C  2 YY   -0.000000   0.073252  -0.189051   0.441539  -0.000000
   27  C  2 ZZ   -0.000000  -0.023786   0.224989  -0.218556  -0.000000
   28  C  2 XY   -0.000000   0.245893  -0.350155  -0.194193  -0.000000
   29  C  2 XZ   -0.361974   0.000000   0.000000   0.000000   0.151015
   30  C  2 YZ    0.605380   0.000000   0.000000   0.000000  -0.018927
   31  C  3  S   -0.000000   0.014853  -0.042630   0.003932  -0.000000
   32  C  3  S   -0.000000   0.208059  -0.213782   0.525102  -0.000000
   33  C  3  X   -0.000000  -0.056870  -0.171048  -0.224750  -0.000000
   34  C  3  Y   -0.000000   0.063349   0.031233  -0.034876  -0.000000
   35  C  3  Z    0.022828   0.000000   0.000000   0.000000   0.055248
   36  C  3  S   -0.000000  -0.644183   1.513748  -0.756786  -0.000000
   37  C  3  X   -0.000000   0.125891  -0.193405   0.427197  -0.000000
   38  C  3  Y   -0.000000  -0.017982  -0.547347  -0.201047  -0.000000
   39  C  3  Z    0.119525   0.000000   0.000000   0.000000  -0.316376
   40  C  3 XX   -0.000000  -0.037506  -0.427879  -0.215693  -0.000000
   41  C  3 YY   -0.000000   0.248224   0.605650   0.276769  -0.000000
   42  C  3 ZZ   -0.000000  -0.210718  -0.177771  -0.061076  -0.000000
   43  C  3 XY   -0.000000   0.069098   0.175760  -0.106196  -0.000000
   44  C  3 XZ    0.017852   0.000000   0.000000   0.000000   0.484206
   45  C  3 YZ    0.114383   0.000000   0.000000   0.000000  -0.061096
   46  H  4  S   -0.000000   0.046012  -0.151946  -0.100199  -0.000000
   47  H  4  S   -0.000000  -0.138895  -0.200526  -0.054666  -0.000000
   48  H  5  S    0.077336   0.088807  -0.174442   0.051175  -0.046471
   49  H  5  S    0.071589   0.155097   0.010581   0.180836  -0.097024
   50  H  6  S   -0.077336   0.088807  -0.174442   0.051175   0.046471
   51  H  6  S   -0.071589   0.155097   0.010581   0.180836   0.097024
   52  H  7  S   -0.000000   0.060906   0.355227  -0.515082  -0.000000
   53  H  7  S   -0.000000  -0.110788   0.265722  -0.009089  -0.000000

                     41         42         43         44         45
                    2.1476     2.3422     2.4362     2.5167     2.5433
                     A'         A'         A''        A'         A'' 
    1  O  1  S    0.011387   0.001238  -0.000000  -0.001617  -0.000000
    2  O  1  S    0.455482   0.167752  -0.000000   0.177522  -0.000000
    3  O  1  X   -0.071195  -0.048073  -0.000000   0.063166  -0.000000
    4  O  1  Y    0.222622  -0.015895  -0.000000   0.026067  -0.000000
    5  O  1  Z   -0.000000  -0.000000  -0.029994  -0.000000   0.063897
    6  O  1  S   -1.858034  -0.574632  -0.000000  -0.595849  -0.000000
    7  O  1  X   -0.666290  -0.126379  -0.000000  -0.295414  -0.000000
    8  O  1  Y   -0.070688   0.167006  -0.000000  -0.125063  -0.000000
    9  O  1  Z   -0.000000  -0.000000   0.083016  -0.000000  -0.215207
   10  O  1 XX    0.020368   0.034732  -0.000000  -0.319590  -0.000000
   11  O  1 YY    0.381959  -0.466732  -0.000000   0.463448  -0.000000
   12  O  1 ZZ   -0.402327   0.431999  -0.000000  -0.143858  -0.000000
   13  O  1 XY    0.074899  -0.229460  -0.000000  -0.168461  -0.000000
   14  O  1 XZ   -0.000000  -0.000000   0.152714  -0.000000  -0.512657
   15  O  1 YZ   -0.000000  -0.000000   0.311034  -0.000000  -0.010182
   16  C  2  S   -0.022670  -0.013086  -0.000000  -0.018045  -0.000000
   17  C  2  S   -0.439537  -0.342120  -0.000000   0.069781  -0.000000
   18  C  2  X   -0.257096  -0.206644  -0.000000   0.260483  -0.000000
   19  C  2  Y    0.020571  -0.160275  -0.000000   0.105070  -0.000000
   20  C  2  Z   -0.000000  -0.000000   0.036210  -0.000000   0.157898
   21  C  2  S    2.036763   0.773176  -0.000000   0.706388  -0.000000
   22  C  2  X    0.064954  -0.141956  -0.000000   0.040513  -0.000000
   23  C  2  Y    1.820159   0.046817  -0.000000   0.871632  -0.000000
   24  C  2  Z   -0.000000  -0.000000  -0.330551  -0.000000   0.167311
   25  C  2 XX    0.470540   0.135836  -0.000000  -0.080727  -0.000000
   26  C  2 YY   -0.156269   0.455692  -0.000000   0.034582  -0.000000
   27  C  2 ZZ   -0.314271  -0.591528  -0.000000   0.046145  -0.000000
   28  C  2 XY   -0.010832   0.120692  -0.000000  -0.047074  -0.000000
   29  C  2 XZ   -0.000000  -0.000000  -0.440064  -0.000000   0.146438
   30  C  2 YZ   -0.000000  -0.000000  -0.474293  -0.000000   0.466552
   31  C  3  S    0.042027   0.011173  -0.000000   0.011803  -0.000000
   32  C  3  S    0.028761  -0.137721  -0.000000   0.125294  -0.000000
   33  C  3  X    0.162395   0.119318  -0.000000   0.090176  -0.000000
   34  C  3  Y    0.144644  -0.040202  -0.000000  -0.072166  -0.000000
   35  C  3  Z   -0.000000  -0.000000   0.083773  -0.000000   0.075721
   36  C  3  S   -1.349738  -0.012114  -0.000000  -0.657730  -0.000000
   37  C  3  X    0.637203  -0.042210  -0.000000   0.681402  -0.000000
   38  C  3  Y   -0.382266  -0.239522  -0.000000  -0.366175  -0.000000
   39  C  3  Z   -0.000000  -0.000000   0.658959  -0.000000   0.084209
   40  C  3 XX   -0.105530   0.494381  -0.000000   0.008725  -0.000000
   41  C  3 YY    0.457542   0.041460  -0.000000   0.459008  -0.000000
   42  C  3 ZZ   -0.352012  -0.535841  -0.000000  -0.467733  -0.000000
   43  C  3 XY    0.449850  -0.017619  -0.000000  -0.826816  -0.000000
   44  C  3 XZ   -0.000000  -0.000000  -0.449840  -0.000000   0.499436
   45  C  3 YZ   -0.000000  -0.000000   0.698481  -0.000000   0.771548
   46  H  4  S    0.162432  -0.216996  -0.000000  -0.713838  -0.000000
   47  H  4  S   -0.166130   0.006791  -0.000000   0.032802  -0.000000
   48  H  5  S    0.196771   0.282384   0.466396   0.252214   0.444086
   49  H  5  S    0.051536  -0.059879   0.069385  -0.000689  -0.133290
   50  H  6  S    0.196771   0.282384  -0.466396   0.252214  -0.444086
   51  H  6  S    0.051536  -0.059879  -0.069385  -0.000689   0.133290
   52  H  7  S    0.362989  -0.413310  -0.000000   0.134139  -0.000000
   53  H  7  S    0.420216  -0.027493  -0.000000   0.266239  -0.000000

                     46         47         48         49         50
                    2.6538     2.8753     2.9230     3.1960     3.2987
                     A'         A'         A''        A'         A'  
    1  O  1  S    0.033849  -0.017867  -0.000000  -0.009416  -0.061146
    2  O  1  S   -0.484456   0.489050  -0.000000  -0.282025  -0.674298
    3  O  1  X   -0.392115   0.293067  -0.000000   0.017832   0.233893
    4  O  1  Y    0.295748  -0.142582  -0.000000   0.037227  -0.170237
    5  O  1  Z    0.000000   0.000000   0.005318   0.000000  -0.000000
    6  O  1  S    0.076576  -0.615543  -0.000000   0.841910   2.928752
    7  O  1  X    0.076556  -0.461809  -0.000000   0.575448   1.414029
    8  O  1  Y   -0.308325   0.007947  -0.000000   0.058046  -0.970782
    9  O  1  Z    0.000000   0.000000   0.420599   0.000000  -0.000000
   10  O  1 XX   -0.222177  -0.216922  -0.000000   0.806330   0.662877
   11  O  1 YY    0.208666   0.034101  -0.000000  -0.645648   0.044055
   12  O  1 ZZ    0.013511   0.182822  -0.000000  -0.160682  -0.706932
   13  O  1 XY   -0.300758  -0.095178  -0.000000   0.060205  -1.167940
   14  O  1 XZ    0.000000   0.000000   0.766746   0.000000  -0.000000
   15  O  1 YZ    0.000000   0.000000  -0.554539   0.000000  -0.000000
   16  C  2  S   -0.075159  -0.035192  -0.000000  -0.038355  -0.014243
   17  C  2  S   -0.242520   0.052405  -0.000000  -0.262915  -1.223619
   18  C  2  X    0.169889   0.244358  -0.000000   0.382874   1.030711
   19  C  2  Y    0.145680   0.113917  -0.000000  -0.141019  -0.686140
   20  C  2  Z    0.000000   0.000000  -0.205674   0.000000  -0.000000
   21  C  2  S    1.251247   1.544738  -0.000000   0.226571  -1.643402
   22  C  2  X    0.460715   0.732205  -0.000000   0.315249   0.646663
   23  C  2  Y    0.327637   0.679078  -0.000000  -0.422513  -0.517536
   24  C  2  Z    0.000000   0.000000  -0.266920   0.000000  -0.000000
   25  C  2 XX    0.458998  -0.028721  -0.000000   0.909896  -0.654378
   26  C  2 YY    0.262605   0.393005  -0.000000  -0.824204   0.204253
   27  C  2 ZZ   -0.721603  -0.364284  -0.000000  -0.085692   0.450125
   28  C  2 XY   -0.541005   0.819817  -0.000000   0.514987   0.490749
   29  C  2 XZ    0.000000   0.000000   0.850045   0.000000  -0.000000
   30  C  2 YZ    0.000000   0.000000  -0.428932   0.000000  -0.000000
   31  C  3  S    0.029516   0.046361  -0.000000   0.033162  -0.009252
   32  C  3  S    0.241858   0.030836  -0.000000  -0.113516   0.068915
   33  C  3  X    0.060478   0.309753  -0.000000   0.247564  -0.097193
   34  C  3  Y    0.064201   0.086872  -0.000000   0.173578  -0.036007
   35  C  3  Z    0.000000   0.000000  -0.003766   0.000000  -0.000000
   36  C  3  S   -1.207732  -1.376629  -0.000000  -0.308667   0.095726
   37  C  3  X    0.503342   0.754812  -0.000000   0.241897  -0.117828
   38  C  3  Y    0.458205   0.333623  -0.000000   0.126826  -0.016968
   39  C  3  Z    0.000000   0.000000   0.127245   0.000000  -0.000000
   40  C  3 XX   -0.335917  -0.868725  -0.000000  -0.198639   0.030527
   41  C  3 YY   -0.180960   0.396870  -0.000000   0.010895   0.011362
   42  C  3 ZZ    0.516878   0.471855  -0.000000   0.187744  -0.041888
   43  C  3 XY   -0.195056  -0.059788  -0.000000  -0.581701   0.198056
   44  C  3 XZ    0.000000   0.000000   0.187418   0.000000  -0.000000
   45  C  3 YZ    0.000000   0.000000   0.359729   0.000000  -0.000000
   46  H  4  S    0.199713   0.148915  -0.000000  -0.169174   0.070512
   47  H  4  S    0.057774  -0.058965  -0.000000   0.029790  -0.075558
   48  H  5  S   -0.117446  -0.143786   0.186081  -0.003427  -0.001157
   49  H  5  S    0.022083   0.030491  -0.045043  -0.000461   0.051273
   50  H  6  S   -0.117446  -0.143786  -0.186081  -0.003427  -0.001157
   51  H  6  S    0.022083   0.030491   0.045043  -0.000461   0.051273
   52  H  7  S   -0.146572  -0.274991  -0.000000   0.277476  -0.032972
   53  H  7  S    0.049910   0.296570  -0.000000  -0.377815   0.026068
 ...... END OF RHF CALCULATION ......
 STEP CPU TIME =     0.14 TOTAL CPU TIME =        0.3 (    0.0 MIN)
 TOTAL WALL CLOCK TIME=        1.8 SECONDS, CPU UTILIZATION IS  14.67%

     ----------------------------------------------------------------
     PROPERTY VALUES FOR THE RHF   SELF-CONSISTENT FIELD WAVEFUNCTION
     ----------------------------------------------------------------

          -----------------
          ENERGY COMPONENTS
          -----------------

         WAVEFUNCTION NORMALIZATION =       1.0000000000

                ONE ELECTRON ENERGY =    -344.6822614534
                TWO ELECTRON ENERGY =     122.6512051854
           NUCLEAR REPULSION ENERGY =      69.1236737655
                                      ------------------
                       TOTAL ENERGY =    -152.9073825025

 ELECTRON-ELECTRON POTENTIAL ENERGY =     122.6512051854
  NUCLEUS-ELECTRON POTENTIAL ENERGY =    -497.2449254369
   NUCLEUS-NUCLEUS POTENTIAL ENERGY =      69.1236737655
                                      ------------------
             TOTAL POTENTIAL ENERGY =    -305.4700464860
               TOTAL KINETIC ENERGY =     152.5626639836
                 VIRIAL RATIO (V/T) =       2.0022595208

          ---------------------------------------
          MULLIKEN AND LOWDIN POPULATION ANALYSES
          ---------------------------------------

     ATOMIC MULLIKEN POPULATION IN EACH MOLECULAR ORBITAL

                      1          2          3          4          5

                  2.000000   2.000000   2.000000   2.000000   2.000000

    1             1.998696  -0.000905   0.000002   1.522956   0.105789
    2             0.001307   1.999626   0.000992   0.452871   0.455479
    3            -0.000021   0.000731   1.997261   0.023648   1.142510
    4             0.000000  -0.000000   0.000578   0.000136   0.096773
    5            -0.000000   0.000017   0.000582   0.000258   0.087303
    6            -0.000000   0.000017   0.000582   0.000258   0.087303
    7             0.000017   0.000513   0.000003  -0.000126   0.024841

                      6          7          8          9         10

                  2.000000   2.000000   2.000000   2.000000   2.000000

    1             0.345179   0.778911   0.919324   0.209958   0.200299
    2             0.782077   0.523701   0.498866   0.248535   0.105592
    3             0.350580   0.354981   0.442829   0.922066   0.876355
    4             0.032194   0.178952   0.008901   0.000000   0.486679
    5             0.079268   0.000057   0.064861   0.309721   0.128707
    6             0.079268   0.000057   0.064861   0.309721   0.128707
    7             0.331434   0.163339   0.000358   0.000000   0.073662

                     11         12

                  2.000000   2.000000

    1             1.152470   1.278584
    2             0.416957   0.174768
    3             0.229479   0.248780
    4             0.000000   0.021188
    5             0.100547   0.014719
    6             0.100547   0.014719
    7             0.000000   0.247242

               ----- POPULATIONS IN EACH AO -----
                             MULLIKEN      LOWDIN
              1  O  1  S      1.99794     1.97856
              2  O  1  S      0.91554     0.71859
              3  O  1  X      0.97755     0.92353
              4  O  1  Y      1.07511     1.03444
              5  O  1  Z      0.75325     0.71125
              6  O  1  S      0.97299     0.47616
              7  O  1  X      0.54626     0.59927
              8  O  1  Y      0.64570     0.68507
              9  O  1  Z      0.59561     0.61588
             10  O  1 XX      0.00247     0.18598
             11  O  1 YY      0.00658     0.17861
             12  O  1 ZZ      0.00868     0.17125
             13  O  1 XY      0.00952     0.01556
             14  O  1 XZ      0.00405     0.01050
             15  O  1 YZ      0.00000     0.00451
             16  C  2  S      1.99764     1.97643
             17  C  2  S      0.70117     0.36452
             18  C  2  X      0.73074     0.64618
             19  C  2  Y      0.72857     0.64244
             20  C  2  Z      0.37616     0.34188
             21  C  2  S      0.45272     0.30773
             22  C  2  X      0.07789     0.28028
             23  C  2  Y      0.22754     0.38538
             24  C  2  Z      0.26946     0.32209
             25  C  2 XX      0.00640     0.21864
             26  C  2 YY      0.04585     0.20119
             27  C  2 ZZ      0.02677     0.09896
             28  C  2 XY      0.01482     0.04871
             29  C  2 XZ      0.00506     0.02755
             30  C  2 YZ      0.00000     0.00782
             31  C  3  S      1.99763     1.98101
             32  C  3  S      0.64385     0.35623
             33  C  3  X      0.68189     0.61613
             34  C  3  Y      0.68991     0.62493
             35  C  3  Z      0.69004     0.62513
             36  C  3  S      0.71594     0.34423
             37  C  3  X      0.28786     0.41032
             38  C  3  Y      0.39051     0.49142
             39  C  3  Z      0.44791     0.51993
             40  C  3 XX      0.01017     0.15431
             41  C  3 YY      0.00613     0.14562
             42  C  3 ZZ      0.01375     0.15530
             43  C  3 XY      0.00156     0.02179
             44  C  3 XZ      0.01204     0.00355
             45  C  3 YZ      0.00000     0.01770
             46  H  4  S      0.51468     0.48121
             47  H  4  S      0.31072     0.36245
             48  H  5  S      0.50372     0.46900
             49  H  5  S      0.28232     0.34943
             50  H  6  S      0.50372     0.46900
             51  H  6  S      0.28232     0.34943
             52  H  7  S      0.53115     0.50162
             53  H  7  S      0.31013     0.37128

          ----- MULLIKEN ATOMIC OVERLAP POPULATIONS -----
          (OFF-DIAGONAL ELEMENTS NEED TO BE MULTIPLIED BY 2)

             1           2           3           4           5

    1    8.0889274
    2    0.5375373   4.5185956
    3   -0.0705459   0.2985153   5.3414302
    4    0.0027869  -0.0298364   0.3629351   0.5298629
    5   -0.0002121  -0.0264933   0.3738849  -0.0222527   0.4734736
    6   -0.0002121  -0.0264933   0.3738849  -0.0222527  -0.0154030
    7   -0.0470194   0.3889469  -0.0909049   0.0041583   0.0030431

             6           7

    6    0.4734736
    7    0.0030431   0.5800163

          TOTAL MULLIKEN AND LOWDIN ATOMIC POPULATIONS
       ATOM         MULL.POP.    CHARGE          LOW.POP.     CHARGE
    1 O             8.511262   -0.511262         8.309166   -0.309166
    2 C             5.660772    0.339228         5.869810    0.130190
    3 C             6.589200   -0.589200         6.467606   -0.467606
    4 H             0.825402    0.174598         0.843663    0.156337
    5 H             0.786041    0.213959         0.818427    0.181573
    6 H             0.786041    0.213959         0.818427    0.181573
    7 H             0.841283    0.158717         0.872902    0.127098

          MULLIKEN SPHERICAL HARMONIC POPULATIONS
       ATOM           S       P       D      F      G      H      I    TOTAL
    1 O             3.89    4.59    0.03   0.00   0.00   0.00   0.00    8.51
    2 C             3.15    2.41    0.10   0.00   0.00   0.00   0.00    5.66
    3 C             3.36    3.19    0.04   0.00   0.00   0.00   0.00    6.59
    4 H             0.83    0.00    0.00   0.00   0.00   0.00   0.00    0.83
    5 H             0.79    0.00    0.00   0.00   0.00   0.00   0.00    0.79
    6 H             0.79    0.00    0.00   0.00   0.00   0.00   0.00    0.79
    7 H             0.84    0.00    0.00   0.00   0.00   0.00   0.00    0.84

          -------------------------------
          BOND ORDER AND VALENCE ANALYSIS     BOND ORDER THRESHOLD=0.050
          -------------------------------

                   BOND                       BOND                       BOND
  ATOM PAIR DIST  ORDER      ATOM PAIR DIST  ORDER      ATOM PAIR DIST  ORDER
    1   2  1.232  1.878        2   3  1.490  0.928        2   7  1.114  0.921
    3   4  1.116  0.947        3   5  1.118  0.935        3   6  1.118  0.935

                       TOTAL       BONDED        FREE
      ATOM            VALENCE     VALENCE     VALENCE
    1 O                 1.909       1.909       0.000
    2 C                 3.706       3.706       0.000
    3 C                 3.722       3.722       0.000
    4 H                 0.932       0.932       0.000
    5 H                 0.923       0.923       0.000
    6 H                 0.923       0.923       0.000
    7 H                 0.926       0.926       0.000

          ---------------------
          ELECTROSTATIC MOMENTS
          ---------------------

 POINT   1           X           Y           Z (BOHR)    CHARGE
                -0.000000    0.000000    0.000000       -0.00 (A.U.)
         DX          DY          DZ         /D/  (DEBYE)
     2.889036   -1.249261   -0.000000    3.147568
 ...... END OF PROPERTY EVALUATION ......
 STEP CPU TIME =     0.00 TOTAL CPU TIME =        0.3 (    0.0 MIN)
 TOTAL WALL CLOCK TIME=        1.8 SECONDS, CPU UTILIZATION IS  14.67%

 THE USE OF POINT GROUP SYMMETRY HAS BEEN TURNED OFF.

 -------------------------------   -----------------------------
 MP2 ENERGY GRADIENT CALCULATION   PROGRAM WRITTEN BY K.ISHIMURA
 -------------------------------   -----------------------------
 NUMBER OF OCCUPIED ORBITALS            =   12
 NUMBER OF VIRTUAL ORBITALS             =   38
 NUMBER OF ACTIVE OCCUPIED ORBITALS     =    9
 NUMBER OF ACTIVE VIRTUAL ORBITALS      =   38
 NUMBER OF BASIS FUNCTIONS              =   53
[...]
   40  C  3 XX   -0.012358   0.007118   0.015802   0.000000  -0.019775
   41  C  3 YY    0.002399  -0.010128  -0.002086   0.000000  -0.004470
   42  C  3 ZZ    0.009959   0.003009  -0.013716   0.000000   0.024246
   43  C  3 XY   -0.011070   0.014608   0.011413   0.000000   0.023939
   44  C  3 XZ    0.000000   0.000000   0.000000   0.001031   0.000000
   45  C  3 YZ    0.000000   0.000000   0.000000  -0.028529   0.000000
   46  H  4  S    0.062636  -0.147095  -0.031812   0.000000  -0.250803
   47  H  4  S    0.021143  -0.100956  -0.017754   0.000000  -0.205332
   48  H  5  S    0.092368   0.001926  -0.090054   0.200933   0.130701
   49  H  5  S    0.042897   0.000667  -0.056501   0.145629   0.101838
   50  H  6  S    0.092368   0.001926  -0.090054  -0.200933   0.130701
   51  H  6  S    0.042897   0.000667  -0.056501  -0.145629   0.101838
   52  H  7  S   -0.207660  -0.135546   0.002737   0.000000   0.102621
   53  H  7  S   -0.090029  -0.100894   0.010056   0.000000   0.078117

                     11         12         13         14         15
                   -0.4922    -0.4225     0.1422     0.2481     0.2604
                     A''        A'         A''        A'         A'  
    1  O  1  S    0.000000   0.000358   0.000000   0.007729   0.002345
    2  O  1  S    0.000000  -0.005685   0.000000  -0.018047  -0.000713
    3  O  1  X    0.000000   0.298249   0.000000  -0.035557   0.005223
    4  O  1  Y    0.000000   0.449851   0.000000  -0.069651   0.045909
    5  O  1  Z   -0.466868   0.000000  -0.348568   0.000000   0.000000
    6  O  1  S    0.000000   0.025940   0.000000  -0.098881  -0.051375
    7  O  1  X    0.000000   0.242623   0.000000  -0.098109  -0.001843
    8  O  1  Y    0.000000   0.353277   0.000000  -0.100071   0.127759
    9  O  1  Z   -0.342649   0.000000  -0.477067   0.000000   0.000000
   10  O  1 XX    0.000000   0.015287   0.000000  -0.004225  -0.006491
   11  O  1 YY    0.000000  -0.014646   0.000000   0.002312  -0.001331
   12  O  1 ZZ    0.000000  -0.000641   0.000000   0.001913   0.007822
   13  O  1 XY    0.000000   0.007447   0.000000   0.004385  -0.001211
   14  O  1 XZ   -0.031194   0.000000  -0.001504   0.000000   0.000000
   15  O  1 YZ    0.020599   0.000000  -0.000640   0.000000   0.000000
   16  C  2  S    0.000000   0.003730   0.000000   0.032125  -0.080822
   17  C  2  S    0.000000  -0.019962   0.000000  -0.091737   0.045432
   18  C  2  X    0.000000  -0.123677   0.000000  -0.002271   0.034131
   19  C  2  Y    0.000000  -0.165320   0.000000   0.124155  -0.199443
   20  C  2  Z   -0.262621   0.000000   0.412609   0.000000   0.000000
   21  C  2  S    0.000000   0.013271   0.000000  -0.380279   1.521449
   22  C  2  X    0.000000   0.013928   0.000000   0.052685   0.198810
   23  C  2  Y    0.000000  -0.063364   0.000000   0.464917  -0.472753
   24  C  2  Z   -0.192538   0.000000   0.625592   0.000000   0.000000
   25  C  2 XX    0.000000  -0.045995   0.000000   0.000026   0.003860
   26  C  2 YY    0.000000   0.047710   0.000000  -0.003729  -0.009801
   27  C  2 ZZ    0.000000  -0.001715   0.000000   0.003703   0.005940
   28  C  2 XY    0.000000  -0.019521   0.000000  -0.000678  -0.013683
   29  C  2 XZ    0.032934   0.000000   0.025151   0.000000   0.000000
   30  C  2 YZ   -0.015846   0.000000  -0.020161   0.000000   0.000000
   31  C  3  S    0.000000   0.029804   0.000000   0.118726   0.078329
   32  C  3  S    0.000000  -0.058337   0.000000  -0.064482  -0.056610
   33  C  3  X    0.000000   0.223159   0.000000  -0.180276   0.098220
   34  C  3  Y    0.000000   0.101951   0.000000  -0.009176  -0.150228
   35  C  3  Z    0.200428   0.000000   0.016886   0.000000   0.000000
   36  C  3  S    0.000000  -0.186522   0.000000  -2.269042  -1.371204
   37  C  3  X    0.000000   0.125835   0.000000  -0.596055   0.439726
   38  C  3  Y    0.000000   0.109950   0.000000  -0.185238  -0.556920
   39  C  3  Z    0.152946   0.000000   0.270424   0.000000   0.000000
   40  C  3 XX    0.000000  -0.010365   0.000000  -0.002544  -0.007230
   41  C  3 YY    0.000000   0.005254   0.000000   0.001175  -0.000199
   42  C  3 ZZ    0.000000   0.005111   0.000000   0.001370   0.007429
   43  C  3 XY    0.000000  -0.009785   0.000000  -0.008130   0.012186
   44  C  3 XZ    0.008848   0.000000  -0.024067   0.000000   0.000000
   45  C  3 YZ    0.019501   0.000000  -0.025012   0.000000   0.000000
   46  H  4  S    0.000000   0.039441   0.000000   0.012688  -0.047628
   47  H  4  S    0.000000   0.085193   0.000000   1.345036  -0.471626
   48  H  5  S   -0.119683   0.033013   0.089957   0.003853   0.017822
   49  H  5  S   -0.087480   0.052818   0.462903   0.975081   0.962668
   50  H  6  S    0.119683   0.033013  -0.089957   0.003853   0.017822
   51  H  6  S    0.087480   0.052818  -0.462903   0.975081   0.962668
   52  H  7  S    0.000000   0.181519   0.000000  -0.027079  -0.053722
   53  H  7  S    0.000000   0.223921   0.000000   0.731286  -1.433176

                     16         17         18         19         20
                    0.3229     0.3237     0.4145     0.4393     0.7430
                     A'         A''        A'         A'         A'' 
    1  O  1  S    0.011040   0.000000   0.076318   0.065550   0.000000
    2  O  1  S   -0.053263   0.000000  -0.072691  -0.049397   0.000000
    3  O  1  X   -0.082887   0.000000  -0.031894  -0.128008   0.000000
    4  O  1  Y    0.032791   0.000000   0.126215   0.006529   0.000000
    5  O  1  Z    0.000000  -0.138892   0.000000   0.000000  -0.003884
    6  O  1  S    0.106770   0.000000  -1.681104  -1.510430   0.000000
    7  O  1  X   -0.031795   0.000000  -0.428587  -0.761408   0.000000
    8  O  1  Y    0.075732   0.000000   0.625695   0.126832   0.000000
    9  O  1  Z    0.000000  -0.221593   0.000000   0.000000   0.016524
   10  O  1 XX    0.002993   0.000000  -0.024011  -0.019382   0.000000
   11  O  1 YY   -0.002164   0.000000   0.003457  -0.007510   0.000000
   12  O  1 ZZ   -0.000830   0.000000   0.020554   0.026892   0.000000
   13  O  1 XY   -0.000062   0.000000   0.035570   0.027841   0.000000
   14  O  1 XZ    0.000000   0.000140   0.000000   0.000000   0.049330
   15  O  1 YZ    0.000000   0.000867   0.000000   0.000000  -0.043207
   16  C  2  S   -0.080998   0.000000   0.003004  -0.081483   0.000000
   17  C  2  S    0.113435   0.000000  -0.065804   0.040605   0.000000
   18  C  2  X    0.057748   0.000000  -0.239960   0.217343   0.000000
   19  C  2  Y   -0.119101   0.000000  -0.116575   0.305641   0.000000
   20  C  2  Z    0.000000   0.121116   0.000000   0.000000   0.831064
   21  C  2  S    1.333444   0.000000   0.293844   2.326508   0.000000
   22  C  2  X    0.340195   0.000000  -2.405886  -0.100268   0.000000
   23  C  2  Y   -0.718251   0.000000   0.105946   1.903519   0.000000
   24  C  2  Z    0.000000   0.531507   0.000000   0.000000  -0.594921
   25  C  2 XX   -0.014250   0.000000  -0.001919   0.008391   0.000000
   26  C  2 YY    0.013608   0.000000   0.000404  -0.009260   0.000000
   27  C  2 ZZ    0.000643   0.000000   0.001515   0.000868   0.000000
   28  C  2 XY    0.017852   0.000000  -0.000639  -0.004489   0.000000
   29  C  2 XZ    0.000000  -0.006621   0.000000   0.000000  -0.009877
   30  C  2 YZ    0.000000  -0.006739   0.000000   0.000000   0.013777
   31  C  3  S    0.037530   0.000000  -0.043040   0.057884   0.000000
   32  C  3  S   -0.027903   0.000000  -0.022810   0.001076   0.000000
   33  C  3  X   -0.064832   0.000000  -0.019164   0.109926   0.000000
   34  C  3  Y    0.256941   0.000000  -0.063985   0.006098   0.000000
   35  C  3  Z    0.000000  -0.341974   0.000000   0.000000   0.456294
   36  C  3  S   -0.610882   0.000000   1.437979  -1.073499   0.000000
   37  C  3  X   -0.250872   0.000000  -1.103162   1.785753   0.000000
   38  C  3  Y    1.477724   0.000000  -0.778689   0.017571   0.000000
   39  C  3  Z    0.000000  -1.530400   0.000000   0.000000  -0.936527
   40  C  3 XX    0.012158   0.000000   0.002241   0.043969   0.000000
   41  C  3 YY   -0.000062   0.000000  -0.007836  -0.025427   0.000000
   42  C  3 ZZ   -0.012095   0.000000   0.005594  -0.018542   0.000000
   43  C  3 XY    0.002169   0.000000  -0.028892   0.009501   0.000000
   44  C  3 XZ    0.000000  -0.010253   0.000000   0.000000  -0.027397
   45  C  3 YZ    0.000000   0.006476   0.000000   0.000000   0.072829
   46  H  4  S    0.040658   0.000000   0.126069  -0.011054   0.000000
   47  H  4  S    1.767280   0.000000  -0.014447  -0.651169   0.000000
   48  H  5  S   -0.036186  -0.027400  -0.005148  -0.094799  -0.304786
   49  H  5  S   -0.726096  -1.586653   0.111242   0.038965  -0.189525
   50  H  6  S   -0.036186   0.027400  -0.005148  -0.094799   0.304786
   51  H  6  S   -0.726096   1.586653   0.111242   0.038965   0.189525
   52  H  7  S    0.008423   0.000000  -0.001126  -0.060067   0.000000
   53  H  7  S   -1.326261   0.000000  -0.487130   1.043001   0.000000

                     21         22
                    0.7463     0.7869
                     A'         A'  
    1  O  1  S    0.026599   0.002213
    2  O  1  S   -0.060279  -0.101875
    3  O  1  X   -0.008184  -0.220960
    4  O  1  Y    0.029092  -0.191353
    5  O  1  Z    0.000000   0.000000
    6  O  1  S   -0.450260   0.542570
    7  O  1  X   -0.334945   0.080024
    8  O  1  Y    0.046366  -0.209885
    9  O  1  Z    0.000000   0.000000
   10  O  1 XX   -0.011019   0.031304
   11  O  1 YY   -0.013768  -0.015780
   12  O  1 ZZ    0.024787  -0.015525
   13  O  1 XY   -0.012672  -0.003493
   14  O  1 XZ    0.000000   0.000000
   15  O  1 YZ    0.000000   0.000000
   16  C  2  S   -0.050641  -0.034779
   17  C  2  S   -0.339013   0.014842
   18  C  2  X   -0.162728  -0.065485
   19  C  2  Y    0.094739  -0.112460
   20  C  2  Z    0.000000   0.000000
   21  C  2  S    0.922553  -0.412044
   22  C  2  X    0.119705   0.946798
   23  C  2  Y    0.518250   0.256936
   24  C  2  Z    0.000000   0.000000
   25  C  2 XX   -0.067732  -0.089230
   26  C  2 YY   -0.031194   0.036804
   27  C  2 ZZ    0.098926   0.052426
   28  C  2 XY   -0.067422  -0.023683
   29  C  2 XZ    0.000000   0.000000
   30  C  2 YZ    0.000000   0.000000
   31  C  3  S    0.015110   0.022143
   32  C  3  S   -0.211516  -0.173380
   33  C  3  X    0.400759   0.776004
   34  C  3  Y    0.718713  -0.123304
   35  C  3  Z    0.000000   0.000000
   36  C  3  S   -0.149780  -0.442109
   37  C  3  X    0.038733  -0.901116
   38  C  3  Y   -1.169994   0.681695
   39  C  3  Z    0.000000   0.000000
   40  C  3 XX   -0.055669   0.020712
   41  C  3 YY   -0.022939   0.033382
   42  C  3 ZZ    0.078609  -0.054095
   43  C  3 XY    0.021859  -0.079932
   44  C  3 XZ    0.000000   0.000000
   45  C  3 YZ    0.000000   0.000000
   46  H  4  S   -0.265015   0.448257
   47  H  4  S   -0.222000   0.127595
   48  H  5  S    0.211273  -0.095255
   49  H  5  S    0.017290  -0.043572
   50  H  6  S    0.211273  -0.095255
   51  H  6  S    0.017290  -0.043572
   52  H  7  S   -0.301105   0.157827
   53  H  7  S    0.189460   0.180336

     -------------------------------------------------
     MP2 PROPERTIES...FOR THE FIRST ORDER WAVEFUNCTION
          USING THE RESPONSE (OR RELAXED) DENSITY
     -------------------------------------------------

          -----------------
          ENERGY COMPONENTS
          -----------------

         WAVEFUNCTION NORMALIZATION =       1.0000000000

                ONE ELECTRON ENERGY =    -344.8159766655
                TWO ELECTRON ENERGY =     122.1735479862
           NUCLEAR REPULSION ENERGY =      69.3026899103
                                      ------------------
                       TOTAL ENERGY =    -153.3397387689

 ELECTRON-ELECTRON POTENTIAL ENERGY =     122.1735479862
  NUCLEUS-ELECTRON POTENTIAL ENERGY =    -497.8939248609
   NUCLEUS-NUCLEUS POTENTIAL ENERGY =      69.3026899103
                                      ------------------
             TOTAL POTENTIAL ENERGY =    -306.4176869644
               TOTAL KINETIC ENERGY =     153.0779481954
                 VIRIAL RATIO (V/T) =       2.0017101782

          ---------------------------------------
          MULLIKEN AND LOWDIN POPULATION ANALYSES
          ---------------------------------------

               ----- POPULATIONS IN EACH AO -----
                             MULLIKEN      LOWDIN
              1  O  1  S      1.99792     1.97849
              2  O  1  S      0.92615     0.72393
              3  O  1  X      0.97539     0.91954
              4  O  1  Y      1.05649     1.01437
              5  O  1  Z      0.75797     0.71077
              6  O  1  S      0.94189     0.47212
              7  O  1  X      0.53135     0.59205
              8  O  1  Y      0.62304     0.67676
              9  O  1  Z      0.50950     0.54459
             10  O  1 XX      0.00619     0.18607
             11  O  1 YY      0.01174     0.17945
             12  O  1 ZZ      0.01173     0.17363
             13  O  1 XY      0.01212     0.02016
             14  O  1 XZ      0.00768     0.01455
             15  O  1 YZ      0.00000     0.00879
             16  C  2  S      1.99760     1.97604
             17  C  2  S      0.70388     0.36662
             18  C  2  X      0.71454     0.63216
             19  C  2  Y      0.73272     0.64452
             20  C  2  Z      0.44884     0.40650
             21  C  2  S      0.45924     0.31068
             22  C  2  X      0.10654     0.28536
             23  C  2  Y      0.21784     0.37929
             24  C  2  Z      0.28680     0.33344
             25  C  2 XX      0.00748     0.21463
             26  C  2 YY      0.04724     0.20155
             27  C  2 ZZ      0.02698     0.10516
             28  C  2 XY      0.01477     0.05108
             29  C  2 XZ      0.00640     0.02591
             30  C  2 YZ      0.00000     0.00884
             31  C  3  S      1.99764     1.98119
             32  C  3  S      0.66294     0.36292
             33  C  3  X      0.68973     0.62400
             34  C  3  Y      0.71319     0.64546
             35  C  3  Z      0.71441     0.64572
             36  C  3  S      0.65311     0.33443
             37  C  3  X      0.30839     0.41753
             38  C  3  Y      0.37639     0.48356
             39  C  3  Z      0.41473     0.50469
             40  C  3 XX      0.01120     0.15268
             41  C  3 YY      0.00835     0.14895
             42  C  3 ZZ      0.01409     0.15774
             43  C  3 XY      0.00523     0.02219
             44  C  3 XZ      0.01386     0.00728
             45  C  3 YZ      0.00000     0.02077
             46  H  4  S      0.51181     0.47648
             47  H  4  S      0.31379     0.35566
             48  H  5  S      0.50381     0.46823
             49  H  5  S      0.28864     0.34367
             50  H  6  S      0.50381     0.46823
             51  H  6  S      0.28864     0.34367
             52  H  7  S      0.52362     0.49553
             53  H  7  S      0.34258     0.38238

          ----- MULLIKEN ATOMIC OVERLAP POPULATIONS -----
          (OFF-DIAGONAL ELEMENTS NEED TO BE MULTIPLIED BY 2)

             1           2           3           4           5

    1    7.9616630
    2    0.5377221   4.6773760
    3   -0.0766762   0.2680328   5.4574046
    4    0.0033212  -0.0191602   0.3304199   0.5511643
    5   -0.0002164  -0.0244480   0.3559985  -0.0231378   0.4990653
    6   -0.0002164  -0.0244480   0.3559985  -0.0231378  -0.0184687
    7   -0.0564283   0.3557831  -0.1079183   0.0061326   0.0036650

             6           7

    6    0.4990653
    7    0.0036650   0.6612967

          TOTAL MULLIKEN AND LOWDIN ATOMIC POPULATIONS
       ATOM         MULL.POP.    CHARGE          LOW.POP.     CHARGE
    1 O             8.369169   -0.369169         8.215285   -0.215285
    2 C             5.770858    0.229142         5.941765    0.058235
    3 C             6.583260   -0.583260         6.509102   -0.509102
    4 H             0.825602    0.174398         0.832140    0.167860
    5 H             0.792458    0.207542         0.811899    0.188101
    6 H             0.792458    0.207542         0.811899    0.188101
    7 H             0.866196    0.133804         0.877910    0.122090

          MULLIKEN SPHERICAL HARMONIC POPULATIONS
       ATOM           S       P       D      F      G      H      I    TOTAL
    1 O             3.87    4.45    0.05   0.00   0.00   0.00   0.00    8.37
    2 C             3.16    2.51    0.10   0.00   0.00   0.00   0.00    5.77
    3 C             3.31    3.22    0.05   0.00   0.00   0.00   0.00    6.58
    4 H             0.83    0.00    0.00   0.00   0.00   0.00   0.00    0.83
    5 H             0.79    0.00    0.00   0.00   0.00   0.00   0.00    0.79
    6 H             0.79    0.00    0.00   0.00   0.00   0.00   0.00    0.79
    7 H             0.87    0.00    0.00   0.00   0.00   0.00   0.00    0.87

          -------------------------------
          BOND ORDER AND VALENCE ANALYSIS     BOND ORDER THRESHOLD=0.050
          -------------------------------

                   BOND                       BOND                       BOND
  ATOM PAIR DIST  ORDER      ATOM PAIR DIST  ORDER      ATOM PAIR DIST  ORDER
    1   2  1.224  1.845        2   3  1.510  0.900        2   7  1.108  0.874
    3   4  1.092  0.910        3   5  1.094  0.902        3   6  1.094  0.902

                       TOTAL       BONDED        FREE
      ATOM            VALENCE     VALENCE     VALENCE
    1 O                 2.295       1.903       0.391
    2 C                 3.891       3.605       0.286
    3 C                 3.848       3.606       0.242
    4 H                 0.936       0.899       0.037
    5 H                 0.927       0.891       0.036
    6 H                 0.927       0.891       0.036
    7 H                 0.930       0.892       0.038

          ---------------------
          ELECTROSTATIC MOMENTS
          ---------------------

 POINT   1           X           Y           Z (BOHR)    CHARGE
                -0.000000    0.000000    0.000000       -0.00 (A.U.)
         DX          DY          DZ         /D/  (DEBYE)
     2.349558   -0.927085   -0.000000    2.525848
 ...... END OF PROPERTY EVALUATION ......
 STEP CPU TIME =     0.00 TOTAL CPU TIME =       18.7 (    0.3 MIN)
 TOTAL WALL CLOCK TIME=       29.9 SECONDS, CPU UTILIZATION IS  62.71%
  $VIB   
          IVIB=   0 IATOM=   0 ICOORD=   0 E=     -153.3397387689
  8.279896116E-07-7.572293455E-07-4.718891723E-13-2.121763663E-06 4.833703626E-07
  5.024075114E-14 2.118145668E-06 3.647692675E-08-9.001721041E-14-1.538873917E-08
  7.497923438E-08 2.790161179E-14-3.483294024E-07 4.053907203E-08-8.523552149E-08
 -3.483281877E-07 4.053920573E-08 8.523595944E-08-1.123252877E-07 8.132454398E-08
  4.581398849E-14
  2.349557668E+00-9.270846655E-01-2.257541709E-15
 ......END OF GEOMETRY SEARCH......
 STEP CPU TIME =     0.00 TOTAL CPU TIME =       18.7 (    0.3 MIN)
 TOTAL WALL CLOCK TIME=       29.9 SECONDS, CPU UTILIZATION IS  62.71%
               580000  WORDS OF DYNAMIC MEMORY USED
 EXECUTION OF GAMESS TERMINATED NORMALLY Mon Nov 28 21:50:12 2016
 DDI: 263640 bytes (0.3 MB / 0 MWords) used by master data server.

 ----------------------------------------
 CPU timing information for all processes
 ========================================
 0: 18.189 + 0.545 = 18.735
 ----------------------------------------
 ddikick.x: exited gracefully.
unset echo
----- accounting info -----
Files used on the master node compute-3-0 were:
-rw-rw-r-- 1 sarom sarom  236727 Nov 29  2016 .//h3ccho-rmp2.dat
-rw-rw-r-- 1 sarom sarom    1389 Nov 29  2016 .//h3ccho-rmp2.F05
-rw-rw-r-- 1 sarom sarom 6300560 Nov 29  2016 .//h3ccho-rmp2.F08
-rw-rw-r-- 1 sarom sarom 2061360 Nov 29  2016 .//h3ccho-rmp2.F10
-rw-rw-r-- 1 sarom sarom    1389 Nov 28 17:27 .//h3ccho-rmp2.inp
-rw-rw-r-- 1 sarom sarom  217644 Nov 29  2016 .//h3ccho-rmp2.log
Mon Nov 28 21:50:15 CST 2016
0.184u 0.524s 0:33.77 2.0%	0+0k 0+136io 0pf+0w
