-catch_rsh /opt/gridengine/default/spool/compute-1-8/active_jobs/36098.1/pe_hostfile
compute-1-8
The primary node assigned by SGE to this run is compute-1-8
Warning: no access to tty (Bad file descriptor).
Thus no job control in this shell.
source /home/sarom/dir.git.branch.saromleang-travis-ci/install.info
setenv GMS_PATH /home/sarom/dir.git.branch.saromleang-travis-ci
setenv GMS_BUILD_DIR /home/sarom/dir.git.branch.saromleang-travis-ci
setenv GMS_TARGET linux64
setenv GMS_FORTRAN gfortran
setenv GMS_GFORTRAN_VERNO 4.4
setenv GMS_MATHLIB mkl-so
setenv GMS_MATHLIB none
setenv GMS_MATHLIB_PATH /share/apps/intel/compilers_and_libraries_2017.1.132/linux/mkl/lib/intel64
setenv GMS_MKL_VERNO 12
setenv GMS_DDI_COMM sockets
setenv GMS_LIBCCHEM false
setenv GMS_EIGEN_PATH
setenv GMS_PHI false
setenv GMS_SHMTYPE sysv
setenv GMS_OPENMP false
unset echo
ims-rhf-mp2-n5
/home/sarom/dir.git.branch.saromleang-travis-ci/tests/mp2
----- GAMESS execution script 'rungms' -----
This job is running on host compute-1-8.local
under operating system Linux at Wed Aug 9 21:38:56 CDT 2017
Available scratch disk space (Kbyte units) at beginning of the job is
Filesystem           1K-blocks      Used Available Use% Mounted on
/dev/sda1             16126920   8516588   6791132  56% /
GAMESS temporary binary files will be written to /scratch
GAMESS supplementary output files will be written to /home/sarom/restart
Copying input file ims-rhf-mp2-n5.inp to your run's scratch directory...
cp /home/sarom/dir.git.branch.saromleang-travis-ci/tests/mp2/ims-rhf-mp2-n5.inp /scratch/ims-rhf-mp2-n5.F05
unset echo
The generated host list is
compute-1-8.local
/home/sarom/dir.git.branch.saromleang-travis-ci/ddikick.x /home/sarom/dir.git.branch.saromleang-travis-ci/gamess.00.x ims-rhf-mp2-n5 -ddi 1 1 compute-1-8.local -scr /scratch

 Distributed Data Interface kickoff program.
 Initiating 1 compute processes on 1 nodes to run the following command:
 /home/sarom/dir.git.branch.saromleang-travis-ci/gamess.00.x ims-rhf-mp2-n5 

          ******************************************************
          *         GAMESS VERSION = 20 APR 2017 (R1)          *
          *             FROM IOWA STATE UNIVERSITY             *
          * M.W.SCHMIDT, K.K.BALDRIDGE, J.A.BOATZ, S.T.ELBERT, *
          *   M.S.GORDON, J.H.JENSEN, S.KOSEKI, N.MATSUNAGA,   *
          *          K.A.NGUYEN, S.J.SU, T.L.WINDUS,           *
          *       TOGETHER WITH M.DUPUIS, J.A.MONTGOMERY       *
          *         J.COMPUT.CHEM.  14, 1347-1363(1993)        *
          **************** 64 BIT LINUX VERSION ****************

  SINCE 1993, STUDENTS AND POSTDOCS WORKING AT IOWA STATE UNIVERSITY
  AND ALSO IN THEIR VARIOUS JOBS AFTER LEAVING ISU HAVE MADE IMPORTANT
  CONTRIBUTIONS TO THE CODE:
     IVANA ADAMOVIC, CHRISTINE AIKENS, YURI ALEXEEV, POOJA ARORA,
     ANDREY ASADCHEV, ROB BELL, PRADIPTA BANDYOPADHYAY, JONATHAN BENTZ,
     BRETT BODE, KURT BRORSEN, CALEB CARLIN, GALINA CHABAN, WEI CHEN,
     CHEOL HO CHOI, PAUL DAY, ALBERT DEFUSCO, NUWAN DESILVA, TIM DUDLEY,
     DMITRI FEDOROV, GRAHAM FLETCHER, MARK FREITAG, KURT GLAESEMANN,
     DAN KEMP, GRANT MERRILL, NORIYUKI MINEZAWA, JONATHAN MULLIN,
     TAKESHI NAGATA, SEAN NEDD, HEATHER NETZLOFF, BOSILJKA NJEGIC, RYAN OLSON,
     MIKE PAK, SPENCER PRUITT, LUKE ROSKOP, JIM SHOEMAKER, LYUDMILA SLIPCHENKO,
     TONY SMITH, SAROM SOK LEANG, JIE SONG, TETSUYA TAKETSUGU, SIMON WEBB,
     PENG XU, SOOHAENG YOO, FEDERICO ZAHARIEV

  ADDITIONAL CODE HAS BEEN PROVIDED BY COLLABORATORS IN OTHER GROUPS:
     IOWA STATE UNIVERSITY:
          JOE IVANIC, AARON WEST, LAIMUTIS BYTAUTAS, KLAUS RUEDENBERG
     UNIVERSITY OF TOKYO: KIMIHIKO HIRAO, TAKAHITO NAKAJIMA,
          TAKAO TSUNEDA, MUNEAKI KAMIYA, SUSUMU YANAGISAWA,
          KIYOSHI YAGI, MAHITO CHIBA, SEIKEN TOKURA, NAOAKI KAWAKAMI
     UNIVERSITY OF AARHUS: FRANK JENSEN
     UNIVERSITY OF IOWA: VISVALDAS KAIRYS, HUI LI
     NATIONAL INST. OF STANDARDS AND TECHNOLOGY: WALT STEVENS, DAVID GARMER
     UNIVERSITY OF PISA: BENEDETTA MENNUCCI, JACOPO TOMASI
     UNIVERSITY OF MEMPHIS: HENRY KURTZ, PRAKASHAN KORAMBATH
     UNIVERSITY OF ALBERTA: TOBY ZENG, MARIUSZ KLOBUKOWSKI
     UNIVERSITY OF NEW ENGLAND: MARK SPACKMAN
     MIE UNIVERSITY: HIROAKI UMEDA
     NAT. INST. OF ADVANCED INDUSTRIAL SCIENCE AND TECHNOLOGY: KAZUO KITAURA
     MICHIGAN STATE UNIVERSITY:
          KAROL KOWALSKI, MARTA WLOCH, JEFFREY GOUR, JESSE LUTZ,
          WEI LI, PIOTR PIECUCH
     UNIVERSITY OF SILESIA: MONIKA MUSIAL, STANISLAW KUCHARSKI
     FACULTES UNIVERSITAIRES NOTRE-DAME DE LA PAIX:
          OLIVIER QUINET, BENOIT CHAMPAGNE
     UNIVERSITY OF CALIFORNIA - SANTA BARBARA: BERNARD KIRTMAN
     INSTITUTE FOR MOLECULAR SCIENCE:
          KAZUYA ISHIMURA, MICHIO KATOUDA, AND SHIGERU NAGASE
     UNIVERSITY OF NOTRE DAME: ANNA POMOGAEVA, DAN CHIPMAN
     KYUSHU UNIVERSITY:
          HARUYUKI NAKANO,
          FENG LONG GU, JACEK KORCHOWIEC, MARCIN MAKOWSKI, AND YURIKO AOKI,
          HIROTOSHI MORI AND EISAKU MIYOSHI
     PENNSYLVANIA STATE UNIVERSITY:
          TZVETELIN IORDANOV, CHET SWALINA, JONATHAN SKONE,
          SHARON HAMMES-SCHIFFER
     WASEDA UNIVERSITY:
          MASATO KOBAYASHI, TOMOKO AKAMA, TSUGUKI TOUMA,
          TAKESHI YOSHIKAWA, YASUHIRO IKABATA, JUNJI SEINO,
          YUYA NAKAJIMA, HIROMI NAKAI
     NANJING UNIVERSITY: SHUHUA LI
     UNIVERSITY OF NEBRASKA:
          PEIFENG SU, DEJUN SI, NANDUN THELLAMUREGE, YALI WANG, HUI LI
     UNIVERSITY OF ZURICH: ROBERTO PEVERATI, KIM BALDRIDGE
     N. COPERNICUS UNIVERSITY AND JACKSON STATE UNIVERSITY:
          MARIA BARYSZ
     UNIVERSITY OF COPENHAGEN: Jimmy Kromann, CASPER STEINMANN
     TOKYO INSTITUTE OF TECHNOLOGY: HIROYA NAKATA
     NAGOYA UNIVERSITY: YOSHIO NISHIMOTO, STEPHAN IRLE
     MOSCOW STATE UNIVERSITY: VLADIMIR MIRONOV

 EXECUTION OF GAMESS BEGUN Wed Aug  9 21:38:56 2017

            ECHO OF THE FIRST FEW INPUT CARDS -
 INPUT CARD>!  N5+ with diffuse functions.  Test comes from MSG...95 AOs, 17 occupied.      
 INPUT CARD>!                                                                               
 INPUT CARD>!  The largest LCAO coefficient in the virtual space is 130.7, so               
 INPUT CARD>!  this presents some challenges to accuracy, in terms of the SCF               
 INPUT CARD>!  convergence and cutoff thresholds.                                           
 INPUT CARD>!                                                                               
 INPUT CARD>!  FINAL= -271.7694738650, 21 its, E(MP2)= -272.6021197920, RMS= 0.000120387    
 INPUT CARD>!                                                                               
 INPUT CARD>!  this run takes 21 seconds on 2.66 GHz Cloverton ( 1 Apr 2015)                
 INPUT CARD>!  results have been unchanging since at least 2010                             
 INPUT CARD>!                                                                               
 INPUT CARD> $contrl scftyp=rhf icharg=+1 runtyp=gradient mplevl=2 $end                     
 INPUT CARD> $system parall=.t. mwords=2 memddi=10 $end                                     
 INPUT CARD> $basis  gbasis=n31 ngauss=6 ndfunc=1 diffsp=.true. $end                        
 INPUT CARD> $mp2    code=ims $end                                                          
 INPUT CARD> $data                                                                          
 INPUT CARD>N5 cation                                                                       
 INPUT CARD>C1                                                                              
 INPUT CARD>N           7.0   2.7079703171   -.4441528208   -.3950554758                    
 INPUT CARD>N           7.0   2.0869372637    .4344367141   -.0066438951                    
 INPUT CARD>N           7.0   1.6093190405   1.4904437344    .6105156783                    
 INPUT CARD>N           7.0    .4040863345   1.7674441144    .1688002881                    
 INPUT CARD>N           7.0   -.6312429557   2.2024482580   -.0480365955                    
 INPUT CARD> $end                                                                           
    2000000 WORDS OF MEMORY AVAILABLE

     BASIS OPTIONS
     -------------
     GBASIS=N31          IGAUSS=       6      POLAR=POPN31  
     NDFUNC=       1     NFFUNC=       0     DIFFSP=       T
     NPFUNC=       0      DIFFS=       F     BASNAM=        


     RUN TITLE
     ---------
 N5 cation                                                                       

 THE POINT GROUP OF THE MOLECULE IS C1      
 THE ORDER OF THE PRINCIPAL AXIS IS     0

 ATOM      ATOMIC                      COORDINATES (BOHR)
           CHARGE         X                   Y                   Z
 N           7.0     5.1173218822       -0.8393271280       -0.7465465992
 N           7.0     3.9437395820        0.8209663487       -0.0125551412
 N           7.0     3.0411720134        2.8165302581        1.1537073432
 N           7.0     0.7636124476        3.3399850748        0.3189862912
 N           7.0    -1.1928762180        4.1620237098       -0.0907760029

          INTERNUCLEAR DISTANCES (ANGS.)
          ------------------------------

                1 N          2 N          3 N          4 N          5 N     

   1 N       0.0000000    1.1438816 *  2.4414897 *  3.2429887    4.2749579  
   2 N       1.1438816 *  0.0000000    1.3130712 *  2.1539909 *  3.2428509  
   3 N       2.4414897 *  1.3130712 *  0.0000000    1.3131746 *  2.4414667 *
   4 N       3.2429887    2.1539909 *  1.3131746 *  0.0000000    1.1437454 *
   5 N       4.2749579    3.2428509    2.4414667 *  1.1437454 *  0.0000000  

  * ... LESS THAN  3.000


     ATOMIC BASIS SET
     ----------------
 THE CONTRACTED PRIMITIVE FUNCTIONS HAVE BEEN UNNORMALIZED
 THE CONTRACTED BASIS FUNCTIONS ARE NOW NORMALIZED TO UNITY

  SHELL TYPE  PRIMITIVE        EXPONENT          CONTRACTION COEFFICIENT(S)

 N         

      1   S       1          4173.5114600    0.001834772160
      1   S       2           627.4579110    0.013994627002
      1   S       3           142.9020930    0.068586551812
      1   S       4            40.2343293    0.232240873040
      1   S       5            12.8202129    0.469069948082
      1   S       6             4.3904370    0.360455199063

      2   L       7            11.6263619   -0.114961181702    0.067579743878
      2   L       8             2.7162798   -0.169117478561    0.323907295893
      2   L       9             0.7722184    1.145851947027    0.740895139755

      3   L      10             0.2120315    1.000000000000    1.000000000000

      4   L      11             0.0639000    1.000000000000    1.000000000000

      5   D      12             0.8000000    1.000000000000

 N         

      6   S      13          4173.5114600    0.001834772160
      6   S      14           627.4579110    0.013994627002
      6   S      15           142.9020930    0.068586551812
      6   S      16            40.2343293    0.232240873040
      6   S      17            12.8202129    0.469069948082
      6   S      18             4.3904370    0.360455199063

      7   L      19            11.6263619   -0.114961181702    0.067579743878
      7   L      20             2.7162798   -0.169117478561    0.323907295893
      7   L      21             0.7722184    1.145851947027    0.740895139755

      8   L      22             0.2120315    1.000000000000    1.000000000000

      9   L      23             0.0639000    1.000000000000    1.000000000000

     10   D      24             0.8000000    1.000000000000

 N         

     11   S      25          4173.5114600    0.001834772160
     11   S      26           627.4579110    0.013994627002
     11   S      27           142.9020930    0.068586551812
     11   S      28            40.2343293    0.232240873040
     11   S      29            12.8202129    0.469069948082
     11   S      30             4.3904370    0.360455199063

     12   L      31            11.6263619   -0.114961181702    0.067579743878
     12   L      32             2.7162798   -0.169117478561    0.323907295893
     12   L      33             0.7722184    1.145851947027    0.740895139755

     13   L      34             0.2120315    1.000000000000    1.000000000000

     14   L      35             0.0639000    1.000000000000    1.000000000000

     15   D      36             0.8000000    1.000000000000

 N         

     16   S      37          4173.5114600    0.001834772160
     16   S      38           627.4579110    0.013994627002
     16   S      39           142.9020930    0.068586551812
     16   S      40            40.2343293    0.232240873040
     16   S      41            12.8202129    0.469069948082
     16   S      42             4.3904370    0.360455199063

     17   L      43            11.6263619   -0.114961181702    0.067579743878
     17   L      44             2.7162798   -0.169117478561    0.323907295893
     17   L      45             0.7722184    1.145851947027    0.740895139755

     18   L      46             0.2120315    1.000000000000    1.000000000000

     19   L      47             0.0639000    1.000000000000    1.000000000000

     20   D      48             0.8000000    1.000000000000

 N         

     21   S      49          4173.5114600    0.001834772160
     21   S      50           627.4579110    0.013994627002
     21   S      51           142.9020930    0.068586551812
     21   S      52            40.2343293    0.232240873040
     21   S      53            12.8202129    0.469069948082
     21   S      54             4.3904370    0.360455199063

     22   L      55            11.6263619   -0.114961181702    0.067579743878
     22   L      56             2.7162798   -0.169117478561    0.323907295893
     22   L      57             0.7722184    1.145851947027    0.740895139755

     23   L      58             0.2120315    1.000000000000    1.000000000000

     24   L      59             0.0639000    1.000000000000    1.000000000000

     25   D      60             0.8000000    1.000000000000

 TOTAL NUMBER OF BASIS SET SHELLS             =   25
 NUMBER OF CARTESIAN GAUSSIAN BASIS FUNCTIONS =   95
 NUMBER OF ELECTRONS                          =   34
 CHARGE OF MOLECULE                           =    1
 SPIN MULTIPLICITY                            =    1
 NUMBER OF OCCUPIED ORBITALS (ALPHA)          =   17
 NUMBER OF OCCUPIED ORBITALS (BETA )          =   17
 TOTAL NUMBER OF ATOMS                        =    5
 THE NUCLEAR REPULSION ENERGY IS      140.1681629786

     $CONTRL OPTIONS
     ---------------
 SCFTYP=RHF          RUNTYP=GRADIENT     EXETYP=RUN     
 MPLEVL=       2     CITYP =NONE         CCTYP =NONE         VBTYP =NONE    
 DFTTYP=NONE         TDDFT =NONE    
 MULT  =       1     ICHARG=       1     NZVAR =       0     COORD =UNIQUE  
 PP    =NONE         RELWFN=NONE         LOCAL =NONE         NUMGRD=       F
 ISPHER=      -1     NOSYM =       0     MAXIT =      30     UNITS =ANGS    
 PLTORB=       F     MOLPLT=       F     AIMPAC=       F     FRIEND=        
 NPRINT=       7     IREST =       0     GEOM  =INPUT   
 NORMF =       0     NORMP =       0     ITOL  =      20     ICUT  =       9
 INTTYP=BEST         GRDTYP=BEST         QMTTOL= 1.0E-06

     $SYSTEM OPTIONS
     ---------------
  REPLICATED MEMORY=     2000000 WORDS (ON EVERY NODE).
 DISTRIBUTED MEMDDI=          10 MILLION WORDS IN AGGREGATE,
 MEMDDI DISTRIBUTED OVER   1 PROCESSORS IS    10000000 WORDS/PROCESSOR.
 TOTAL MEMORY REQUESTED ON EACH PROCESSOR=    12000000 WORDS.
 TIMLIM=      525600.00 MINUTES, OR     365.0 DAYS.
 PARALL= T  BALTYP=  DLB     KDIAG=    0  COREFL= F
 MXSEQ2=     300 MXSEQ3=     150  mem10=         0

          ----------------
          PROPERTIES INPUT
          ----------------

     MOMENTS            FIELD           POTENTIAL          DENSITY
 IEMOM =       1   IEFLD =       0   IEPOT =       0   IEDEN =       0
 WHERE =COMASS     WHERE =NUCLEI     WHERE =NUCLEI     WHERE =NUCLEI  
 OUTPUT=BOTH       OUTPUT=BOTH       OUTPUT=BOTH       OUTPUT=BOTH    
 IEMINT=       0   IEFINT=       0                     IEDINT=       0
                                                       MORB  =       0
          EXTRAPOLATION IN EFFECT
          SOSCF IN EFFECT
 ORBITAL PRINTING OPTION: NPREO=     1    95     2     1

     -------------------------------
     INTEGRAL TRANSFORMATION OPTIONS
     -------------------------------
     NWORD  =            0
     CUTOFF = 1.0E-09     MPTRAN =       0
     DIRTRF =       F     AOINTS =DUP     

          ----------------------
          INTEGRAL INPUT OPTIONS
          ----------------------
 NOPK  =       1 NORDER=       0 SCHWRZ=       F

          -----------------------
          MP2 CONTROL INFORMATION
          -----------------------
          NACORE =        5  NBCORE =        5
          LMOMP2 =        F  AOINTS = DUP     
          METHOD =        2  NWORD  =               0
          MP2PRP =        F  OSPT   = NONE    
          CUTOFF = 1.00E-09  CPHFBS = BASISAO 
          CODE   = IMS     

          NUMBER OF CORE -A-  ORBITALS =     5
          NUMBER OF CORE -B-  ORBITALS =     5
          NUMBER OF OCC. -A-  ORBITALS =    17
          NUMBER OF OCC. -B-  ORBITALS =    17
          NUMBER OF MOLECULAR ORBITALS =    95
          NUMBER OF   BASIS  FUNCTIONS =    95


     ------------------------------------------
     THE POINT GROUP IS C1 , NAXIS= 0, ORDER= 1
     ------------------------------------------

     DIMENSIONS OF THE SYMMETRY SUBSPACES ARE
 A   =   95

 ..... DONE SETTING UP THE RUN .....
 CPU     0: STEP CPU TIME=     0.01 TOTAL CPU TIME=        0.0 (    0.0 MIN)
 TOTAL WALL CLOCK TIME=        0.0 SECONDS, CPU UTILIZATION IS  33.33%

                    --------------------------------
                    SINGLE POINT ENERGY AND GRADIENT
                    --------------------------------

          ********************
          1 ELECTRON INTEGRALS
          ********************
 ...... END OF ONE-ELECTRON INTEGRALS ......
 CPU     0: STEP CPU TIME=     0.00 TOTAL CPU TIME=        0.0 (    0.0 MIN)
 TOTAL WALL CLOCK TIME=        0.0 SECONDS, CPU UTILIZATION IS  33.33%

          -------------
          GUESS OPTIONS
          -------------
          GUESS =HUCKEL            NORB  =       0          NORDER=       0
          MIX   =       F          PRTMO =       F          PUNMO =       F
          TOLZ  = 1.0E-08          TOLE  = 1.0E-05
          SYMDEN=       F          PURIFY=       F

 INITIAL GUESS ORBITALS GENERATED BY HUCKEL   ROUTINE.
 HUCKEL GUESS REQUIRES     72220 WORDS.

 SYMMETRIES FOR INITIAL GUESS ORBITALS FOLLOW.   BOTH SET(S).
    17 ORBITALS ARE OCCUPIED (    5 CORE ORBITALS).
     6=A        7=A        8=A        9=A       10=A       11=A       12=A   
    13=A       14=A       15=A       16=A       17=A       18=A       19=A   
    20=A       21=A       22=A       23=A       24=A       25=A       26=A   
    27=A   
 ...... END OF INITIAL ORBITAL SELECTION ......
 CPU     0: STEP CPU TIME=     0.01 TOTAL CPU TIME=        0.0 (    0.0 MIN)
 TOTAL WALL CLOCK TIME=        0.0 SECONDS, CPU UTILIZATION IS  50.00%

                    ----------------------
                    AO INTEGRAL TECHNOLOGY
                    ----------------------
     S,P,L SHELL ROTATED AXIS INTEGRALS, REPROGRAMMED BY
        KAZUYA ISHIMURA (IMS) AND JOSE SIERRA (SYNSTAR).
     S,P,D,L SHELL ROTATED AXIS INTEGRALS PROGRAMMED BY
        KAZUYA ISHIMURA (INSTITUTE FOR MOLECULAR SCIENCE).
     S,P,D,F,G SHELL TO TOTAL QUARTET ANGULAR MOMENTUM SUM 5,
        ERIC PROGRAM BY GRAHAM FLETCHER (ELORET AND NASA ADVANCED
        SUPERCOMPUTING DIVISION, AMES RESEARCH CENTER).
     S,P,D,F,G,L SHELL GENERAL RYS QUADRATURE PROGRAMMED BY
        MICHEL DUPUIS (PACIFIC NORTHWEST NATIONAL LABORATORY).

          --------------------
          2 ELECTRON INTEGRALS
          --------------------

 THE -PK- OPTION IS OFF, THE INTEGRALS ARE NOT IN SUPERMATRIX FORM.
 STORING   15000 INTEGRALS/RECORD ON DISK, USING 12 BYTES/INTEGRAL.
 TWO ELECTRON INTEGRAL EVALUATION REQUIRES   90721 WORDS OF MEMORY.
 II,JST,KST,LST =  1  1  1  1 NREC =         1 INTLOC =    1
 II,JST,KST,LST =  2  1  1  1 NREC =         1 INTLOC =    2
 II,JST,KST,LST =  3  1  1  1 NREC =         1 INTLOC =   34
 II,JST,KST,LST =  4  1  1  1 NREC =         1 INTLOC =  214
 II,JST,KST,LST =  5  1  1  1 NREC =         1 INTLOC =  776
 II,JST,KST,LST =  6  1  1  1 NREC =         1 INTLOC = 2864
 II,JST,KST,LST =  7  1  1  1 NREC =         1 INTLOC = 6873
 II,JST,KST,LST =  8  1  1  1 NREC =         2 INTLOC =14781
 II,JST,KST,LST =  9  1  1  1 NREC =         5 INTLOC = 6517
 II,JST,KST,LST = 10  1  1  1 NREC =         9 INTLOC =  963
 II,JST,KST,LST = 11  1  1  1 NREC =        17 INTLOC = 4341
 II,JST,KST,LST = 12  1  1  1 NREC =        19 INTLOC = 2804
 II,JST,KST,LST = 13  1  1  1 NREC =        28 INTLOC =10217
 II,JST,KST,LST = 14  1  1  1 NREC =        41 INTLOC = 3063
 II,JST,KST,LST = 15  1  1  1 NREC =        57 INTLOC = 3206
 II,JST,KST,LST = 16  1  1  1 NREC =        88 INTLOC =11969
 II,JST,KST,LST = 17  1  1  1 NREC =        93 INTLOC =12729
 II,JST,KST,LST = 18  1  1  1 NREC =       122 INTLOC =  487
 II,JST,KST,LST = 19  1  1  1 NREC =       157 INTLOC = 5761
 II,JST,KST,LST = 20  1  1  1 NREC =       199 INTLOC =10829
 II,JST,KST,LST = 21  1  1  1 NREC =       275 INTLOC = 4091
 II,JST,KST,LST = 22  1  1  1 NREC =       284 INTLOC =14205
 II,JST,KST,LST = 23  1  1  1 NREC =       337 INTLOC =10785
 II,JST,KST,LST = 24  1  1  1 NREC =       411 INTLOC = 9287
 II,JST,KST,LST = 25  1  1  1 NREC =       497 INTLOC =14955
 TOTAL NUMBER OF NONZERO TWO-ELECTRON INTEGRALS =             9365484
        625 INTEGRAL RECORDS WERE STORED ON DISK FILE  8.
  ...... END OF TWO-ELECTRON INTEGRALS .....
 CPU     0: STEP CPU TIME=     0.40 TOTAL CPU TIME=        0.4 (    0.0 MIN)
 TOTAL WALL CLOCK TIME=        0.4 SECONDS, CPU UTILIZATION IS  95.45%

          --------------------------
                 RHF SCF CALCULATION
          --------------------------

     NUCLEAR ENERGY =       140.1681629786
     MAXIT =   30     NPUNCH=    2
     EXTRAP=T  DAMP=F  SHIFT=F  RSTRCT=F  DIIS=F  DEM=F  SOSCF=T
     DENSITY MATRIX CONV=  1.00E-06
     SOSCF WILL OPTIMIZE    1326 ORBITAL ROTATIONS, SOGTOL=   0.250
     MEMORY REQUIRED FOR RHF ITERS=     99809 WORDS.

 ITER EX DEM     TOTAL ENERGY        E CHANGE  DENSITY CHANGE     ORB. GRAD
   1  0  0     -270.2924646558  -270.2924646558  14.598867387   0.000000000
   2  1  0     -270.8935469995    -0.6010823437   1.523682920   0.326965777
   3  2  0     -270.4637131730     0.4298338265   0.876907566   0.384313656
   4  3  0     -269.6765511771     0.7871619959   3.430894999   0.445039353
   5  0  0     -267.9795122580     1.6970389191   2.731501371   0.559443902
          ---------------START SECOND ORDER SCF---------------
   6  1  0     -271.7418622209    -3.7623499629   0.775333881   0.038429806
   7  2  0     -271.7556688914    -0.0138066705   0.410753587   0.038294951
   8  3  0     -271.7676413917    -0.0119725003   0.117144694   0.015274920
   9  4  0     -271.7683381065    -0.0006967148   0.044411961   0.009399489
  10  5  0     -271.7693361230    -0.0009980165   0.029534803   0.001987758
  11  6  0     -271.7694300544    -0.0000939315   0.022786588   0.001206020
  12  7  0     -271.7694713673    -0.0000413128   0.003167237   0.000333452
  13  8  0     -271.7694734466    -0.0000020793   0.001533503   0.000123546
  14  9  0     -271.7694738349    -0.0000003883   0.000253736   0.000038306
  15 10  0     -271.7694738600    -0.0000000251   0.000179126   0.000014553
  16 11  0     -271.7694738631    -0.0000000032   0.000067118   0.000009891
  17 12  0     -271.7694738649    -0.0000000018   0.000015887   0.000001467
  18 13  0     -271.7694738650    -0.0000000000   0.000012740   0.000000373
  19 14  0     -271.7694738650    -0.0000000000   0.000002168   0.000000084
  20 15  0     -271.7694738650    -0.0000000000   0.000001074   0.000000032
  21 16  0     -271.7694738650     0.0000000000   0.000000000   0.000000010

          -----------------
          DENSITY CONVERGED
          -----------------
     TIME TO FORM FOCK OPERATORS=       2.0 SECONDS (       0.1 SEC/ITER)
     TIME TO SOLVE SCF EQUATIONS=       0.1 SECONDS (       0.0 SEC/ITER)

 FINAL RHF ENERGY IS     -271.7694738650 AFTER  21 ITERATIONS

          ------------
          EIGENVECTORS
          ------------

                      1          2          3          4          5
                  -16.0778   -16.0778   -16.0302   -16.0302   -15.9821
                     A          A          A          A          A   
    1  N  1  S    0.021587   0.014377   0.978810  -0.179429   0.000499
    2  N  1  S    0.000418   0.000207   0.023244  -0.004222   0.000375
    3  N  1  X    0.000040   0.000023  -0.001933   0.000373  -0.000298
    4  N  1  Y   -0.000027  -0.000006   0.002703  -0.000507   0.000373
    5  N  1  Z   -0.000000   0.000008   0.001182  -0.000216   0.000145
    6  N  1  S   -0.000177   0.001317  -0.000453  -0.000639   0.000935
    7  N  1  X    0.000154  -0.000259   0.000149   0.000105  -0.000384
    8  N  1  Y   -0.000136   0.000380  -0.000233  -0.000188   0.000523
    9  N  1  Z   -0.000028   0.000173  -0.000112  -0.000099   0.000223
   10  N  1  S    0.000483   0.001588  -0.026862   0.000942   0.028158
   11  N  1  X    0.000123  -0.000246   0.002786   0.000144  -0.003426
   12  N  1  Y   -0.000267   0.000011  -0.003622   0.000269   0.004248
   13  N  1  Z   -0.000155  -0.000129  -0.001475   0.000304   0.001642
   14  N  1 XX   -0.000151  -0.000119  -0.002634   0.000494   0.000186
   15  N  1 YY   -0.000167  -0.000122  -0.001988   0.000366   0.000239
   16  N  1 ZZ   -0.000080  -0.000080  -0.002959   0.000555   0.000005
   17  N  1 XY    0.000103   0.000051  -0.000968   0.000188  -0.000272
   18  N  1 XZ    0.000039   0.000012  -0.000500   0.000103  -0.000087
   19  N  1 YZ   -0.000029  -0.000021   0.000548  -0.000100   0.000111
   20  N  2  S    0.827681   0.551712  -0.026115   0.004795  -0.004193
   21  N  2  S    0.020491   0.013518  -0.000660   0.000184   0.000316
   22  N  2  X    0.000142   0.000140  -0.000351   0.000046  -0.000169
   23  N  2  Y    0.000093   0.000007   0.000463  -0.000039   0.000179
   24  N  2  Z    0.000157   0.000084   0.000192  -0.000007   0.000055
   25  N  2  S   -0.001307  -0.000857   0.000747   0.000359   0.001079
   26  N  2  X    0.000362  -0.000527  -0.001046   0.000498  -0.000884
   27  N  2  Y   -0.000762   0.000680   0.001461  -0.000661   0.001250
   28  N  2  Z   -0.000435   0.000275   0.000639  -0.000276   0.000552
   29  N  2  S    0.008442   0.002619   0.006236  -0.004025  -0.013757
   30  N  2  X   -0.001726  -0.000701   0.009560  -0.000850  -0.007519
   31  N  2  Y    0.002984   0.001981  -0.014793  -0.000530   0.012825
   32  N  2  Z    0.001533   0.001267  -0.007041  -0.000916   0.006532
   33  N  2 XX   -0.002721  -0.001820  -0.000524   0.000056  -0.000254
   34  N  2 YY   -0.002291  -0.001539  -0.001284   0.000262  -0.000943
   35  N  2 ZZ   -0.002823  -0.001924  -0.000213   0.000066  -0.000236
   36  N  2 XY   -0.000502  -0.000376   0.001052  -0.000166   0.000625
   37  N  2 XZ   -0.000227  -0.000141   0.000490  -0.000124   0.000287
   38  N  2 YZ    0.000425   0.000323  -0.000732   0.000130  -0.000670
   39  N  3  S    0.001104   0.005510  -0.000569  -0.000393   0.995343
   40  N  3  S    0.000077   0.000383   0.000143   0.000099   0.024518
   41  N  3  X   -0.000024   0.000032   0.000016  -0.000283  -0.001657
   42  N  3  Y    0.000028   0.000024  -0.000239   0.000068  -0.001775
   43  N  3  Z    0.000011   0.000038  -0.000191  -0.000101  -0.002412
   44  N  3  S   -0.000083  -0.000420  -0.001572  -0.001086  -0.005879
   45  N  3  X    0.000346   0.000251  -0.000010   0.000113   0.001478
   46  N  3  Y   -0.000160   0.000375   0.000094  -0.000030   0.001582
   47  N  3  Z    0.000060   0.000453   0.000073   0.000038   0.002149
   48  N  3  S   -0.002256  -0.011262   0.031342   0.021628  -0.028472
   49  N  3  X   -0.002111   0.001097  -0.001858  -0.002286   0.001454
   50  N  3  Y    0.001915   0.000340  -0.002862  -0.001182   0.001557
   51  N  3  Z    0.000422   0.000898  -0.003433  -0.002263   0.002113
   52  N  3 XX    0.000186  -0.000487   0.000166   0.000570  -0.002407
   53  N  3 YY   -0.000293  -0.000265   0.000478  -0.000057  -0.002486
   54  N  3 ZZ   -0.000077  -0.000172   0.000253   0.000105  -0.002593
   55  N  3 XY    0.000087   0.000205  -0.000164  -0.000040  -0.000166
   56  N  3 XZ    0.000189  -0.000158  -0.000063   0.000312   0.000026
   57  N  3 YZ   -0.000240  -0.000165   0.000322  -0.000110   0.000079
   58  N  4  S   -0.551748   0.827656  -0.004784  -0.026138  -0.004191
   59  N  4  S   -0.013714   0.020361  -0.000062  -0.000684   0.000316
   60  N  4  X   -0.000077   0.000017   0.000149   0.000532   0.000218
   61  N  4  Y   -0.000083   0.000175  -0.000055  -0.000248  -0.000127
   62  N  4  Z   -0.000112   0.000154   0.000038   0.000092   0.000015
   63  N  4  S    0.000877  -0.001294   0.000601   0.000570   0.001079
   64  N  4  X    0.001116   0.000412  -0.000121   0.001892   0.001474
   65  N  4  Y   -0.000345  -0.000267   0.000071  -0.000814  -0.000618
   66  N  4  Z    0.000335   0.000008  -0.000008   0.000379   0.000307
   67  N  4  S   -0.006783   0.005662  -0.001547   0.007268  -0.013767
   68  N  4  X   -0.002337   0.003391  -0.006553  -0.016024   0.014889
   69  N  4  Y    0.000906  -0.000748   0.001509   0.006381  -0.004937
   70  N  4  Z   -0.000545   0.001268  -0.002406  -0.003634   0.004207
   71  N  4 XX    0.001361  -0.002023  -0.000316  -0.001802  -0.001285
   72  N  4 YY    0.001906  -0.002899  -0.000055  -0.000197  -0.000068
   73  N  4 ZZ    0.001934  -0.002969   0.000014  -0.000027  -0.000079
   74  N  4 XY    0.000247  -0.000428   0.000189   0.000835   0.000459
   75  N  4 XZ   -0.000197   0.000332  -0.000085  -0.000509  -0.000518
   76  N  4 YZ    0.000062  -0.000053  -0.000005   0.000215   0.000084
   77  N  5  S   -0.014406   0.021592   0.179443   0.978807   0.000499
   78  N  5  S   -0.000307   0.000352   0.004298   0.023232   0.000375
   79  N  5  X    0.000028  -0.000022   0.000571   0.003194   0.000444
   80  N  5  Y   -0.000022   0.000031  -0.000235  -0.001365  -0.000217
   81  N  5  Z   -0.000002   0.000013   0.000124   0.000651   0.000068
   82  N  5  S    0.000670   0.001149  -0.000757  -0.000195   0.000936
   83  N  5  X    0.000327   0.000347  -0.000299  -0.000177   0.000618
   84  N  5  Y   -0.000180  -0.000120   0.000099   0.000071  -0.000273
   85  N  5  Z    0.000033   0.000094  -0.000086  -0.000040   0.000120
   86  N  5  S    0.000166   0.001651  -0.008652  -0.025457   0.028168
   87  N  5  X    0.000301  -0.000074  -0.001277  -0.004116   0.005070
   88  N  5  Y   -0.000151  -0.000179   0.000870   0.001811  -0.002492
   89  N  5  Z    0.000040  -0.000188   0.000010  -0.000799   0.000764
   90  N  5 XX    0.000138  -0.000215  -0.000284  -0.001537   0.000360
   91  N  5 YY    0.000070  -0.000137  -0.000523  -0.002923   0.000091
   92  N  5 ZZ    0.000037  -0.000098  -0.000559  -0.003131  -0.000021
   93  N  5 XY   -0.000068   0.000079  -0.000138  -0.000796  -0.000245
   94  N  5 XZ    0.000004  -0.000012   0.000066   0.000358   0.000051
   95  N  5 YZ   -0.000014   0.000004  -0.000037  -0.000258  -0.000018

                      6          7          8          9         10
                   -1.8149    -1.7611    -1.6090    -1.2970    -1.0220
                     A          A          A          A          A   
    1  N  1  S   -0.076846  -0.104674   0.087994   0.069377   0.050173
    2  N  1  S    0.161105   0.222686  -0.196887  -0.161517  -0.119782
    3  N  1  X   -0.056194  -0.076073   0.060172   0.030519  -0.160748
    4  N  1  Y    0.081861   0.110976  -0.083942  -0.016906   0.038120
    5  N  1  Z    0.037124   0.050388  -0.036641   0.002901  -0.057818
    6  N  1  S    0.086573   0.179863  -0.170373  -0.141072  -0.158092
    7  N  1  X   -0.007583  -0.025583   0.023634   0.009220  -0.060140
    8  N  1  Y    0.011854   0.035934  -0.030413  -0.004132   0.010346
    9  N  1  Z    0.005687   0.015783  -0.012252   0.001694  -0.024908
   10  N  1  S   -0.109187   0.135327  -0.522673  -0.564890  -0.881115
   11  N  1  X    0.017118  -0.013524   0.056000   0.046764   0.101507
   12  N  1  Y   -0.016381   0.021423  -0.068617  -0.068922  -0.118115
   13  N  1  Z   -0.004132   0.010352  -0.026159  -0.031534  -0.042154
   14  N  1 XX   -0.001728  -0.002522   0.001250  -0.001063   0.018534
   15  N  1 YY    0.005331   0.007735  -0.005424   0.001721  -0.003567
   16  N  1 ZZ   -0.004551  -0.007169   0.006921   0.006060  -0.008184
   17  N  1 XY   -0.009676  -0.014738   0.012900   0.006481  -0.014184
   18  N  1 XZ   -0.004634  -0.007049   0.005648   0.001504   0.000566
   19  N  1 YZ    0.006607   0.009600  -0.006956   0.000439  -0.010629
   20  N  2  S   -0.126479  -0.121657   0.002822  -0.079815  -0.044784
   21  N  2  S    0.277698   0.260990  -0.002376   0.187803   0.105700
   22  N  2  X    0.018099   0.075364  -0.137655  -0.101664  -0.221264
   23  N  2  Y   -0.015660  -0.095887   0.216078   0.238632  -0.039784
   24  N  2  Z   -0.002993  -0.038147   0.103963   0.142954  -0.156766
   25  N  2  S    0.165642   0.176913   0.007966   0.228475   0.184395
   26  N  2  X    0.006063  -0.014879  -0.011467  -0.040756  -0.142497
   27  N  2  Y   -0.008765   0.026155   0.011178   0.090157   0.009189
   28  N  2  Z   -0.003947   0.013576   0.002948   0.052702  -0.071840
   29  N  2  S    0.015621  -0.299468   0.164580  -0.050594   0.034957
   30  N  2  X    0.023775  -0.020694   0.169176   0.264384   0.306610
   31  N  2  Y   -0.059386   0.008591  -0.284508  -0.373080  -0.521710
   32  N  2  Z   -0.036454  -0.004331  -0.143593  -0.164623  -0.265386
   33  N  2 XX    0.000545  -0.002237   0.000210  -0.005907  -0.002378
   34  N  2 YY    0.014624   0.007478   0.008405   0.006501   0.001027
   35  N  2 ZZ   -0.004842  -0.006684   0.002373   0.001607  -0.001356
   36  N  2 XY   -0.019016  -0.014048  -0.004441  -0.001446  -0.001681
   37  N  2 XZ   -0.008232  -0.005396  -0.002824  -0.001812  -0.001607
   38  N  2 YZ    0.014497   0.011075   0.006783   0.010289   0.002058
   39  N  3  S   -0.095687  -0.000123  -0.139085   0.000009   0.086634
   40  N  3  S    0.196305   0.000255   0.296721  -0.000018  -0.203970
   41  N  3  X   -0.039378   0.051775  -0.050347   0.267208  -0.116613
   42  N  3  Y   -0.042135  -0.041120  -0.053908  -0.211668  -0.124903
   43  N  3  Z   -0.057306  -0.005465  -0.073264  -0.027872  -0.169514
   44  N  3  S    0.161657   0.000237   0.310861  -0.000046  -0.349157
   45  N  3  X   -0.018849  -0.014032  -0.032402   0.062882  -0.038022
   46  N  3  Y   -0.020218   0.011050  -0.034705  -0.049796  -0.040730
   47  N  3  Z   -0.027460   0.001432  -0.047145  -0.006556  -0.055229
   48  N  3  S    0.142709   0.000267   0.721387  -0.000075   1.686590
   49  N  3  X    0.001464   0.071941  -0.044305   0.111390  -0.126173
   50  N  3  Y    0.001663  -0.057028  -0.047387  -0.088204  -0.135167
   51  N  3  Z    0.002198  -0.007491  -0.064365  -0.011628  -0.183556
   52  N  3 XX    0.004934  -0.006995   0.002451  -0.031216  -0.006317
   53  N  3 YY    0.000835   0.005941  -0.001264   0.026473  -0.001006
   54  N  3 ZZ   -0.003173   0.001054  -0.003801   0.004740   0.015018
   55  N  3 XY   -0.006731  -0.001130  -0.004771  -0.005025   0.021783
   56  N  3 XZ    0.004892  -0.005461   0.006879  -0.024341   0.017970
   57  N  3 YZ    0.008034   0.005125   0.010043   0.022781   0.016929
   58  N  4  S   -0.126656   0.121476   0.002755   0.079827  -0.044786
   59  N  4  S    0.278067  -0.260578  -0.002223  -0.187835   0.105704
   60  N  4  X   -0.019689   0.114287   0.252379  -0.271354  -0.009617
   61  N  4  Y    0.014319  -0.054453  -0.093104   0.057022  -0.207600
   62  N  4  Z    0.000779   0.018587   0.063404  -0.104205  -0.178804
   63  N  4  S    0.165873  -0.176615   0.008119  -0.228523   0.184392
   64  N  4  X   -0.010231  -0.030347   0.013700  -0.102871   0.031187
   65  N  4  Y    0.004207   0.009649  -0.008771   0.023663  -0.128475
   66  N  4  Z   -0.002249  -0.008875   0.000330  -0.037760  -0.089934
   67  N  4  S    0.015284   0.299555   0.164553   0.050262   0.035390
   68  N  4  X   -0.067324  -0.012512  -0.330622   0.440169  -0.605761
   69  N  4  Y    0.012729   0.017698   0.111636  -0.185109   0.201407
   70  N  4  Z   -0.026943   0.007603  -0.091701   0.091345  -0.170528
   71  N  4 XX    0.024142  -0.014522   0.011164  -0.008652   0.001964
   72  N  4 YY   -0.005390   0.006775  -0.000872   0.005833  -0.002680
   73  N  4 ZZ   -0.008428   0.009216   0.000706   0.000605  -0.001991
   74  N  4 XY   -0.015250   0.011331  -0.002683  -0.000896  -0.000985
   75  N  4 XZ    0.010208  -0.007737   0.005687  -0.009525   0.001780
   76  N  4 YZ   -0.002748   0.001224  -0.001184   0.000323  -0.001109
   77  N  5  S   -0.077017   0.104624   0.087915  -0.069374   0.050180
   78  N  5  S    0.161457  -0.222573  -0.196711   0.161507  -0.119798
   79  N  5  X    0.096459  -0.130391  -0.098971   0.022699   0.064928
   80  N  5  Y   -0.039089   0.052759   0.042306  -0.025313  -0.140885
   81  N  5  Z    0.021367  -0.028972  -0.020143  -0.008399  -0.081290
   82  N  5  S    0.086870  -0.179862  -0.170246   0.141066  -0.158110
   83  N  5  X    0.013929  -0.042386  -0.036132   0.005815   0.020089
   84  N  5  Y   -0.005171   0.017973   0.017007  -0.007789  -0.053298
   85  N  5  Z    0.003475  -0.008750  -0.006065  -0.003251  -0.033247
   86  N  5  S   -0.109071  -0.135715  -0.522710   0.565298  -0.881321
   87  N  5  X   -0.020085  -0.025073  -0.081953   0.080916  -0.141847
   88  N  5  Y    0.013188   0.009154   0.040859  -0.032480   0.075006
   89  N  5  Z   -0.000314  -0.006352  -0.011918   0.018455  -0.017069
   90  N  5 XX    0.010046  -0.014795  -0.011381   0.000709   0.000376
   91  N  5 YY   -0.004654   0.006967   0.005301  -0.001416   0.011870
   92  N  5 ZZ   -0.006346   0.009788   0.008828  -0.006011  -0.005463
   93  N  5 XY   -0.007812   0.011961   0.010873  -0.006544  -0.017111
   94  N  5 XZ    0.004567  -0.006513  -0.004268  -0.001756  -0.013558
   95  N  5 YZ   -0.001996   0.003087   0.002317  -0.000198   0.002591

                     11         12         13         14         15
                   -1.0034    -0.9731    -0.9669    -0.9147    -0.8987
                     A          A          A          A          A   
    1  N  1  S   -0.000014   0.094510   0.095735  -0.000004   0.015897
    2  N  1  S    0.000037  -0.220422  -0.226588   0.000010  -0.034442
    3  N  1  X   -0.079910  -0.098768  -0.221112  -0.118968   0.132848
    4  N  1  Y   -0.119864   0.259004   0.230832  -0.178165   0.155354
    5  N  1  Z    0.143302   0.161460   0.069811   0.212730   0.204420
    6  N  1  S    0.000049  -0.418432  -0.414869   0.000000  -0.087111
    7  N  1  X   -0.033097  -0.010158  -0.068146  -0.058294   0.071473
    8  N  1  Y   -0.049641   0.068761   0.060976  -0.087311   0.059910
    9  N  1  Z    0.059352   0.051818   0.013024   0.104238   0.090163
   10  N  1  S    0.000856   0.742708   0.811606  -0.000959  -0.150621
   11  N  1  X    0.000496  -0.094911  -0.101362  -0.000296   0.027432
   12  N  1  Y    0.001006   0.126678   0.135933  -0.000696  -0.016675
   13  N  1  Z   -0.001027   0.053012   0.057120   0.000579   0.001378
   14  N  1 XX    0.011301  -0.005701   0.010193   0.013733  -0.023655
   15  N  1 YY   -0.023502   0.017087   0.009190  -0.028839   0.015777
   16  N  1 ZZ    0.012201   0.002323  -0.006765   0.015104   0.011015
   17  N  1 XY    0.000736  -0.009797  -0.020352   0.000752   0.009009
   18  N  1 XZ   -0.015628  -0.007813  -0.005952  -0.019051  -0.005785
   19  N  1 YZ    0.010335   0.017097   0.004291   0.012575   0.023209
   20  N  2  S    0.000016  -0.040479  -0.039238  -0.000000   0.015826
   21  N  2  S   -0.000038   0.097550   0.092397   0.000008  -0.038590
   22  N  2  X   -0.126845   0.179877   0.003320  -0.135671   0.323552
   23  N  2  Y   -0.190258  -0.075307  -0.151716  -0.203068  -0.013451
   24  N  2  Z    0.227490   0.037237  -0.124949   0.242487   0.169664
   25  N  2  S   -0.000079   0.163147   0.157558   0.000010  -0.042389
   26  N  2  X   -0.067595   0.115422   0.007593  -0.077252   0.192911
   27  N  2  Y   -0.101408  -0.064991  -0.094268  -0.115678   0.013623
   28  N  2  Z    0.121241   0.009959  -0.074557   0.138100   0.119269
   29  N  2  S    0.000122  -0.450427  -0.458772   0.000244  -0.124218
   30  N  2  X    0.000438  -0.191548  -0.218668   0.006152   0.020466
   31  N  2  Y    0.001654   0.296960   0.338015   0.008045  -0.121786
   32  N  2  Z   -0.001050   0.141529   0.160805  -0.010353  -0.090530
   33  N  2 XX   -0.000792   0.000482  -0.004408  -0.009260   0.015303
   34  N  2 YY   -0.002161  -0.008542  -0.004177   0.018154  -0.009947
   35  N  2 ZZ    0.002953  -0.004478  -0.002716  -0.008889  -0.009412
   36  N  2 XY   -0.001516   0.001645   0.001929  -0.001007  -0.008940
   37  N  2 XZ   -0.000128   0.002929   0.000142   0.012428   0.003866
   38  N  2 YZ    0.000057  -0.005472  -0.000914  -0.008216  -0.012422
   39  N  3  S   -0.000036   0.004835   0.000018   0.000003  -0.000038
   40  N  3  S    0.000073  -0.008937  -0.000041   0.000022   0.000087
   41  N  3  X   -0.123646   0.048326  -0.091308  -0.000084  -0.017370
   42  N  3  Y   -0.185444   0.051641   0.072302  -0.000102   0.013926
   43  N  3  Z    0.221696   0.070083   0.009615   0.000108   0.001928
   44  N  3  S    0.000198   0.026741  -0.000021  -0.000206   0.000212
   45  N  3  X   -0.060063   0.015451  -0.025023   0.000060  -0.038166
   46  N  3  Y   -0.090027   0.016501   0.019800  -0.000085   0.030290
   47  N  3  Z    0.107615   0.022382   0.002642   0.000096   0.004020
   48  N  3  S   -0.001585  -0.605480  -0.000441  -0.000962  -0.000445
   49  N  3  X    0.004656   0.043099  -0.068234   0.000192   0.125790
   50  N  3  Y    0.007123   0.046126   0.054051  -0.000037  -0.099568
   51  N  3  Z   -0.008072   0.062613   0.007207   0.000063  -0.013073
   52  N  3 XX    0.011043   0.007139   0.004857  -0.011525   0.011117
   53  N  3 YY    0.017734   0.003659  -0.004105   0.013709  -0.009430
   54  N  3 ZZ   -0.028795  -0.005108  -0.000746  -0.002157  -0.001693
   55  N  3 XY    0.016375  -0.012185   0.000776  -0.004694   0.001779
   56  N  3 XZ   -0.002155  -0.007906   0.003783   0.012620   0.008668
   57  N  3 YZ    0.001675  -0.006724  -0.003547  -0.008400  -0.008129
   58  N  4  S   -0.000056  -0.040534   0.039162   0.000045  -0.015817
   59  N  4  S    0.000145   0.097673  -0.092209  -0.000115   0.038566
   60  N  4  X   -0.127385  -0.108060   0.163083   0.135660   0.062728
   61  N  4  Y   -0.190190   0.152591   0.019780   0.203008  -0.292547
   62  N  4  Z    0.227472   0.067204   0.107821  -0.242405  -0.209961
   63  N  4  S    0.000149   0.163377  -0.157247  -0.000217   0.042371
   64  N  4  X   -0.067908  -0.087184   0.102123   0.077482   0.014103
   65  N  4  Y   -0.101352   0.095434   0.007247   0.115550  -0.177611
   66  N  4  Z    0.121229   0.031033   0.063243  -0.137986  -0.140895
   67  N  4  S   -0.000229  -0.451383   0.458346  -0.001528   0.123964
   68  N  4  X    0.001259   0.347797  -0.394987  -0.003987   0.134186
   69  N  4  Y    0.000922  -0.130434   0.148604  -0.009289  -0.000584
   70  N  4  Z   -0.001214   0.085724  -0.096921   0.010534   0.074593
   71  N  4 XX   -0.001376  -0.009959   0.005064  -0.014465   0.008230
   72  N  4 YY   -0.001413   0.000316   0.003620   0.009923  -0.010061
   73  N  4 ZZ    0.002814  -0.002919   0.002600   0.004514   0.005883
   74  N  4 XY   -0.001802  -0.000031  -0.001821  -0.008592   0.012728
   75  N  4 XZ    0.000575  -0.005213   0.000378   0.013391   0.014521
   76  N  4 YZ   -0.000370   0.002143   0.000421  -0.009040  -0.004771
   77  N  5  S    0.000009   0.094661  -0.095582   0.000047  -0.015867
   78  N  5  S   -0.000055  -0.220776   0.226229  -0.000103   0.034378
   79  N  5  X   -0.080388   0.293079  -0.280326   0.119665  -0.146687
   80  N  5  Y   -0.119799  -0.051704   0.167008   0.177857  -0.144170
   81  N  5  Z    0.143310   0.121175  -0.017569  -0.212566  -0.203191
   82  N  5  S    0.000019  -0.419104   0.414232  -0.000061   0.086906
   83  N  5  X   -0.033272   0.075400  -0.075509   0.058667  -0.053578
   84  N  5  Y   -0.049621   0.000895   0.053008   0.087130  -0.074022
   85  N  5  Z    0.059360   0.043061   0.001966  -0.104160  -0.092121
   86  N  5  S    0.000819   0.743959  -0.810751   0.003200   0.151321
   87  N  5  X    0.000733   0.150317  -0.160758   0.000944   0.022095
   88  N  5  Y    0.000830  -0.067749   0.072081   0.000327  -0.022593
   89  N  5  Z   -0.001042   0.027721  -0.029978  -0.000524  -0.006455
   90  N  5 XX   -0.018614   0.023363  -0.017641   0.022805  -0.015637
   91  N  5 YY    0.011935  -0.007580  -0.002859  -0.014433   0.017609
   92  N  5 ZZ    0.006665  -0.002061   0.007910  -0.008364  -0.005101
   93  N  5 XY   -0.011386  -0.005171   0.019153   0.014016  -0.015314
   94  N  5 XZ    0.016998   0.014898   0.000054  -0.020723  -0.024927
   95  N  5 YZ   -0.011462  -0.004145   0.001232   0.013984   0.005525

                     16         17         18         19         20
                   -0.7877    -0.6964    -0.1782    -0.1745    -0.1658
                     A          A          A          A          A   
    1  N  1  S    0.003836   0.000002   0.000101   0.010746  -0.005525
    2  N  1  S   -0.003233  -0.000007  -0.000323  -0.031634   0.014403
    3  N  1  X   -0.204331   0.117852   0.140694   0.284296  -0.245160
    4  N  1  Y   -0.001023   0.176519   0.205549   0.030914  -0.078471
    5  N  1  Z   -0.115114  -0.210908  -0.242235   0.192135  -0.202041
    6  N  1  S   -0.130790  -0.000035  -0.000002  -0.020116  -0.045827
    7  N  1  X   -0.085190   0.078069   0.145995   0.265855  -0.226572
    8  N  1  Y   -0.042928   0.116910   0.214090   0.053446  -0.119167
    9  N  1  Z   -0.083581  -0.139726  -0.252029   0.201025  -0.225675
   10  N  1  S   -0.252529  -0.001383   0.005410   0.450069  -1.161283
   11  N  1  X    0.031908   0.002340   0.088935   0.104460  -0.029542
   12  N  1  Y   -0.041151   0.003174   0.132151   0.090569  -0.201219
   13  N  1  Z   -0.016625  -0.004216  -0.154491   0.139137  -0.184453
   14  N  1 XX    0.017138  -0.007834   0.003635   0.005497  -0.005593
   15  N  1 YY   -0.005157   0.016185  -0.007920  -0.002059   0.000045
   16  N  1 ZZ   -0.009297  -0.008354   0.004287  -0.001555   0.000829
   17  N  1 XY   -0.013642  -0.000534   0.000023  -0.002062   0.003143
   18  N  1 XZ    0.000655   0.010790  -0.005075   0.000747  -0.000596
   19  N  1 YZ   -0.011095  -0.007130   0.003287  -0.005097   0.002341
   20  N  2  S    0.028609  -0.000003  -0.000486  -0.036813  -0.013567
   21  N  2  S   -0.076414   0.000024   0.001164   0.086889   0.052233
   22  N  2  X   -0.073362   0.029183  -0.138328  -0.267422   0.185406
   23  N  2  Y   -0.148277   0.043747  -0.201725   0.008881   0.097146
   24  N  2  Z   -0.165142  -0.052219   0.239014  -0.149358   0.184295
   25  N  2  S   -0.118473   0.000049   0.003954   0.300214   0.110533
   26  N  2  X    0.003384   0.019409  -0.148292  -0.278278   0.268713
   27  N  2  Y   -0.170029   0.028969  -0.215990   0.039567   0.009434
   28  N  2  Z   -0.140465  -0.034617   0.256786  -0.130304   0.157349
   29  N  2  S    0.227599   0.000887   0.003008   0.392441  -0.320211
   30  N  2  X    0.048831  -0.003086  -0.084740  -0.284842   0.569423
   31  N  2  Y   -0.074659  -0.006276  -0.118096   0.316158  -0.700263
   32  N  2  Z   -0.035197   0.006781   0.145944   0.100699  -0.268560
   33  N  2 XX   -0.024516   0.018044   0.009899   0.021987  -0.022233
   34  N  2 YY    0.008012  -0.045146  -0.027952  -0.014972   0.016044
   35  N  2 ZZ    0.013657   0.027115   0.017993  -0.011633   0.008337
   36  N  2 XY    0.019368  -0.001794  -0.002599  -0.009109   0.004994
   37  N  2 XZ    0.000269  -0.027389  -0.015789   0.001602  -0.008645
   38  N  2 YZ    0.018395   0.018037   0.010002  -0.027996   0.020489
   39  N  3  S   -0.103356   0.000025  -0.000147  -0.000035   0.008204
   40  N  3  S    0.223224  -0.000018   0.000332   0.000067  -0.012326
   41  N  3  X    0.187903  -0.196486  -0.002421  -0.135749  -0.082543
   42  N  3  Y    0.201250  -0.294464   0.001460   0.107658  -0.087777
   43  N  3  Z    0.273576   0.351715  -0.000293   0.014622  -0.119527
   44  N  3  S    0.644817  -0.000570   0.001451  -0.000023   0.037408
   45  N  3  X    0.073240  -0.149422  -0.003379  -0.192166  -0.086359
   46  N  3  Y    0.078415  -0.224333   0.002104   0.152359  -0.091584
   47  N  3  Z    0.106664   0.268009  -0.000306   0.020538  -0.124811
   48  N  3  S    0.075662  -0.006601   0.015587  -0.006053   2.494912
   49  N  3  X   -0.000213   0.005376  -0.006159  -0.275152  -0.278177
   50  N  3  Y   -0.000169   0.006658   0.002507   0.218805  -0.296602
   51  N  3  Z   -0.000200  -0.007235  -0.001472   0.029974  -0.403318
   52  N  3 XX   -0.011861   0.009960  -0.022194  -0.013651   0.013243
   53  N  3 YY   -0.007797   0.015981   0.026225   0.011425   0.002832
   54  N  3 ZZ   -0.007019  -0.025913  -0.004088   0.002221  -0.015958
   55  N  3 XY    0.002826   0.014762  -0.008981  -0.002039  -0.027455
   56  N  3 XZ   -0.011978  -0.001925   0.023904  -0.011201  -0.006941
   57  N  3 YZ   -0.015984   0.001516  -0.015855   0.010410  -0.001242
   58  N  4  S    0.028630   0.000008   0.000632   0.036892  -0.013383
   59  N  4  S   -0.076467  -0.000011  -0.001444  -0.087175   0.051795
   60  N  4  X   -0.148219   0.029254   0.134126  -0.048881   0.075921
   61  N  4  Y   -0.088767   0.043704   0.205208   0.240797   0.184217
   62  N  4  Z   -0.157249  -0.052180  -0.238244   0.180969   0.197140
   63  N  4  S   -0.118538  -0.000301  -0.004824  -0.300833   0.109062
   64  N  4  X   -0.183009   0.020018   0.142891  -0.082777  -0.030890
   65  N  4  Y   -0.022167   0.028758   0.220119   0.245740   0.246994
   66  N  4  Z   -0.120987  -0.034400  -0.256181   0.166714   0.189987
   67  N  4  S    0.227569  -0.004479  -0.002677  -0.391172  -0.321714
   68  N  4  X   -0.087401   0.002695   0.065569  -0.376957  -0.838954
   69  N  4  Y    0.033377  -0.008320   0.128267   0.210082   0.415054
   70  N  4  Z   -0.021151   0.008332  -0.148036  -0.031129  -0.122126
   71  N  4 XX    0.003258  -0.035090   0.021725   0.015707   0.017013
   72  N  4 YY   -0.015576   0.017869  -0.009232  -0.016873  -0.017329
   73  N  4 ZZ    0.009464   0.017228  -0.012405   0.005775   0.002490
   74  N  4 XY    0.023820  -0.023389   0.015145   0.014985   0.011343
   75  N  4 XZ    0.021939   0.030621  -0.017552   0.028606   0.022072
   76  N  4 YZ   -0.001887  -0.020652   0.012155  -0.000207  -0.008121
   77  N  5  S    0.003830  -0.000023  -0.000230  -0.010732  -0.005578
   78  N  5  S   -0.003217   0.000001   0.000683   0.031592   0.014557
   79  N  5  X    0.029462   0.118312  -0.136941   0.008513  -0.047127
   80  N  5  Y   -0.186267   0.176253  -0.208886  -0.261828  -0.235912
   81  N  5  Z   -0.139225  -0.210615   0.241463  -0.221141  -0.224323
   82  N  5  S   -0.130809   0.000773   0.000059   0.020460  -0.045735
   83  N  5  X   -0.033309   0.078673  -0.143311  -0.018226  -0.093658
   84  N  5  Y   -0.083951   0.116606  -0.216754  -0.248422  -0.224942
   85  N  5  Z   -0.088931  -0.139471   0.251256  -0.225282  -0.241349
   86  N  5  S   -0.252589   0.011563  -0.023451  -0.444267  -1.163912
   87  N  5  X   -0.048937   0.004325  -0.091794  -0.081208  -0.211598
   88  N  5  Y    0.022949   0.002509  -0.131025  -0.108033  -0.057075
   89  N  5  Z   -0.008232  -0.003660   0.153779  -0.140550  -0.166980
   90  N  5 XX   -0.001491   0.012801   0.006221   0.002046  -0.000850
   91  N  5 YY    0.010666  -0.008284  -0.003763  -0.004283  -0.004008
   92  N  5 ZZ   -0.006493  -0.004545  -0.002509   0.000368   0.000130
   93  N  5 XY   -0.016626   0.007817   0.003953   0.003218   0.003922
   94  N  5 XZ   -0.013850  -0.011702  -0.005495   0.005405   0.003116
   95  N  5 YZ    0.002494   0.007893   0.003753  -0.000622  -0.001109

                     21         22         23         24         25
                   -0.0958    -0.0824    -0.0277    -0.0218    -0.0210
                     A          A          A          A          A   
    1  N  1  S   -0.045988   0.000401   0.042710   0.000038  -0.000349
    2  N  1  S    0.095992  -0.000814  -0.085331  -0.000168   0.021742
    3  N  1  X    0.006289  -0.102381  -0.048033   0.049001   0.071099
    4  N  1  Y    0.079097  -0.153587   0.013030   0.073665   0.059650
    5  N  1  Z    0.073400   0.182181  -0.015837  -0.088684   0.088821
    6  N  1  S    0.415516  -0.003614  -0.327909  -0.000322  -0.037457
    7  N  1  X    0.026916  -0.115335  -0.118359   0.081546   0.159031
    8  N  1  Y    0.057223  -0.172318   0.082546   0.122898   0.065876
    9  N  1  Z    0.067044   0.205064   0.003194  -0.147914   0.142622
   10  N  1  S    0.646625  -0.003258 -20.660581   0.017951 -14.834352
   11  N  1  X   -0.052684  -0.194598   2.675159  -0.059742   1.599202
   12  N  1  Y    0.259538  -0.294110  -3.567831  -0.084562  -2.296400
   13  N  1  Z    0.193568   0.347192  -1.491922   0.104464  -1.028392
   14  N  1 XX   -0.008567  -0.007399   0.017278  -0.001624  -0.002529
   15  N  1 YY   -0.013398   0.013548   0.015255   0.005982   0.006355
   16  N  1 ZZ   -0.014796  -0.005795   0.011851  -0.004382   0.008776
   17  N  1 XY   -0.003424  -0.001262  -0.005058   0.000848   0.006451
   18  N  1 XZ   -0.000589   0.009640  -0.000200   0.003113  -0.000365
   19  N  1 YZ   -0.003542  -0.006338   0.001305  -0.002054   0.003499
   20  N  2  S    0.020790  -0.000088   0.006738  -0.000096   0.020040
   21  N  2  S   -0.053951   0.000253  -0.027586   0.000179  -0.041149
   22  N  2  X   -0.053491   0.134248   0.009267   0.008410   0.040648
   23  N  2  Y   -0.080967   0.200591  -0.024306   0.013027  -0.028221
   24  N  2  Z   -0.102282  -0.238035  -0.014968  -0.015487  -0.000993
   25  N  2  S   -0.082101  -0.000341  -0.142403   0.000890  -0.171377
   26  N  2  X   -0.121474   0.159668  -0.043828   0.025503  -0.021705
   27  N  2  Y   -0.043618   0.237851   0.089566   0.037672   0.038130
   28  N  2  Z   -0.109789  -0.282560   0.050820  -0.045535   0.019384
   29  N  2  S   -3.274099   0.028028   6.715577   0.007478   1.925910
   30  N  2  X    0.143493   0.236301   6.837621  -0.257838   4.577747
   31  N  2  Y   -0.233679   0.361273 -10.260472  -0.369421  -8.102040
   32  N  2  Z   -0.122288  -0.427116  -4.769214   0.465925  -4.218800
   33  N  2 XX   -0.003379  -0.007392   0.000990   0.004759   0.007520
   34  N  2 YY    0.018649  -0.000835  -0.009775  -0.000757   0.007985
   35  N  2 ZZ   -0.019905   0.008295   0.007821  -0.004088  -0.000334
   36  N  2 XY   -0.039888  -0.006374   0.017912   0.003932  -0.010166
   37  N  2 XZ   -0.019087   0.005219   0.009282  -0.003611  -0.003807
   38  N  2 YZ    0.020170  -0.003620  -0.008951   0.002445   0.001875
   39  N  3  S   -0.075869   0.000533  -0.000005   0.000173  -0.039242
   40  N  3  S    0.187850  -0.001365   0.000017  -0.000448   0.105910
   41  N  3  X   -0.057186  -0.126724  -0.048431   0.060574   0.020827
   42  N  3  Y   -0.061635  -0.189603   0.038390   0.090866   0.022420
   43  N  3  Z   -0.079820   0.227528   0.005063  -0.108705   0.029299
   44  N  3  S    0.546196  -0.003596  -0.000005  -0.000932   0.201172
   45  N  3  X   -0.043616  -0.138628  -0.050246   0.093587   0.047575
   46  N  3  Y   -0.047149  -0.207117   0.039859   0.139805   0.051132
   47  N  3  Z   -0.059857   0.248033   0.005260  -0.167768   0.067845
   48  N  3  S    3.557959  -0.021885   0.007196  -0.117576  25.590519
   49  N  3  X   -0.454848  -0.268053   3.888177   0.062731  -2.298602
   50  N  3  Y   -0.487829  -0.402956  -3.078910   0.076206  -2.460034
   51  N  3  Z   -0.655363   0.490867  -0.408057  -0.069143  -3.343522
   52  N  3 XX   -0.019467  -0.004639   0.008792  -0.001849  -0.010123
   53  N  3 YY   -0.011708  -0.007638  -0.007442  -0.003008  -0.006100
   54  N  3 ZZ    0.003325   0.012472  -0.001353   0.004946  -0.002648
   55  N  3 XY    0.021461  -0.007261   0.001428  -0.002836   0.005980
   56  N  3 XZ    0.006588   0.000913   0.006834   0.000384  -0.005989
   57  N  3 YZ    0.002591  -0.000762  -0.006403  -0.000247  -0.009235
   58  N  4  S    0.020781  -0.000071  -0.006736  -0.000075   0.020039
   59  N  4  S   -0.053927   0.000285   0.027576   0.000156  -0.041142
   60  N  4  X   -0.079952   0.134417   0.027241   0.008843  -0.036463
   61  N  4  Y   -0.061077   0.200245  -0.005052   0.012807   0.032728
   62  N  4  Z   -0.098899  -0.238391   0.011516  -0.015421   0.007108
   63  N  4  S   -0.082024  -0.000093   0.142510   0.000772  -0.171518
   64  N  4  X   -0.029921   0.158660  -0.103016   0.025129   0.044097
   65  N  4  Y   -0.117586   0.238186   0.026151   0.038153  -0.014210
   66  N  4  Z   -0.118422  -0.283057  -0.035035  -0.045318   0.012682
   67  N  4  S   -3.274218   0.043481  -6.725660  -0.044284   1.939794
   68  N  4  X   -0.273535   0.229584  12.032655  -0.177269  -9.387192
   69  N  4  Y    0.095818   0.362572  -4.696070  -0.411820   2.963744
   70  N  4  Z   -0.078465  -0.429998   2.806390   0.475664  -2.770619
   71  N  4 XX    0.036833   0.000424   0.017920  -0.001254   0.012156
   72  N  4 YY   -0.015530  -0.010117  -0.006252   0.006414   0.004076
   73  N  4 ZZ   -0.025943   0.009791  -0.010701  -0.005195  -0.001062
   74  N  4 XY   -0.033443  -0.003229  -0.014881   0.001461  -0.009407
   75  N  4 XZ    0.012238  -0.003837   0.005525   0.002956  -0.000137
   76  N  4 YZ   -0.009159   0.002503  -0.004897  -0.001943  -0.001557
   77  N  5  S   -0.045990   0.000326  -0.042709  -0.000104  -0.000318
   78  N  5  S    0.095990  -0.000600   0.085333   0.000081   0.021681
   79  N  5  X    0.084718  -0.102902  -0.021217   0.049147   0.053302
   80  N  5  Y    0.017757  -0.152906   0.041835   0.073562   0.073757
   81  N  5  Z    0.064764   0.182636   0.023121  -0.088739   0.090687
   82  N  5  S    0.415541  -0.003693   0.327813   0.001239  -0.037676
   83  N  5  X    0.058277  -0.115804  -0.106497   0.082140   0.046865
   84  N  5  Y    0.033372  -0.171893   0.095455   0.122536   0.154843
   85  N  5  Z    0.063181   0.205397   0.020455  -0.147968   0.154303
   86  N  5  S    0.646740  -0.031621  20.663330   0.136549 -14.853530
   87  N  5  X    0.287386  -0.203102   4.227094  -0.031293  -2.705569
   88  N  5  Y   -0.009375  -0.289653  -1.907825  -0.097321   1.118151
   89  N  5  Z    0.158041   0.346539   0.778661   0.109889  -0.585450
   90  N  5 XX   -0.012676   0.010860  -0.017475   0.004489   0.004352
   91  N  5 YY   -0.009962  -0.008105  -0.015097  -0.001406   0.000527
   92  N  5 ZZ   -0.014122  -0.002443  -0.011805  -0.003271   0.007757
   93  N  5 XY   -0.004061   0.006131   0.005029   0.003380   0.007555
   94  N  5 XZ   -0.004046  -0.010219   0.000048  -0.003688   0.004949
   95  N  5 YZ   -0.000349   0.006909  -0.001161   0.002490  -0.001480

                     26         27         28         29         30
                    0.0083     0.0113     0.0298     0.0441     0.0498
                     A          A          A          A          A   
    1  N  1  S   -0.022335   0.015759   0.000035   0.015429  -0.023828
    2  N  1  S    0.058202  -0.044095   0.000004  -0.018529   0.029130
    3  N  1  X    0.042077   0.045869   0.059771  -0.032516  -0.087280
    4  N  1  Y   -0.044114   0.032027   0.089300  -0.063841   0.016799
    5  N  1  Z   -0.013190   0.052548  -0.106704  -0.071564  -0.035290
    6  N  1  S   -0.051419   0.012711  -0.000766  -0.343881   0.370637
    7  N  1  X    0.132239   0.054754   0.121395  -0.050722  -0.114814
    8  N  1  Y   -0.153585   0.112239   0.181639  -0.160163  -0.056703
    9  N  1  Z   -0.054252   0.124719  -0.216706  -0.162383  -0.112996
   10  N  1  S   21.186745  -8.023351   0.081931  -9.041622 -23.961943
   11  N  1  X   -3.407574   0.786107  -0.357012   1.303210   4.176175
   12  N  1  Y    4.355801  -2.391805  -0.501747  -0.783771  -4.426996
   13  N  1  Z    1.741890  -1.562643   0.622726   0.073649  -1.366473
   14  N  1 XX   -0.007143  -0.006714  -0.005589   0.008321  -0.004912
   15  N  1 YY   -0.012039   0.013370   0.010771   0.001668  -0.010954
   16  N  1 ZZ    0.001687   0.002612  -0.005093   0.004993  -0.020698
   17  N  1 XY    0.015307  -0.005782  -0.000654   0.001735  -0.014424
   18  N  1 XZ    0.005938  -0.007562   0.007445  -0.002061  -0.002084
   19  N  1 YZ   -0.006453   0.012110  -0.004925  -0.010745   0.000947
   20  N  2  S    0.009977  -0.017015   0.000045  -0.000572  -0.002973
   21  N  2  S   -0.038440   0.069114  -0.000093   0.021332   0.016540
   22  N  2  X    0.009800   0.033478   0.003523   0.001516   0.023920
   23  N  2  Y    0.028838   0.018382   0.005257   0.015496  -0.031205
   24  N  2  Z    0.029601   0.034054  -0.006080   0.013775  -0.012819
   25  N  2  S    0.042039  -0.053636  -0.000735  -0.081368   0.048788
   26  N  2  X    0.190078  -0.030680   0.003712   0.107105   0.067101
   27  N  2  Y   -0.179559   0.085407   0.005564  -0.125429  -0.035586
   28  N  2  Z   -0.044067   0.054342  -0.006645  -0.045133   0.007713
   29  N  2  S  -12.339767  12.607288  -0.033266  -6.679696  12.009375
   30  N  2  X   -5.322881   1.970349  -0.048792   4.176170   5.570447
   31  N  2  Y    8.436169  -0.788969  -0.001460  -7.025581  -9.686509
   32  N  2  Z    4.085955   0.439992   0.061366  -3.550060  -4.995985
   33  N  2 XX    0.004308   0.007522   0.002432  -0.003028  -0.009949
   34  N  2 YY    0.000674  -0.006375  -0.009616   0.002608   0.007425
   35  N  2 ZZ   -0.001337  -0.000392   0.007235   0.019126  -0.006084
   36  N  2 XY   -0.003876   0.002293  -0.001611   0.022953  -0.010415
   37  N  2 XZ   -0.000697   0.000696  -0.004806  -0.001996  -0.004387
   38  N  2 YZ   -0.001863  -0.013971   0.003104  -0.013501   0.017585
   39  N  3  S    0.014068  -0.000008   0.000001   0.033845   0.000004
   40  N  3  S   -0.036600   0.000022  -0.000051  -0.025637  -0.000013
   41  N  3  X   -0.008645  -0.046828  -0.000357   0.047893   0.093405
   42  N  3  Y   -0.009296   0.036987   0.000079   0.051192  -0.074318
   43  N  3  Z   -0.012399   0.004967  -0.000140   0.069941  -0.009401
   44  N  3  S    0.033112   0.000018   0.000570  -0.533436  -0.000078
   45  N  3  X   -0.062479  -0.033513  -0.001155   0.002512   0.193735
   46  N  3  Y   -0.066978   0.026388   0.000251   0.002511  -0.154032
   47  N  3  Z   -0.090724   0.003650  -0.000477   0.004008  -0.019483
   48  N  3  S  -18.532475   0.009648   0.023590  31.545402  -0.002537
   49  N  3  X    1.446740  -3.213817  -0.014950  -3.481565   2.813628
   50  N  3  Y    1.551405   2.545342   0.009587  -3.730281  -2.221955
   51  N  3  Z    2.104162   0.332854   0.000137  -5.066617  -0.297238
   52  N  3 XX    0.002669  -0.012577  -0.005418   0.020392  -0.002513
   53  N  3 YY    0.003004   0.010677   0.006432   0.019867   0.002161
   54  N  3 ZZ    0.003862   0.001897  -0.001002   0.013195   0.000338
   55  N  3 XY    0.001199  -0.002019  -0.002204  -0.008295  -0.000397
   56  N  3 XZ    0.000816  -0.009821   0.005958  -0.013092  -0.001927
   57  N  3 YZ    0.000727   0.009186  -0.003957  -0.014413   0.001813
   58  N  4  S    0.009985   0.017017   0.000006  -0.000570   0.002936
   59  N  4  S   -0.038480  -0.069098  -0.000038   0.021331  -0.016495
   60  N  4  X    0.029514  -0.014747  -0.003572   0.016560   0.037240
   61  N  4  Y    0.013287  -0.033204  -0.005092   0.003900  -0.016979
   62  N  4  Z    0.027469  -0.036047   0.006140   0.012036   0.006214
   63  N  4  S    0.042247   0.053541   0.000408  -0.081379  -0.048212
   64  N  4  X   -0.221114  -0.096139  -0.004558  -0.150326   0.048737
   65  N  4  Y    0.146530   0.015216  -0.005099   0.079264  -0.055609
   66  N  4  Z   -0.001546  -0.041213   0.006448  -0.018778  -0.020197
   67  N  4  S  -12.357624 -12.600912   0.039803  -6.675776 -12.013990
   68  N  4  X    9.850183   1.131017  -0.035997  -8.162777  11.228948
   69  N  4  Y   -3.593451  -1.675763   0.059218   2.751640  -3.632384
   70  N  4  Z    2.512612  -0.763552  -0.060832  -2.263041   3.254754
   71  N  4 XX    0.001867   0.009445   0.007293  -0.008634  -0.014183
   72  N  4 YY    0.002731  -0.008020  -0.001889   0.007375   0.013028
   73  N  4 ZZ   -0.000955  -0.002173  -0.005469   0.019973   0.009729
   74  N  4 XY   -0.004276   0.000436   0.005514   0.022070   0.006557
   75  N  4 XZ   -0.002565   0.012558  -0.005700  -0.006430  -0.014523
   76  N  4 YZ   -0.000106   0.001568   0.003901  -0.009366   0.000112
   77  N  5  S   -0.022333  -0.015739  -0.000052   0.015439   0.023828
   78  N  5  S    0.058204   0.044058   0.000129  -0.018543  -0.029159
   79  N  5  X   -0.053619  -0.027554  -0.059720  -0.063752  -0.031060
   80  N  5  Y    0.031743  -0.046640  -0.089457  -0.039307   0.076928
   81  N  5  Z   -0.003337  -0.054346   0.106616  -0.068128   0.047682
   82  N  5  S   -0.051663  -0.012861  -0.000099  -0.344042  -0.370359
   83  N  5  X   -0.184562  -0.112279  -0.122089  -0.164393   0.043891
   84  N  5  Y    0.097615  -0.066718  -0.181404  -0.070299   0.112911
   85  N  5  Z   -0.021592  -0.118616   0.216525  -0.150318   0.120517
   86  N  5  S   21.200693   8.007643  -0.111747  -9.036966  23.968773
   87  N  5  X    5.185103   2.680345   0.323959  -1.032569   5.372242
   88  N  5  Y   -2.458224  -0.358009   0.527335   1.072098  -3.147720
   89  N  5  Z    0.854186   1.202599  -0.619658   0.313153   0.379478
   90  N  5 XX   -0.018870  -0.017266  -0.008573  -0.000763   0.005237
   91  N  5 YY   -0.002090   0.007019   0.006018   0.009389   0.010701
   92  N  5 ZZ    0.003470   0.001005   0.002502   0.006368   0.020606
   93  N  5 XY    0.013435   0.001932  -0.005058   0.000294   0.014485
   94  N  5 XZ   -0.003262  -0.011187   0.007988  -0.009194   0.002347
   95  N  5 YZ    0.002147   0.005432  -0.005372  -0.004076  -0.001184

                     31         32         33         34         35
                    0.0609     0.0792     0.0968     0.0981     0.1102
                     A          A          A          A          A   
    1  N  1  S    0.000017  -0.013246  -0.008625   0.000209  -0.026246
    2  N  1  S   -0.000187   0.080487   0.006214  -0.000483   0.042426
    3  N  1  X   -0.001835  -0.136629   0.053563  -0.059441   0.071447
    4  N  1  Y   -0.003135   0.164614  -0.000336  -0.089094   0.013665
    5  N  1  Z    0.003207   0.062383   0.033274   0.104189   0.051707
    6  N  1  S    0.001726  -0.140653   0.030456   0.000281   0.137605
    7  N  1  X   -0.024842  -0.220534   0.205517  -0.137826   0.284146
    8  N  1  Y   -0.036760   0.252190  -0.060516  -0.202531  -0.148706
    9  N  1  Z    0.044064   0.090076   0.072352   0.238980   0.035220
   10  N  1  S    0.061281   9.603412  -7.942109   0.083804 -45.294849
   11  N  1  X   -0.089473  -1.270562   0.237135   0.763095   4.003646
   12  N  1  Y   -0.126119   1.762179  -2.014135   1.155883  -7.564894
   13  N  1  Z    0.167188   0.757976  -1.598812  -1.325169  -4.095007
   14  N  1 XX    0.000053   0.013290  -0.015866   0.004948  -0.012516
   15  N  1 YY   -0.009085   0.011255   0.000518  -0.002892  -0.015268
   16  N  1 ZZ    0.008945   0.014837  -0.005291  -0.001898  -0.012389
   17  N  1 XY   -0.003479   0.003748  -0.000829   0.002990   0.002398
   18  N  1 XZ   -0.003023  -0.000450  -0.007827  -0.004155   0.007127
   19  N  1 YZ    0.001937  -0.005119   0.004999   0.002808   0.006389
   20  N  2  S   -0.000184   0.100864   0.003534  -0.000545  -0.012863
   21  N  2  S    0.000377  -0.156475   0.019118   0.000502  -0.018706
   22  N  2  X   -0.022050   0.069683  -0.028794   0.065996  -0.072246
   23  N  2  Y   -0.032908  -0.093275  -0.032623   0.099186  -0.027394
   24  N  2  Z    0.039586  -0.039725  -0.047395  -0.115979  -0.063543
   25  N  2  S    0.001745  -1.616378  -0.234203   0.011511   0.576966
   26  N  2  X   -0.049532   0.262913   0.037867   0.142576  -0.023204
   27  N  2  Y   -0.071131  -0.324483  -0.280920   0.222289  -0.231894
   28  N  2  Z    0.087468  -0.125730  -0.222724  -0.252952  -0.207284
   29  N  2  S   -0.011212  -7.060111   1.661353   0.031896  10.417500
   30  N  2  X    0.648675  -1.930306   3.161961  -1.008337  16.857761
   31  N  2  Y    1.061088   3.048845  -2.829907  -1.392706 -22.013405
   32  N  2  Z   -1.219298   1.475034  -0.543188   1.708613  -9.013911
   33  N  2 XX   -0.009477   0.015202   0.005222   0.002463  -0.005589
   34  N  2 YY    0.002685   0.041023  -0.000944   0.003918  -0.008616
   35  N  2 ZZ    0.006701   0.007193   0.005214  -0.006805  -0.019795
   36  N  2 XY   -0.007013  -0.032117   0.005918   0.003910  -0.015303
   37  N  2 XZ    0.007630  -0.026439  -0.006193  -0.000316   0.002119
   38  N  2 YZ   -0.005117   0.007623  -0.019270   0.000716   0.010853
   39  N  3  S    0.000214  -0.087870   0.038128  -0.000235   0.000000
   40  N  3  S   -0.000544   0.187462  -0.056583   0.000030   0.000000
   41  N  3  X    0.057001  -0.193077  -0.011917  -0.024911   0.021983
   42  N  3  Y    0.084621  -0.206589  -0.012958  -0.037326  -0.017322
   43  N  3  Z   -0.100224  -0.281216  -0.015677   0.047515  -0.002386
   44  N  3  S   -0.001842   1.233258  -0.427425   0.001933   0.000034
   45  N  3  X    0.160860  -0.471035  -0.184165  -0.037402   0.226930
   46  N  3  Y    0.242956  -0.504119  -0.197573  -0.056739  -0.178956
   47  N  3  Z   -0.287368  -0.686479  -0.264973   0.082131  -0.024370
   48  N  3  S    0.091342  -3.673207  12.947961  -0.111196   0.001692
   49  N  3  X   -1.267305   0.184916  -1.690345   0.690992   7.925398
   50  N  3  Y   -1.870137   0.196128  -1.801010   1.066373  -6.281131
   51  N  3  Z    2.226530   0.265530  -2.500633  -1.191486  -0.824596
   52  N  3 XX   -0.008110  -0.014190   0.017983  -0.001597   0.000887
   53  N  3 YY   -0.013101  -0.002638   0.022629  -0.002575  -0.000804
   54  N  3 ZZ    0.021216   0.018753   0.030351   0.002948  -0.000074
   55  N  3 XY   -0.012162   0.030972   0.011345  -0.002372   0.000111
   56  N  3 XZ    0.001575   0.008342   0.001390   0.000215   0.000727
   57  N  3 YZ   -0.001259   0.002229  -0.001324  -0.000190  -0.000675
   58  N  4  S   -0.000239   0.100869   0.003535  -0.000518   0.012869
   59  N  4  S    0.000341  -0.156488   0.019096   0.000244   0.018698
   60  N  4  X   -0.021842  -0.110749  -0.031083   0.066645   0.018783
   61  N  4  Y   -0.033329   0.049510  -0.030541   0.098384   0.070100
   62  N  4  Z    0.039322  -0.020998  -0.047416  -0.116312   0.068830
   63  N  4  S    0.005250  -1.616416  -0.233940   0.012857  -0.577281
   64  N  4  X   -0.050285  -0.387748  -0.308030   0.150647   0.245639
   65  N  4  Y   -0.072778   0.191156  -0.006119   0.215207   0.056116
   66  N  4  Z    0.085589  -0.058364  -0.187400  -0.254414   0.183688
   67  N  4  S    0.121921  -7.069769   1.666458   0.030414 -10.439925
   68  N  4  X    0.547986   3.563208  -3.514620  -0.996987  26.155019
   69  N  4  Y    1.092602  -1.314053   2.452331  -1.437080 -12.068828
   70  N  4  Z   -1.249185   0.916745   0.151443   1.677649   4.541107
   71  N  4 XX    0.003229   0.053954  -0.006532   0.002424   0.000829
   72  N  4 YY   -0.012425   0.008097   0.009016   0.003945   0.012649
   73  N  4 ZZ    0.009064   0.001369   0.007000  -0.006911   0.020527
   74  N  4 XY   -0.001862  -0.025903   0.004009   0.003813   0.014542
   75  N  4 XZ   -0.006473   0.003807  -0.015336  -0.000167  -0.005897
   76  N  4 YZ    0.004262  -0.020679  -0.010703   0.000649  -0.007334
   77  N  5  S    0.000027  -0.013237  -0.008634   0.000122   0.026243
   78  N  5  S    0.000012   0.080479   0.006234  -0.000290  -0.042419
   79  N  5  X   -0.002519   0.197212  -0.007955  -0.059756  -0.004273
   80  N  5  Y   -0.002262  -0.099817   0.048319  -0.088409  -0.067493
   81  N  5  Z    0.003531   0.027691   0.039830   0.104628  -0.058225
   82  N  5  S   -0.002642  -0.140832   0.030409   0.000297  -0.137462
   83  N  5  X   -0.027562   0.303925  -0.094784  -0.135802   0.201144
   84  N  5  Y   -0.034919  -0.163256   0.177351  -0.203544  -0.237901
   85  N  5  Z    0.044005   0.035651   0.103784   0.239370  -0.084064
   86  N  5  S   -0.266592   9.621002  -7.959795  -0.047629  45.315650
   87  N  5  X   -0.139238   2.085624  -2.203720   0.759554   8.715850
   88  N  5  Y   -0.118989  -0.892928  -0.075675   1.148125  -2.525913
   89  N  5  Z    0.145456   0.406753  -1.350375  -1.333823   2.782100
   90  N  5 XX   -0.006621   0.008944   0.001364  -0.002847   0.014933
   91  N  5 YY   -0.001248   0.014951  -0.014085   0.006179   0.013209
   92  N  5 ZZ    0.007796   0.015502  -0.007930  -0.003263   0.012027
   93  N  5 XY   -0.006037   0.003018   0.001909  -0.000070  -0.002014
   94  N  5 XZ    0.004224  -0.003718   0.005853   0.003820  -0.005224
   95  N  5 YZ   -0.002870  -0.002043  -0.007765  -0.002417  -0.008169

                     36         37         38         39         40
                    0.1377     0.1426     0.1870     0.2270     0.2348
                     A          A          A          A          A   
    1  N  1  S    0.000035  -0.028241  -0.003964   0.018092  -0.032017
    2  N  1  S   -0.000172   0.052178   0.054273  -0.072149   0.020267
    3  N  1  X    0.016178  -0.034410   0.007208   0.060433  -0.016915
    4  N  1  Y    0.023654  -0.009345   0.119654  -0.152401  -0.006609
    5  N  1  Z   -0.028621  -0.027270   0.104280  -0.093846  -0.015032
    6  N  1  S    0.000676   0.157198  -0.129459  -0.279004   0.729535
    7  N  1  X    0.059500   0.069135  -0.026466   0.160875  -0.021196
    8  N  1  Y    0.088923  -0.248162   0.267558  -0.418536  -0.030608
    9  N  1  Z   -0.106254  -0.169716   0.209567  -0.260424  -0.037500
   10  N  1  S    0.031694 -43.136409   0.927475 -37.852086 -21.872039
   11  N  1  X   -0.850928   6.745794   0.381800   5.537021   2.635606
   12  N  1  Y   -1.267220  -7.009848   1.779209  -5.357754  -5.365766
   13  N  1  Z    1.526118  -2.094968   1.696966  -1.391556  -3.022232
   14  N  1 XX    0.000550  -0.011548   0.018867  -0.015520  -0.017799
   15  N  1 YY    0.005654  -0.013914   0.008234  -0.004034  -0.022797
   16  N  1 ZZ   -0.006245  -0.012974   0.008912  -0.001520  -0.012989
   17  N  1 XY    0.002648   0.000213  -0.003327   0.007469   0.010244
   18  N  1 XZ    0.001448   0.000995   0.006703   0.002492   0.008600
   19  N  1 YZ   -0.000884  -0.000977   0.002074   0.009666   0.000927
   20  N  2  S   -0.000197   0.015808   0.014377  -0.071629   0.040466
   21  N  2  S    0.000240  -0.018657  -0.069328   0.111297  -0.071804
   22  N  2  X   -0.048386   0.095378  -0.011542   0.120435   0.020450
   23  N  2  Y   -0.072234  -0.001221  -0.009213   0.107308  -0.016043
   24  N  2  Z    0.086654   0.052704  -0.014575   0.157019  -0.002100
   25  N  2  S    0.003723  -0.213191   0.010418   1.455478  -0.682736
   26  N  2  X   -0.141851   0.360084   0.018690   0.384774  -0.113411
   27  N  2  Y   -0.210008  -0.277183   0.023465   0.149524   0.068138
   28  N  2  Z    0.253512  -0.030065   0.028978   0.340194  -0.006715
   29  N  2  S   -0.019918  16.764969 -28.030016   4.093605  41.150226
   30  N  2  X    1.362363   9.960622   0.905082   9.390076   2.204320
   31  N  2  Y    2.077575 -19.470099  -9.066811 -20.745307   0.925497
   32  N  2  Z   -2.469196 -10.736611  -7.073078 -12.117344   2.014673
   33  N  2 XX    0.004800   0.001912  -0.016469   0.008464   0.019447
   34  N  2 YY    0.000136   0.006639  -0.000994  -0.034595   0.016784
   35  N  2 ZZ   -0.005085   0.001413  -0.019729  -0.011709   0.009785
   36  N  2 XY    0.004296  -0.004752  -0.017802   0.012454  -0.009926
   37  N  2 XZ   -0.003306  -0.004251  -0.000556   0.009734   0.003199
   38  N  2 YZ    0.002323   0.001441   0.026514  -0.035660   0.009114
   39  N  3  S    0.000057   0.006382  -0.000003   0.000002  -0.044500
   40  N  3  S   -0.000159  -0.030711   0.000012  -0.000025   0.030640
   41  N  3  X    0.000244  -0.055807   0.203132  -0.362996  -0.011710
   42  N  3  Y    0.000399  -0.059731  -0.161148   0.287756  -0.012549
   43  N  3  Z    0.000469  -0.081291  -0.021017   0.037712  -0.016919
   44  N  3  S   -0.001206   0.242947   0.000053  -0.000045   0.876551
   45  N  3  X    0.000797  -0.298046   0.408783  -0.710687   0.116932
   46  N  3  Y    0.001623  -0.319209  -0.324435   0.563563   0.125243
   47  N  3  Z    0.001792  -0.433532  -0.042241   0.073873   0.170753
   48  N  3  S   -0.035435  52.866512   0.019415  -0.022893 -38.740010
   49  N  3  X    0.015403  -3.305939  11.856954  11.830736   2.954960
   50  N  3  Y   -0.003341  -3.540595  -9.390778  -9.364482   3.173863
   51  N  3  Z    0.005750  -4.802134  -1.241655  -1.233662   4.306869
   52  N  3 XX    0.000608   0.007009  -0.006310  -0.008954  -0.026770
   53  N  3 YY   -0.000777   0.007214   0.005357   0.007597  -0.025057
   54  N  3 ZZ    0.000028   0.008394   0.000957   0.001339  -0.025254
   55  N  3 XY    0.000190   0.001550  -0.001018  -0.001428   0.000593
   56  N  3 XZ   -0.000664   0.002011  -0.004898  -0.007040  -0.006181
   57  N  3 YZ    0.000440   0.002147   0.004591   0.006571  -0.008009
   58  N  4  S   -0.000166   0.015812  -0.014360   0.071610   0.040487
   59  N  4  S    0.000224  -0.018656   0.069298  -0.111269  -0.071831
   60  N  4  X    0.048596  -0.015581   0.008474  -0.097340  -0.020362
   61  N  4  Y    0.072322   0.086586   0.012117  -0.125792   0.016211
   62  N  4  Z   -0.086474   0.064322   0.014513  -0.159290   0.002246
   63  N  4  S    0.003454  -0.213084  -0.010629  -1.455166  -0.683129
   64  N  4  X    0.142473  -0.351436  -0.021690  -0.103380   0.089761
   65  N  4  Y    0.210872   0.286328  -0.019884  -0.373214  -0.093037
   66  N  4  Z   -0.252472   0.044204  -0.029748  -0.368827  -0.027539
   67  N  4  S    0.055908  16.781882  28.031682  -4.101711  41.182596
   68  N  4  X   -1.387072 -22.383782   9.853405  23.686842   0.642116
   69  N  4  Y   -2.058566   6.170937   0.534697  -5.462872   2.163238
   70  N  4  Z    2.471778  -7.381802   5.950026   8.688505   2.151501
   71  N  4 XX    0.000529   0.008573  -0.010183   0.044767   0.022246
   72  N  4 YY   -0.006664   0.001015   0.023570  -0.010554   0.014408
   73  N  4 ZZ    0.006026   0.000384   0.023812   0.003629   0.009392
   74  N  4 XY   -0.002055  -0.003672   0.013505  -0.003885  -0.009478
   75  N  4 XZ   -0.002530   0.000956  -0.020289   0.031829   0.005391
   76  N  4 YZ    0.001663  -0.003428  -0.007010  -0.003228   0.007059
   77  N  5  S   -0.000065  -0.028238   0.003953  -0.018094  -0.032027
   78  N  5  S   -0.000032   0.052176  -0.054243   0.072108   0.020256
   79  N  5  X   -0.016330  -0.004842  -0.127398   0.172468  -0.004652
   80  N  5  Y   -0.023770  -0.032585  -0.024583  -0.032268  -0.016339
   81  N  5  Z    0.028457  -0.030486  -0.091599   0.069603  -0.016238
   82  N  5  S    0.001801   0.157014   0.129544   0.279310   0.729706
   83  N  5  X   -0.060238  -0.276437  -0.291421   0.472888  -0.030026
   84  N  5  Y   -0.088832   0.026585  -0.016213  -0.084104  -0.023755
   85  N  5  Z    0.105981  -0.134480  -0.175956   0.194651  -0.036483
   86  N  5  S   -0.035442 -43.148199  -0.948494  37.882850 -21.936991
   87  N  5  X    0.843334  -8.529556  -1.855818   6.577596  -6.166027
   88  N  5  Y    1.276113   5.104007  -0.611841  -4.252933   1.606861
   89  N  5  Z   -1.523396  -0.513121  -1.545761   0.140316  -2.110102
   90  N  5 XX   -0.004035  -0.014102  -0.010095   0.005357  -0.026424
   91  N  5 YY   -0.001664  -0.011713  -0.015701   0.012642  -0.015527
   92  N  5 ZZ    0.005505  -0.012616  -0.010220   0.003034  -0.011665
   93  N  5 XY   -0.004086  -0.000173   0.004745  -0.009108   0.008862
[...]
             47  N  3  Z      0.43543     0.50232
             48  N  3  S      0.00203     0.06682
             49  N  3  X      0.16875     0.04632
             50  N  3  Y      0.12733     0.04589
             51  N  3  Z      0.09619     0.04593
             52  N  3 XX      0.01778     0.18993
             53  N  3 YY      0.00751     0.17613
             54  N  3 ZZ     -0.00977     0.15597
             55  N  3 XY      0.01152     0.02622
             56  N  3 XZ      0.01655     0.02855
             57  N  3 YZ      0.01605     0.02660
             58  N  4  S      1.99580     1.97306
             59  N  4  S      0.81266     0.50437
             60  N  4  X      0.83329     0.73406
             61  N  4  Y      0.77718     0.70995
             62  N  4  Z      0.74949     0.67849
             63  N  4  S      0.52322     0.24708
             64  N  4  X      0.06056     0.31865
             65  N  4  Y      0.39465     0.39487
             66  N  4  Z      0.40903     0.40213
             67  N  4  S      0.19050     0.06471
             68  N  4  X      0.03210     0.08865
             69  N  4  Y     -0.10139     0.04547
             70  N  4  Z      0.06008     0.04321
             71  N  4 XX      0.05841     0.23899
             72  N  4 YY     -0.00628     0.12926
             73  N  4 ZZ     -0.01236     0.11921
             74  N  4 XY      0.02243     0.04505
             75  N  4 XZ      0.02741     0.05050
             76  N  4 YZ      0.00679     0.01247
             77  N  5  S      1.99682     1.97744
             78  N  5  S      0.91712     0.60162
             79  N  5  X      0.83358     0.76296
             80  N  5  Y      0.59429     0.54301
             81  N  5  Z      0.59904     0.54593
             82  N  5  S      1.07649     0.38461
             83  N  5  X      0.21876     0.36579
             84  N  5  Y      0.27422     0.34033
             85  N  5  Z      0.30929     0.34763
             86  N  5  S     -0.49935     0.08092
             87  N  5  X      0.01094     0.03918
             88  N  5  Y     -0.02897     0.03462
             89  N  5  Z      0.01118     0.03251
             90  N  5 XX      0.01691     0.20929
             91  N  5 YY     -0.00330     0.17551
             92  N  5 ZZ     -0.00791     0.17012
             93  N  5 XY      0.02083     0.03476
             94  N  5 XZ      0.02151     0.03174
             95  N  5 YZ      0.00447     0.00631

          ----- MULLIKEN ATOMIC OVERLAP POPULATIONS -----
          (OFF-DIAGONAL ELEMENTS NEED TO BE MULTIPLIED BY 2)

             1           2           3           4           5

    1   11.2856224
    2   -1.8259314   8.1347120
    3   -3.6244119   0.3460250  14.1574716
    4    0.2220098  -0.0435607   0.3474008   8.1365588
    5    0.3089951   0.2221367  -3.6256058  -1.8288491  11.2892183

          TOTAL MULLIKEN AND LOWDIN ATOMIC POPULATIONS
       ATOM         MULL.POP.    CHARGE          LOW.POP.     CHARGE
    1 N             6.366284    0.633716         6.685611    0.314389
    2 N             6.833381    0.166619         6.795966    0.204034
    3 N             7.600880   -0.600880         7.033974   -0.033974
    4 N             6.833560    0.166440         6.800175    0.199825
    5 N             6.365895    0.634105         6.684274    0.315726

          -------------------------------
          BOND ORDER AND VALENCE ANALYSIS     BOND ORDER THRESHOLD=0.050
          -------------------------------

                   BOND                       BOND                       BOND
  ATOM PAIR DIST  ORDER      ATOM PAIR DIST  ORDER      ATOM PAIR DIST  ORDER
    1   2  1.144  2.414        1   3  2.441 -0.202        1   4  3.243 -0.153
    1   5  4.275 -0.086        2   3  1.313  1.600        2   4  2.154  0.273
    2   5  3.243 -0.153        3   4  1.313  1.600        3   5  2.441 -0.202
    4   5  1.144  2.413

                       TOTAL       BONDED        FREE
      ATOM            VALENCE     VALENCE     VALENCE
    1 N                 1.973       1.973       0.000
    2 N                 4.134       4.134      -0.000
    3 N                 2.797       2.797      -0.000
    4 N                 4.134       4.134       0.000
    5 N                 1.972       1.972      -0.000

          ---------------------
          ELECTROSTATIC MOMENTS
          ---------------------

 POINT   1           X           Y           Z (BOHR)    CHARGE
                 2.334594    2.060036    0.124563        1.00 (A.U.)
         DX          DY          DZ         /D/  (DEBYE)
    -0.490874   -0.524808   -0.713415    1.012591
 ...... END OF PROPERTY EVALUATION ......
 CPU     0: STEP CPU TIME=     0.00 TOTAL CPU TIME=        2.6 (    0.0 MIN)
 TOTAL WALL CLOCK TIME=        2.6 SECONDS, CPU UTILIZATION IS  99.23%

 -------------------------------   -----------------------------
 MP2 ENERGY GRADIENT CALCULATION   PROGRAM WRITTEN BY K.ISHIMURA
 -------------------------------   -----------------------------
 NUMBER OF OCCUPIED ORBITALS            =   17
 NUMBER OF VIRTUAL ORBITALS             =   78
 NUMBER OF ACTIVE OCCUPIED ORBITALS     =   12
 NUMBER OF ACTIVE VIRTUAL ORBITALS      =   78
 NUMBER OF BASIS FUNCTIONS              =   95
 NUMBER OF BASIS SHELLS                 =   25
 AO INTEGRAL THRESHOLD                  = 1.00E-09
 HALF-TRANSFORMED INTEGRAL THRESHOLD    = 5.85E-14
   REQUIRED DISK =        42 MBYTES/PROCESSOR


 *** WARNING: THE MAXIMUM LCAO COEF=     130.750360, FOR AO    48 IN MO=    42,
 EXCEEDS 100.  ADDITIONAL INPUTS MAY BE REQUIRED TO OBTAIN GOOD MP2 ACCURACY:
  $CONTRL ICUT=10 OR 11
  $SCF    CONV=2.5D-7 FDIFF=.FALSE.

 MAXIMUM MEMORY USED DURING MP2 GRADIENT=     1232530 WORDS, OR       2 MWORDS.
 BEGINNING    1ST SHELL LOOP...
 .... DONE WITH 1ST THREE INDEX TRANSFORMATIONS ....
 CPU     0: STEP CPU TIME=     2.06 TOTAL CPU TIME=        4.6 (    0.1 MIN)
 TOTAL WALL CLOCK TIME=        4.7 SECONDS, CPU UTILIZATION IS  99.57%

 RESULTS OF MOLLER-PLESSET 2ND ORDER CORRECTION ARE
               E(0)=      -271.7694738650
               E(1)=         0.0
               E(2)=        -0.8326459266
             E(MP2)=      -272.6021197916
 .... DONE WITH 4TH INDEX TRANSFORMATION AND ENERGY ....
 CPU     0: STEP CPU TIME=     0.51 TOTAL CPU TIME=        5.1 (    0.1 MIN)
 TOTAL WALL CLOCK TIME=        5.2 SECONDS, CPU UTILIZATION IS  99.61%
 .... DONE WITH 1ST THREE INDEX TRANSFORMATIONS FOR GRADIENT ....
 CPU     0: STEP CPU TIME=     2.59 TOTAL CPU TIME=        7.7 (    0.1 MIN)
 TOTAL WALL CLOCK TIME=        7.8 SECONDS, CPU UTILIZATION IS  99.74%
 .... DONE WITH 4TH INDEX TRANSFORMATION FOR GRADIENT ....
 CPU     0: STEP CPU TIME=     0.19 TOTAL CPU TIME=        7.9 (    0.1 MIN)
 TOTAL WALL CLOCK TIME=        7.9 SECONDS, CPU UTILIZATION IS  99.75%
 CYCLE  1  Z-VECTOR ERROR= -0.522010E-01
 CYCLE  2  Z-VECTOR ERROR=  0.205536E-01
 CYCLE  3  Z-VECTOR ERROR= -0.129583E-01
 CYCLE  4  Z-VECTOR ERROR=  0.440070E-02
 CYCLE  5  Z-VECTOR ERROR= -0.170803E-02
 CYCLE  6  Z-VECTOR ERROR=  0.373505E-03
 CYCLE  7  Z-VECTOR ERROR= -0.835117E-04
 CYCLE  8  Z-VECTOR ERROR=  0.275549E-04
 CYCLE  9  Z-VECTOR ERROR= -0.120188E-04
 CYCLE 10  Z-VECTOR ERROR=  0.367656E-05
 CYCLE 11  Z-VECTOR ERROR= -0.855770E-06
 CYCLE 12  Z-VECTOR ERROR=  0.281063E-06
 CYCLE 13  Z-VECTOR ERROR= -0.158758E-06
 CYCLE 14  Z-VECTOR ERROR=  0.720045E-07
 CYCLE 15  Z-VECTOR ERROR= -0.287744E-07
 CYCLE 16  Z-VECTOR ERROR=  0.580009E-08
 CYCLE 17  Z-VECTOR ERROR= -0.104424E-08
 CYCLE 18  Z-VECTOR ERROR=  0.267252E-09
 CYCLE 19  Z-VECTOR ERROR= -0.136406E-09
 CYCLE 20  Z-VECTOR ERROR=  0.409100E-10
 .... DONE WITH RESPONSE EQUATIONS AND DENSITY ....
 CPU     0: STEP CPU TIME=     0.74 TOTAL CPU TIME=        8.7 (    0.1 MIN)
 TOTAL WALL CLOCK TIME=        8.7 SECONDS, CPU UTILIZATION IS  99.77%

 MP2 NATURAL ORBITAL OCCUPATION NUMBERS ARE
  2.0000 2.0000 2.0000 2.0000 2.0000 1.9857 1.9835 1.9802 1.9665 1.9640
  1.9607 1.9572 1.9534 1.9312 1.9281 1.9268 1.9061 0.0823 0.0782 0.0709
  0.0633 0.0344 0.0319 0.0215 0.0201 0.0112 0.0110 0.0093 0.0088 0.0084
  0.0082 0.0069 0.0069 0.0065 0.0052 0.0050 0.0048 0.0048 0.0048 0.0044
  0.0040 0.0039 0.0034 0.0031 0.0031 0.0030 0.0027 0.0027 0.0020 0.0020
  0.0018 0.0017 0.0017 0.0016 0.0014 0.0011 0.0010 0.0010 0.0010 0.0009
  0.0008 0.0008 0.0006 0.0005 0.0004 0.0003 0.0002 0.0002 0.0002 0.0002
  0.0001 0.0001 0.0001 0.0001 0.0001 0.0001 0.0001 0.0001 0.0001 0.0000
  0.0000 0.0000 0.0000 0.0000 0.0000 0.0000 0.0000 0.0000 0.0000 0.0000
  0.0000-0.0000-0.0001-0.0001-0.0003
 THERE ARE    33.4436 ELECTRONS IN PRINCIPAL MP2 NATURAL ORBITALS.
 THERE ARE     0.5564 ELECTRONS IN SECONDARY MP2 NATURAL ORBITALS.
 THE MP2 NATURAL ORBITALS HAVE BEEN PUNCHED.

 BEGINNING ONE ELECTRON GRADIENT...
 ..... END OF 1-ELECTRON GRADIENT ......
 CPU     0: STEP CPU TIME=     0.02 TOTAL CPU TIME=        8.7 (    0.1 MIN)
 TOTAL WALL CLOCK TIME=        8.7 SECONDS, CPU UTILIZATION IS  99.77%
 THE COARSE/FINE SCHWARZ SCREENINGS SKIPPED          0/         0 BLOCKS.
 THE NUMBER OF GRADIENT INTEGRAL BLOCKS COMPUTED WAS    201250
 MAXIMUM MEMORY USED DURING MP2 GRADIENT=     1232530 WORDS, OR       2 MWORDS.
 ..... DONE WITH MP2 ENERGY .....
 CPU     0: STEP CPU TIME=     5.71 TOTAL CPU TIME=       14.4 (    0.2 MIN)
 TOTAL WALL CLOCK TIME=       14.4 SECONDS, CPU UTILIZATION IS  99.86%

     -------------------------------------------------
     MP2 PROPERTIES...FOR THE FIRST ORDER WAVEFUNCTION
          USING THE RESPONSE (OR RELAXED) DENSITY
     -------------------------------------------------

          -----------------
          ENERGY COMPONENTS
          -----------------

         WAVEFUNCTION NORMALIZATION =       1.0000000000

                ONE ELECTRON ENERGY =    -635.9943361545
                TWO ELECTRON ENERGY =     223.2240533843
           NUCLEAR REPULSION ENERGY =     140.1681629786
                                      ------------------
                       TOTAL ENERGY =    -272.6021197916

 ELECTRON-ELECTRON POTENTIAL ENERGY =     223.2240533843
  NUCLEUS-ELECTRON POTENTIAL ENERGY =    -907.4758166897
   NUCLEUS-NUCLEUS POTENTIAL ENERGY =     140.1681629786
                                      ------------------
             TOTAL POTENTIAL ENERGY =    -544.0836003268
               TOTAL KINETIC ENERGY =     271.4814805352
                 VIRIAL RATIO (V/T) =       2.0041278663

          ---------------------------------------
          MULLIKEN AND LOWDIN POPULATION ANALYSES
          ---------------------------------------

               ----- POPULATIONS IN EACH AO -----
                             MULLIKEN      LOWDIN
              1  N  1  S      1.99668     1.97722
              2  N  1  S      0.91463     0.59931
              3  N  1  X      0.67601     0.61710
              4  N  1  Y      0.75929     0.69307
              5  N  1  Z      0.66731     0.60918
              6  N  1  S      1.09359     0.38484
              7  N  1  X      0.24807     0.33465
              8  N  1  Y      0.22707     0.35015
              9  N  1  Z      0.28100     0.33562
             10  N  1  S     -0.44375     0.08648
             11  N  1  X     -0.03247     0.03556
             12  N  1  Y      0.01217     0.03724
             13  N  1  Z      0.01602     0.03150
             14  N  1 XX      0.00052     0.18130
             15  N  1 YY      0.00624     0.19356
             16  N  1 ZZ     -0.00490     0.17548
             17  N  1 XY      0.01785     0.03223
             18  N  1 XZ      0.01090     0.01693
             19  N  1 YZ      0.01639     0.02618
             20  N  2  S      1.99560     1.97269
             21  N  2  S      0.82592     0.51184
             22  N  2  X      0.79205     0.71930
             23  N  2  Y      0.81514     0.71888
             24  N  2  Z      0.78400     0.70537
             25  N  2  S      0.51718     0.24575
             26  N  2  X      0.31158     0.35544
             27  N  2  Y      0.13808     0.33852
             28  N  2  Z      0.33429     0.37741
             29  N  2  S      0.16834     0.06580
             30  N  2  X     -0.11447     0.05264
             31  N  2  Y      0.04684     0.07845
             32  N  2  Z      0.06709     0.04886
             33  N  2 XX      0.00383     0.15188
             34  N  2 YY      0.03407     0.20821
             35  N  2 ZZ     -0.00302     0.13824
             36  N  2 XY      0.01662     0.03464
             37  N  2 XZ      0.01444     0.02584
             38  N  2 YZ      0.02129     0.03971
             39  N  3  S      1.99623     1.97642
             40  N  3  S      0.83605     0.55231
             41  N  3  X      0.67048     0.60517
             42  N  3  Y      0.75041     0.68741
             43  N  3  Z      0.84668     0.79157
             44  N  3  S      1.05626     0.32298
             45  N  3  X      0.21683     0.34979
             46  N  3  Y      0.30470     0.40297
             47  N  3  Z      0.40540     0.47765
             48  N  3  S      0.04108     0.06668
             49  N  3  X      0.15256     0.04828
             50  N  3  Y      0.11439     0.04800
             51  N  3  Z      0.08184     0.04847
             52  N  3 XX      0.01654     0.18904
             53  N  3 YY      0.00619     0.17529
             54  N  3 ZZ     -0.01141     0.15329
             55  N  3 XY      0.01521     0.02804
             56  N  3 XZ      0.01952     0.03165
             57  N  3 YZ      0.01823     0.02868
             58  N  4  S      1.99560     1.97293
             59  N  4  S      0.82591     0.51338
             60  N  4  X      0.82181     0.72165
             61  N  4  Y      0.78993     0.71904
             62  N  4  Z      0.77948     0.70404
             63  N  4  S      0.51711     0.24558
             64  N  4  X      0.04336     0.31567
             65  N  4  Y      0.36562     0.37119
             66  N  4  Z      0.37487     0.38256
             67  N  4  S      0.16868     0.06572
             68  N  4  X      0.02758     0.09245
             69  N  4  Y     -0.07387     0.04468
             70  N  4  Z      0.04572     0.04283
             71  N  4 XX      0.04429     0.23090
             72  N  4 YY     -0.00698     0.13142
             73  N  4 ZZ     -0.01187     0.12206
             74  N  4 XY      0.02389     0.04848
             75  N  4 XZ      0.02870     0.05385
             76  N  4 YZ      0.00919     0.01481
             77  N  5  S      1.99668     1.97744
             78  N  5  S      0.91460     0.60052
             79  N  5  X      0.80002     0.72959
             80  N  5  Y      0.65421     0.59733
             81  N  5  Z      0.64851     0.59077
             82  N  5  S      1.09365     0.38492
             83  N  5  X      0.19927     0.35474
             84  N  5  Y      0.26846     0.33226
             85  N  5  Z      0.28832     0.33192
             86  N  5  S     -0.44408     0.08644
             87  N  5  X      0.00686     0.04002
             88  N  5  Y     -0.02129     0.03342
             89  N  5  Z      0.01009     0.03082
             90  N  5 XX      0.01040     0.20279
             91  N  5 YY     -0.00347     0.17631
             92  N  5 ZZ     -0.00698     0.17251
             93  N  5 XY      0.02037     0.03453
             94  N  5 XZ      0.02009     0.03066
             95  N  5 YZ      0.00662     0.00902

          ----- MULLIKEN ATOMIC OVERLAP POPULATIONS -----
          (OFF-DIAGONAL ELEMENTS NEED TO BE MULTIPLIED BY 2)

             1           2           3           4           5

    1   11.8966848
    2   -2.1694795   8.5192348
    3   -3.3000486   0.4063975  13.3243202
    4   -0.0436230   0.0563064   0.4079206   8.5213918
    5    0.0790993  -0.0436157  -3.3014080  -2.1729824  11.9012352

          TOTAL MULLIKEN AND LOWDIN ATOMIC POPULATIONS
       ATOM         MULL.POP.    CHARGE          LOW.POP.     CHARGE
    1 N             6.462633    0.537367         6.717590    0.282410
    2 N             6.768843    0.231157         6.789453    0.210547
    3 N             7.537182   -0.537182         6.983705    0.016295
    4 N             6.769013    0.230987         6.793223    0.206777
    5 N             6.462328    0.537672         6.716028    0.283972

          -------------------------------
          BOND ORDER AND VALENCE ANALYSIS     BOND ORDER THRESHOLD=0.050
          -------------------------------

                   BOND                       BOND                       BOND
  ATOM PAIR DIST  ORDER      ATOM PAIR DIST  ORDER      ATOM PAIR DIST  ORDER
    1   2  1.144  2.136        1   3  2.441 -0.177        1   4  3.243 -0.116
    1   5  4.275 -0.053        2   3  1.313  1.487        2   4  2.154  0.319
    2   5  3.243 -0.116        3   4  1.313  1.487        3   5  2.441 -0.177
    4   5  1.144  2.136

                       TOTAL       BONDED        FREE
      ATOM            VALENCE     VALENCE     VALENCE
    1 N                 2.209       1.791       0.418
    2 N                 4.293       3.827       0.467
    3 N                 3.018       2.620       0.398
    4 N                 4.293       3.827       0.467
    5 N                 2.208       1.790       0.418

          ---------------------
          ELECTROSTATIC MOMENTS
          ---------------------

 POINT   1           X           Y           Z (BOHR)    CHARGE
                 2.334594    2.060036    0.124563        1.00 (A.U.)
         DX          DY          DZ         /D/  (DEBYE)
    -0.288560   -0.308181   -0.418855    0.594712
 ...... END OF PROPERTY EVALUATION ......
 CPU     0: STEP CPU TIME=     0.01 TOTAL CPU TIME=       14.4 (    0.2 MIN)
 TOTAL WALL CLOCK TIME=       14.4 SECONDS, CPU UTILIZATION IS  99.86%

                         ----------------------
                         GRADIENT OF THE ENERGY
                         ----------------------

 UNITS ARE HARTREE/BOHR    E'X               E'Y               E'Z 
    1 N                0.000148308      -0.000172106      -0.000055699
    2 N               -0.000172697       0.000275860       0.000106358
    3 N                0.000027149      -0.000083967      -0.000102665
    4 N               -0.000101701      -0.000047609       0.000061934
    5 N                0.000098942       0.000027821      -0.000009928

                   MAXIMUM GRADIENT =    0.000275860
                       RMS GRADIENT =    0.000120385
  $VIB   
          IVIB=   0 IATOM=   0 ICOORD=   0 E=     -272.6021197916
  1.483079079E-04-1.721056030E-04-5.569886823E-05-1.726971951E-04 2.758602823E-04
  1.063581679E-04 2.714884415E-05-8.396699371E-05-1.026651127E-04-1.017012355E-04
 -4.760903508E-05 6.193397686E-05 9.894166216E-05 2.782133889E-05-9.928164398E-06
 -2.885602370E-01-3.081813207E-01-4.188545998E-01

..... END OF SINGLE POINT GRADIENT .....
 CPU     0: STEP CPU TIME=     0.00 TOTAL CPU TIME=       14.4 (    0.2 MIN)
 TOTAL WALL CLOCK TIME=       14.4 SECONDS, CPU UTILIZATION IS  99.86%
              1276691  WORDS OF DYNAMIC MEMORY USED
 EXECUTION OF GAMESS TERMINATED NORMALLY Wed Aug  9 21:39:11 2017
 DDI: 263640 bytes (0.3 MB / 0 MWords) used by master data server.

 ----------------------------------------
 CPU timing information for all processes
 ========================================
 0: 13.975 + 0.433 = 14.409
 ----------------------------------------
 ddikick.x: exited gracefully.
unset echo
----- accounting info -----
Files used on the master node compute-1-8.local were:
-rw-rw-r-- 1 sarom sarom  962 Aug  9 21:38 /scratch/ims-rhf-mp2-n5.F05
-rw-rw-r-- 1 sarom sarom 108M Aug  9 21:38 /scratch/ims-rhf-mp2-n5.F08
-rw-rw-r-- 1 sarom sarom 2.3M Aug  9 21:39 /scratch/ims-rhf-mp2-n5.F10
rm: cannot remove `/scratch/tmp': Is a directory
ls: No match.
ls: No match.
ls: No match.
Wed Aug  9 21:39:14 CDT 2017
0.262u 0.179s 0:17.93 2.3%	0+0k 8+360io 0pf+0w
/opt/gridengine/default/spool/compute-1-8/active_jobs/36098.1/pe_hostfile compute-1-8.local
