-catch_rsh /opt/gridengine/default/spool/compute-1-1/active_jobs/36117.1/pe_hostfile
compute-1-1
The primary node assigned by SGE to this run is compute-1-1
Warning: no access to tty (Bad file descriptor).
Thus no job control in this shell.
source /home/sarom/dir.git.branch.saromleang-travis-ci/install.info
setenv GMS_PATH /home/sarom/dir.git.branch.saromleang-travis-ci
setenv GMS_BUILD_DIR /home/sarom/dir.git.branch.saromleang-travis-ci
setenv GMS_TARGET linux64
setenv GMS_FORTRAN gfortran
setenv GMS_GFORTRAN_VERNO 4.4
setenv GMS_MATHLIB mkl-so
setenv GMS_MATHLIB none
setenv GMS_MATHLIB_PATH /share/apps/intel/compilers_and_libraries_2017.1.132/linux/mkl/lib/intel64
setenv GMS_MKL_VERNO 12
setenv GMS_DDI_COMM sockets
setenv GMS_LIBCCHEM false
setenv GMS_EIGEN_PATH
setenv GMS_PHI false
setenv GMS_SHMTYPE sysv
setenv GMS_OPENMP false
unset echo
serial-rohf-rmp-o2
/home/sarom/dir.git.branch.saromleang-travis-ci/tests/mp2
----- GAMESS execution script 'rungms' -----
This job is running on host compute-1-1.local
under operating system Linux at Wed Aug 9 21:46:41 CDT 2017
Available scratch disk space (Kbyte units) at beginning of the job is
Filesystem           1K-blocks      Used Available Use% Mounted on
/dev/sda1             16126920   9109384   6198336  60% /
GAMESS temporary binary files will be written to /scratch
GAMESS supplementary output files will be written to /home/sarom/restart
Copying input file serial-rohf-rmp-o2.inp to your run's scratch directory...
cp /home/sarom/dir.git.branch.saromleang-travis-ci/tests/mp2/serial-rohf-rmp-o2.inp /scratch/serial-rohf-rmp-o2.F05
unset echo
The generated host list is
compute-1-1.local
/home/sarom/dir.git.branch.saromleang-travis-ci/ddikick.x /home/sarom/dir.git.branch.saromleang-travis-ci/gamess.00.x serial-rohf-rmp-o2 -ddi 1 1 compute-1-1.local -scr /scratch

 Distributed Data Interface kickoff program.
 Initiating 1 compute processes on 1 nodes to run the following command:
 /home/sarom/dir.git.branch.saromleang-travis-ci/gamess.00.x serial-rohf-rmp-o2 

          ******************************************************
          *         GAMESS VERSION = 20 APR 2017 (R1)          *
          *             FROM IOWA STATE UNIVERSITY             *
          * M.W.SCHMIDT, K.K.BALDRIDGE, J.A.BOATZ, S.T.ELBERT, *
          *   M.S.GORDON, J.H.JENSEN, S.KOSEKI, N.MATSUNAGA,   *
          *          K.A.NGUYEN, S.J.SU, T.L.WINDUS,           *
          *       TOGETHER WITH M.DUPUIS, J.A.MONTGOMERY       *
          *         J.COMPUT.CHEM.  14, 1347-1363(1993)        *
          **************** 64 BIT LINUX VERSION ****************

  SINCE 1993, STUDENTS AND POSTDOCS WORKING AT IOWA STATE UNIVERSITY
  AND ALSO IN THEIR VARIOUS JOBS AFTER LEAVING ISU HAVE MADE IMPORTANT
  CONTRIBUTIONS TO THE CODE:
     IVANA ADAMOVIC, CHRISTINE AIKENS, YURI ALEXEEV, POOJA ARORA,
     ANDREY ASADCHEV, ROB BELL, PRADIPTA BANDYOPADHYAY, JONATHAN BENTZ,
     BRETT BODE, KURT BRORSEN, CALEB CARLIN, GALINA CHABAN, WEI CHEN,
     CHEOL HO CHOI, PAUL DAY, ALBERT DEFUSCO, NUWAN DESILVA, TIM DUDLEY,
     DMITRI FEDOROV, GRAHAM FLETCHER, MARK FREITAG, KURT GLAESEMANN,
     DAN KEMP, GRANT MERRILL, NORIYUKI MINEZAWA, JONATHAN MULLIN,
     TAKESHI NAGATA, SEAN NEDD, HEATHER NETZLOFF, BOSILJKA NJEGIC, RYAN OLSON,
     MIKE PAK, SPENCER PRUITT, LUKE ROSKOP, JIM SHOEMAKER, LYUDMILA SLIPCHENKO,
     TONY SMITH, SAROM SOK LEANG, JIE SONG, TETSUYA TAKETSUGU, SIMON WEBB,
     PENG XU, SOOHAENG YOO, FEDERICO ZAHARIEV

  ADDITIONAL CODE HAS BEEN PROVIDED BY COLLABORATORS IN OTHER GROUPS:
     IOWA STATE UNIVERSITY:
          JOE IVANIC, AARON WEST, LAIMUTIS BYTAUTAS, KLAUS RUEDENBERG
     UNIVERSITY OF TOKYO: KIMIHIKO HIRAO, TAKAHITO NAKAJIMA,
          TAKAO TSUNEDA, MUNEAKI KAMIYA, SUSUMU YANAGISAWA,
          KIYOSHI YAGI, MAHITO CHIBA, SEIKEN TOKURA, NAOAKI KAWAKAMI
     UNIVERSITY OF AARHUS: FRANK JENSEN
     UNIVERSITY OF IOWA: VISVALDAS KAIRYS, HUI LI
     NATIONAL INST. OF STANDARDS AND TECHNOLOGY: WALT STEVENS, DAVID GARMER
     UNIVERSITY OF PISA: BENEDETTA MENNUCCI, JACOPO TOMASI
     UNIVERSITY OF MEMPHIS: HENRY KURTZ, PRAKASHAN KORAMBATH
     UNIVERSITY OF ALBERTA: TOBY ZENG, MARIUSZ KLOBUKOWSKI
     UNIVERSITY OF NEW ENGLAND: MARK SPACKMAN
     MIE UNIVERSITY: HIROAKI UMEDA
     NAT. INST. OF ADVANCED INDUSTRIAL SCIENCE AND TECHNOLOGY: KAZUO KITAURA
     MICHIGAN STATE UNIVERSITY:
          KAROL KOWALSKI, MARTA WLOCH, JEFFREY GOUR, JESSE LUTZ,
          WEI LI, PIOTR PIECUCH
     UNIVERSITY OF SILESIA: MONIKA MUSIAL, STANISLAW KUCHARSKI
     FACULTES UNIVERSITAIRES NOTRE-DAME DE LA PAIX:
          OLIVIER QUINET, BENOIT CHAMPAGNE
     UNIVERSITY OF CALIFORNIA - SANTA BARBARA: BERNARD KIRTMAN
     INSTITUTE FOR MOLECULAR SCIENCE:
          KAZUYA ISHIMURA, MICHIO KATOUDA, AND SHIGERU NAGASE
     UNIVERSITY OF NOTRE DAME: ANNA POMOGAEVA, DAN CHIPMAN
     KYUSHU UNIVERSITY:
          HARUYUKI NAKANO,
          FENG LONG GU, JACEK KORCHOWIEC, MARCIN MAKOWSKI, AND YURIKO AOKI,
          HIROTOSHI MORI AND EISAKU MIYOSHI
     PENNSYLVANIA STATE UNIVERSITY:
          TZVETELIN IORDANOV, CHET SWALINA, JONATHAN SKONE,
          SHARON HAMMES-SCHIFFER
     WASEDA UNIVERSITY:
          MASATO KOBAYASHI, TOMOKO AKAMA, TSUGUKI TOUMA,
          TAKESHI YOSHIKAWA, YASUHIRO IKABATA, JUNJI SEINO,
          YUYA NAKAJIMA, HIROMI NAKAI
     NANJING UNIVERSITY: SHUHUA LI
     UNIVERSITY OF NEBRASKA:
          PEIFENG SU, DEJUN SI, NANDUN THELLAMUREGE, YALI WANG, HUI LI
     UNIVERSITY OF ZURICH: ROBERTO PEVERATI, KIM BALDRIDGE
     N. COPERNICUS UNIVERSITY AND JACKSON STATE UNIVERSITY:
          MARIA BARYSZ
     UNIVERSITY OF COPENHAGEN: Jimmy Kromann, CASPER STEINMANN
     TOKYO INSTITUTE OF TECHNOLOGY: HIROYA NAKATA
     NAGOYA UNIVERSITY: YOSHIO NISHIMOTO, STEPHAN IRLE
     MOSCOW STATE UNIVERSITY: VLADIMIR MIRONOV

 EXECUTION OF GAMESS BEGUN Wed Aug  9 21:46:41 2017

            ECHO OF THE FIRST FEW INPUT CARDS -
 INPUT CARD>!  This is a test of the ZAPT 2nd order ROHF MP2 algorithm.                     
 INPUT CARD>!  This is the O2 molecule test of Table 1: T.J.Lee, A.P.Rendell,               
 INPUT CARD>!  K.G.Dyall, D.Jayatilaka   J.Chem.Phys. 100, 7400-9(1994)                     
 INPUT CARD>!  There are 78 AOs with Na=9 and Nb=7 occupied MOs.                            
 INPUT CARD>!                                                                               
 INPUT CARD>!  GAMESS: FINAL E=-149.6515058270, ZAPT E(MP2)= -150.1398572437 @ R=1.2376     
 INPUT CARD>!                                         RMP2 = -150.1457764083 @ R=1.2376     
 INPUT CARD>!                                         RMP2 = -150.1459137301 @ R=1.2499     
 INPUT CARD>!  Literature: R=1.2376 gives ZAPT E(.P2)= -150.139857                          
 INPUT CARD>!              R=1.2499 gives  RMP E(.P2)= -150.145914                          
 INPUT CARD>!              R=1.3192 gives OPT1 E(.P2)= -150.186394                          
 INPUT CARD>!              R=1.2418 gives OPT2 E(.P2)= -150.146244                          
 INPUT CARD>!  Only the latter energy cannot be computed with GAMESS.                       
 INPUT CARD>!                                                                               
 INPUT CARD>!  This run takes 2 seconds on 2.66 GHz Cloverton ( 1 Apr 2015)                 
 INPUT CARD>!  results have not changed much since at least 2005.                           
 INPUT CARD>!                                                                               
 INPUT CARD> $system mwords=100 memddi=2 $end                                               
 INPUT CARD>                                                                                
 INPUT CARD>!            for ZAPT                                                           
 INPUT CARD> $contrl scftyp=rohf mult=3 mplevl=2 runtyp=energy nosym=1 $end                 
 INPUT CARD> $mp2    code=serial ospt=rmp $end                                              
 INPUT CARD> $guess  guess=huckel $end                                                      
 INPUT CARD>                                                                                
 INPUT CARD>!            for RMP, after changing the bond distance below:                   
 INPUT CARD>--- $contrl scftyp=rohf mult=3 mplevl=2 runtyp=energy nosym=1 $end              
 INPUT CARD>--- $mp2    ospt=rmp $end                                                       
 INPUT CARD>--- $guess  guess=huckel $end                                                   
 INPUT CARD>                                                                                
 INPUT CARD>!            for OPT1, after obtaining a $VEC at the correct distance:          
 INPUT CARD>--- $contrl scftyp=mcscf mult=3 mplevl=2 runtyp=energy nosym=1 $end             
 INPUT CARD>--- $det    ncore=7 nact=2 nels=2 $end                                          
 INPUT CARD>--- $mcqdpt inorb=1 nmofzc=2 nmodoc=5 nmoact=2 nstate=1 $end                    
 INPUT CARD>--- $guess  guess=moread norb=78 $end                                           
 INPUT CARD>                                                                                
 INPUT CARD> $data                                                                          
 INPUT CARD>O2 energy calculation...TZ2Pf basis...[10s,6p,2d,1f]/(5s,4p,2d,1f)              
 INPUT CARD>Dnh 4                                                                           
 INPUT CARD>                                                                                
 INPUT CARD>O  8.0     0.0  0.0  1.2376/2                                                   
 INPUT CARD> s 6                                                                            
 INPUT CARD>   1 18050.0   0.000757                                                         
 INPUT CARD>   2  2660.0   0.006066                                                         
 INPUT CARD>   3   585.7   0.032782                                                         
 INPUT CARD>   4   160.9   0.132609                                                         
 INPUT CARD>   5    51.16  0.396839                                                         
 INPUT CARD>   6    17.90  0.542572                                                         
 INPUT CARD> s 2                                                                            
 INPUT CARD>   1 17.90  0.262490                                                            
 INPUT CARD>   2  6.639 0.769828                                                            
  100000000 WORDS OF MEMORY AVAILABLE


     RUN TITLE
     ---------
 O2 energy calculation...TZ2Pf basis...[10s,6p,2d,1f]/(5s,4p,2d,1f)              

 THE POINT GROUP OF THE MOLECULE IS DNH     
 THE ORDER OF THE PRINCIPAL AXIS IS     4

 ATOM      ATOMIC                      COORDINATES (BOHR)
           CHARGE         X                   Y                   Z
 O           8.0     0.0000000000        0.0000000000       -1.1693624412
 O           8.0     0.0000000000        0.0000000000        1.1693624412

          INTERNUCLEAR DISTANCES (ANGS.)
          ------------------------------

                1 O          2 O     

   1 O       0.0000000    1.2376000 *
   2 O       1.2376000 *  0.0000000  

  * ... LESS THAN  3.000


     ATOMIC BASIS SET
     ----------------
 THE CONTRACTED PRIMITIVE FUNCTIONS HAVE BEEN UNNORMALIZED
 THE CONTRACTED BASIS FUNCTIONS ARE NOW NORMALIZED TO UNITY

  SHELL TYPE  PRIMITIVE        EXPONENT          CONTRACTION COEFFICIENT(S)

 O         

     13   S       1         18050.0000000    0.000756999830
     13   S       2          2660.0000000    0.006065998635
     13   S       3           585.7000000    0.032781992623
     13   S       4           160.9000000    0.132608970160
     13   S       5            51.1600000    0.396838910703
     13   S       6            17.9000000    0.542571877910

     14   S       7            17.9000000    0.262489933687
     14   S       8             6.6390000    0.769827805517

     15   S       9             2.0770000    1.000000000000

     16   S      10             0.7736000    1.000000000000

     17   S      11             0.2558000    1.000000000000

     18   P      12            49.8300000    0.037778007397
     18   P      13            11.4900000    0.245844048137
     18   P      14             3.6090000    0.806685157951

     19   P      15             1.3210000    1.000000000000

     20   P      16             0.4821000    1.000000000000

     21   P      17             0.1651000    1.000000000000

     22   D      18             2.3140000    1.000000000000

     23   D      19             0.6450000    1.000000000000

     24   F      20             1.4280000    1.000000000000

 TOTAL NUMBER OF BASIS SET SHELLS             =   24
 NUMBER OF CARTESIAN GAUSSIAN BASIS FUNCTIONS =   78
 NUMBER OF ELECTRONS                          =   16
 CHARGE OF MOLECULE                           =    0
 SPIN MULTIPLICITY                            =    3
 NUMBER OF OCCUPIED ORBITALS (ALPHA)          =    9
 NUMBER OF OCCUPIED ORBITALS (BETA )          =    7
 TOTAL NUMBER OF ATOMS                        =    2
 THE NUCLEAR REPULSION ENERGY IS       27.3653393272

 THIS MOLECULE IS RECOGNIZED AS BEING LINEAR,
 ORBITAL LZ DEGENERACY TOLERANCE ETOLLZ= 1.00E-06

     $CONTRL OPTIONS
     ---------------
 SCFTYP=ROHF         RUNTYP=ENERGY       EXETYP=RUN     
 MPLEVL=       2     CITYP =NONE         CCTYP =NONE         VBTYP =NONE    
 DFTTYP=NONE         TDDFT =NONE    
 MULT  =       3     ICHARG=       0     NZVAR =       0     COORD =UNIQUE  
 PP    =NONE         RELWFN=NONE         LOCAL =NONE         NUMGRD=       F
 ISPHER=      -1     NOSYM =       1     MAXIT =      30     UNITS =ANGS    
 PLTORB=       F     MOLPLT=       F     AIMPAC=       F     FRIEND=        
 NPRINT=       7     IREST =       0     GEOM  =INPUT   
 NORMF =       0     NORMP =       0     ITOL  =      20     ICUT  =       9
 INTTYP=BEST         GRDTYP=BEST         QMTTOL= 1.0E-06

     $SYSTEM OPTIONS
     ---------------
  REPLICATED MEMORY=   100000000 WORDS (ON EVERY NODE).
 DISTRIBUTED MEMDDI=           2 MILLION WORDS IN AGGREGATE,
 MEMDDI DISTRIBUTED OVER   1 PROCESSORS IS     2000000 WORDS/PROCESSOR.
 TOTAL MEMORY REQUESTED ON EACH PROCESSOR=   102000000 WORDS.
 TIMLIM=      525600.00 MINUTES, OR     365.0 DAYS.
 PARALL= F  BALTYP=  DLB     KDIAG=    0  COREFL= F
 MXSEQ2=     300 MXSEQ3=     150  mem10=         0

          ----------------
          PROPERTIES INPUT
          ----------------

     MOMENTS            FIELD           POTENTIAL          DENSITY
 IEMOM =       1   IEFLD =       0   IEPOT =       0   IEDEN =       0
 WHERE =COMASS     WHERE =NUCLEI     WHERE =NUCLEI     WHERE =NUCLEI  
 OUTPUT=BOTH       OUTPUT=BOTH       OUTPUT=BOTH       OUTPUT=BOTH    
 IEMINT=       0   IEFINT=       0                     IEDINT=       0
                                                       MORB  =       0
          EXTRAPOLATION IN EFFECT
          SOSCF IN EFFECT
 ORBITAL PRINTING OPTION: NPREO=     1    78     2     1

     -------------------------------
     INTEGRAL TRANSFORMATION OPTIONS
     -------------------------------
     NWORD  =            0
     CUTOFF = 1.0E-09     MPTRAN =       0
     DIRTRF =       F     AOINTS =DUP     

          ----------------------
          INTEGRAL INPUT OPTIONS
          ----------------------
 NOPK  =       1 NORDER=       0 SCHWRZ=       F

          -----------------------
          MP2 CONTROL INFORMATION
          -----------------------
          NACORE =        2  NBCORE =        2
          LMOMP2 =        F  AOINTS = DUP     
          METHOD =        2  NWORD  =               0
          MP2PRP =        F  OSPT   = RMP     
          CUTOFF = 1.00E-09  CPHFBS = BASISAO 
          CODE   = SERIAL  

          NUMBER OF CORE -A-  ORBITALS =     2
          NUMBER OF CORE -B-  ORBITALS =     2
          NUMBER OF OCC. -A-  ORBITALS =     9
          NUMBER OF OCC. -B-  ORBITALS =     7
          NUMBER OF MOLECULAR ORBITALS =    78
          NUMBER OF   BASIS  FUNCTIONS =    78


     ------------------------------------------
     THE POINT GROUP IS C1 , NAXIS= 1, ORDER= 1
     ------------------------------------------

     DIMENSIONS OF THE SYMMETRY SUBSPACES ARE
 A   =   78

 ..... DONE SETTING UP THE RUN .....
 STEP CPU TIME =     0.01 TOTAL CPU TIME =        0.0 (    0.0 MIN)
 TOTAL WALL CLOCK TIME=        0.0 SECONDS, CPU UTILIZATION IS  50.00%

          ********************
          1 ELECTRON INTEGRALS
          ********************
 ...... END OF ONE-ELECTRON INTEGRALS ......
 STEP CPU TIME =     0.00 TOTAL CPU TIME =        0.0 (    0.0 MIN)
 TOTAL WALL CLOCK TIME=        0.0 SECONDS, CPU UTILIZATION IS  50.00%

          -------------
          GUESS OPTIONS
          -------------
          GUESS =HUCKEL            NORB  =       0          NORDER=       0
          MIX   =       F          PRTMO =       F          PUNMO =       F
          TOLZ  = 1.0E-08          TOLE  = 1.0E-05
          SYMDEN=       F          PURIFY=       F

 INITIAL GUESS ORBITALS GENERATED BY HUCKEL   ROUTINE.
 HUCKEL GUESS REQUIRES     46146 WORDS.

 SYMMETRIES FOR INITIAL GUESS ORBITALS FOLLOW.  ALPHA SET(S).
     9 ORBITALS ARE OCCUPIED (    2 CORE ORBITALS).
     3=A        4=A        5=A        6=A        7=A        8=A        9=A   
    10=A       11=A       12=A       13=A       14=A       15=A       16=A   
    17=A       18=A       19=A   

 SYMMETRIES FOR INITIAL GUESS ORBITALS FOLLOW.   BETA SET(S).
     7 ORBITALS ARE OCCUPIED (    2 CORE ORBITALS).
     3=A        4=A        5=A        6=A        7=A        8=A        9=A   
    10=A       11=A       12=A       13=A       14=A       15=A       16=A   
    17=A   
 ...... END OF INITIAL ORBITAL SELECTION ......
 STEP CPU TIME =     0.01 TOTAL CPU TIME =        0.0 (    0.0 MIN)
 TOTAL WALL CLOCK TIME=        0.0 SECONDS, CPU UTILIZATION IS  66.67%

                    ----------------------
                    AO INTEGRAL TECHNOLOGY
                    ----------------------
     S,P,L SHELL ROTATED AXIS INTEGRALS, REPROGRAMMED BY
        KAZUYA ISHIMURA (IMS) AND JOSE SIERRA (SYNSTAR).
     S,P,D,L SHELL ROTATED AXIS INTEGRALS PROGRAMMED BY
        KAZUYA ISHIMURA (INSTITUTE FOR MOLECULAR SCIENCE).
     S,P,D,F,G SHELL TO TOTAL QUARTET ANGULAR MOMENTUM SUM 5,
        ERIC PROGRAM BY GRAHAM FLETCHER (ELORET AND NASA ADVANCED
        SUPERCOMPUTING DIVISION, AMES RESEARCH CENTER).
     S,P,D,F,G,L SHELL GENERAL RYS QUADRATURE PROGRAMMED BY
        MICHEL DUPUIS (PACIFIC NORTHWEST NATIONAL LABORATORY).

          --------------------
          2 ELECTRON INTEGRALS
          --------------------

 THE -PK- OPTION IS OFF, THE INTEGRALS ARE NOT IN SUPERMATRIX FORM.
 STORING   15000 INTEGRALS/RECORD ON DISK, USING 12 BYTES/INTEGRAL.
 TWO ELECTRON INTEGRAL EVALUATION REQUIRES   99400 WORDS OF MEMORY.
 II,JST,KST,LST =  1  1  1  1 NREC =         1 INTLOC =    1
 II,JST,KST,LST =  2  1  1  1 NREC =         1 INTLOC =    2
 II,JST,KST,LST =  3  1  1  1 NREC =         1 INTLOC =    7
 II,JST,KST,LST =  4  1  1  1 NREC =         1 INTLOC =   22
 II,JST,KST,LST =  5  1  1  1 NREC =         1 INTLOC =   56
 II,JST,KST,LST =  6  1  1  1 NREC =         1 INTLOC =  121
 II,JST,KST,LST =  7  1  1  1 NREC =         1 INTLOC =  220
 II,JST,KST,LST =  8  1  1  1 NREC =         1 INTLOC =  496
 II,JST,KST,LST =  9  1  1  1 NREC =         1 INTLOC = 1057
 II,JST,KST,LST = 10  1  1  1 NREC =         1 INTLOC = 2074
 II,JST,KST,LST = 11  1  1  1 NREC =         1 INTLOC = 5929
 II,JST,KST,LST = 12  1  1  1 NREC =         1 INTLOC =14065
 II,JST,KST,LST = 13  1  1  1 NREC =         3 INTLOC =11855
 II,JST,KST,LST = 14  1  1  1 NREC =         4 INTLOC = 4794
 II,JST,KST,LST = 15  1  1  1 NREC =         4 INTLOC =14213
 II,JST,KST,LST = 16  1  1  1 NREC =         5 INTLOC = 9982
 II,JST,KST,LST = 17  1  1  1 NREC =         6 INTLOC = 6745
 II,JST,KST,LST = 18  1  1  1 NREC =         7 INTLOC = 4540
 II,JST,KST,LST = 19  1  1  1 NREC =         9 INTLOC =12532
 II,JST,KST,LST = 20  1  1  1 NREC =        12 INTLOC =14019
 II,JST,KST,LST = 21  1  1  1 NREC =        16 INTLOC = 9367
 II,JST,KST,LST = 22  1  1  1 NREC =        20 INTLOC =14474
 II,JST,KST,LST = 23  1  1  1 NREC =        31 INTLOC =12391
 II,JST,KST,LST = 24  1  1  1 NREC =        46 INTLOC = 2052
 TOTAL NUMBER OF NONZERO TWO-ELECTRON INTEGRALS =             1161400
         78 INTEGRAL RECORDS WERE STORED ON DISK FILE  8.
  ...... END OF TWO-ELECTRON INTEGRALS .....
 STEP CPU TIME =     0.18 TOTAL CPU TIME =        0.2 (    0.0 MIN)
 TOTAL WALL CLOCK TIME=        0.2 SECONDS, CPU UTILIZATION IS  95.24%

          ---------------------------
                 ROHF SCF CALCULATION
          ---------------------------

     NUCLEAR ENERGY =        27.3653393272
     MAXIT = 30     NPUNCH=  2     MULT=  3
     EXTRAP=T  DAMP=F  SHIFT=F  RSTRCT=F  DIIS=F  SOSCF=T
     DENSITY MATRIX CONV=  1.00E-06
     ROHF CANONICALIZATION PARAMETERS
             C-C     O-O     V-V
     ALPHA -0.5000  0.5000  1.5000
     BETA   1.5000  0.5000 -0.5000
     SOSCF WILL OPTIMIZE     635 ORBITAL ROTATION ANGLES. SOGTOL= 2.500E-01
     MEMORY REQUIRED FOR UHF/ROHF ITERS=     89584 WORDS.

 ITER EX      TOTAL ENERGY        E CHANGE  DENSITY CHANGE    ORB. GRAD 
   1  0     -149.1389923478  -149.1389923478   0.369723795   0.000000000
          ---------------START SECOND ORDER SCF---------------
   2  1     -149.6339515341    -0.4949591864   0.029352998   0.062150438
   3  2     -149.6491549401    -0.0152034060   0.017058429   0.019483156
   4  3     -149.6514418514    -0.0022869112   0.006757408   0.002731814
   5  4     -149.6514997764    -0.0000579250   0.000556306   0.001131876
   6  5     -149.6515057600    -0.0000059836   0.000234791   0.000101940
   7  6     -149.6515058251    -0.0000000651   0.000045547   0.000014335
   8  7     -149.6515058268    -0.0000000017   0.000001779   0.000001224
   9  8     -149.6515058268    -0.0000000000   0.000000195   0.000000101
  10  9     -149.6515058268    -0.0000000000   0.000000020   0.000000023

          -----------------
          DENSITY CONVERGED
          -----------------
     TIME TO FORM FOCK OPERATORS=       0.2 SECONDS (       0.0 SEC/ITER)
     TIME TO SOLVE SCF EQUATIONS=       0.0 SECONDS (       0.0 SEC/ITER)

 FINAL ROHF ENERGY IS     -149.6515058268 AFTER  10 ITERATIONS

          --------------------
          SPIN SZ   =    1.000
          S-SQUARED =    2.000
          --------------------

 LZ VALUE ANALYSIS FOR THE MOS
 ----------------------------------------
 MO     1 (    1) HAS LZ(WEIGHT)= 0.00(100.0%) 
 MO     2 (    2) HAS LZ(WEIGHT)= 0.00(100.0%) 
 MO     3 (    3) HAS LZ(WEIGHT)= 0.00(100.0%) 
 MO     4 (    4) HAS LZ(WEIGHT)= 0.00(100.0%) 
 MO     5 (    5) HAS LZ(WEIGHT)= 0.00(100.0%) 
 MO     6 (    6) HAS LZ(WEIGHT)=-1.00( 50.0%)  1.00( 50.0%) 
 MO     7 (    6) HAS LZ(WEIGHT)=-1.00( 50.0%)  1.00( 50.0%) 
 MO     8 (    7) HAS LZ(WEIGHT)=-1.00( 50.0%)  1.00( 50.0%) 
 MO     9 (    7) HAS LZ(WEIGHT)=-1.00( 50.0%)  1.00( 50.0%) 
 MO    10 (    8) HAS LZ(WEIGHT)= 0.00(100.0%) 
 MO    11 (    9) HAS LZ(WEIGHT)=-1.00( 50.0%)  1.00( 50.0%) 
 MO    12 (    9) HAS LZ(WEIGHT)=-1.00( 50.0%)  1.00( 50.0%) 
 MO    13 (   10) HAS LZ(WEIGHT)= 0.00(100.0%) 
 MO    14 (   11) HAS LZ(WEIGHT)=-1.00( 50.0%)  1.00( 50.0%) 
 MO    15 (   11) HAS LZ(WEIGHT)=-1.00( 50.0%)  1.00( 50.0%) 
 MO    16 (   12) HAS LZ(WEIGHT)= 0.00(100.0%) 
 MO    17 (   13) HAS LZ(WEIGHT)= 0.00(100.0%) 
 MO    18 (   14) HAS LZ(WEIGHT)= 0.00(100.0%) 
 MO    19 (   15) HAS LZ(WEIGHT)=-2.00( 50.0%)  2.00( 50.0%) 
 MO    20 (   15) HAS LZ(WEIGHT)=-2.00( 50.0%)  2.00( 50.0%) 
 MO    21 (   16) HAS LZ(WEIGHT)=-1.00( 50.0%)  1.00( 50.0%) 
 MO    22 (   16) HAS LZ(WEIGHT)=-1.00( 50.0%)  1.00( 50.0%) 
 MO    23 (   17) HAS LZ(WEIGHT)=-2.00( 50.0%)  2.00( 50.0%) 
 MO    24 (   17) HAS LZ(WEIGHT)=-2.00( 50.0%)  2.00( 50.0%) 
 MO    25 (   18) HAS LZ(WEIGHT)= 0.00(100.0%) 
 MO    26 (   19) HAS LZ(WEIGHT)=-1.00( 50.0%)  1.00( 50.0%) 
 MO    27 (   19) HAS LZ(WEIGHT)=-1.00( 50.0%)  1.00( 50.0%) 
 MO    28 (   20) HAS LZ(WEIGHT)= 0.00(100.0%) 
 MO    29 (   21) HAS LZ(WEIGHT)=-1.00( 50.0%)  1.00( 50.0%) 
 MO    30 (   21) HAS LZ(WEIGHT)=-1.00( 50.0%)  1.00( 50.0%) 
 MO    31 (   22) HAS LZ(WEIGHT)= 0.00(100.0%) 
 MO    32 (   23) HAS LZ(WEIGHT)=-1.00( 50.0%)  1.00( 50.0%) 
 MO    33 (   23) HAS LZ(WEIGHT)=-1.00( 50.0%)  1.00( 50.0%) 
 MO    34 (   24) HAS LZ(WEIGHT)= 0.00(100.0%) 
 MO    35 (   25) HAS LZ(WEIGHT)= 0.00(100.0%) 
 MO    36 (   26) HAS LZ(WEIGHT)= 0.00(100.0%) 
 MO    37 (   27) HAS LZ(WEIGHT)=-1.00( 50.0%)  1.00( 50.0%) 
 MO    38 (   27) HAS LZ(WEIGHT)=-1.00( 50.0%)  1.00( 50.0%) 
 MO    39 (   28) HAS LZ(WEIGHT)=-2.00( 50.0%)  2.00( 50.0%) 
 MO    40 (   28) HAS LZ(WEIGHT)=-2.00( 50.0%)  2.00( 50.0%) 
 MO    41 (   29) HAS LZ(WEIGHT)= 0.00(100.0%) 
 MO    42 (   30) HAS LZ(WEIGHT)=-3.00( 50.0%)  3.00( 50.0%) 
 MO    43 (   30) HAS LZ(WEIGHT)=-3.00( 50.0%)  3.00( 50.0%) 
 MO    44 (   31) HAS LZ(WEIGHT)=-3.00( 50.0%)  3.00( 50.0%) 
 MO    45 (   31) HAS LZ(WEIGHT)=-3.00( 50.0%)  3.00( 50.0%) 
 MO    46 (   32) HAS LZ(WEIGHT)=-1.00( 50.0%)  1.00( 50.0%) 
 MO    47 (   32) HAS LZ(WEIGHT)=-1.00( 50.0%)  1.00( 50.0%) 
 MO    48 (   33) HAS LZ(WEIGHT)= 0.00(100.0%) 
 MO    49 (   34) HAS LZ(WEIGHT)=-1.00( 50.0%)  1.00( 50.0%) 
 MO    50 (   34) HAS LZ(WEIGHT)=-1.00( 50.0%)  1.00( 50.0%) 
 MO    51 (   35) HAS LZ(WEIGHT)= 0.00(100.0%) 
 MO    52 (   36) HAS LZ(WEIGHT)=-2.00( 50.0%)  2.00( 50.0%) 
 MO    53 (   36) HAS LZ(WEIGHT)=-2.00( 50.0%)  2.00( 50.0%) 
 MO    54 (   37) HAS LZ(WEIGHT)=-2.00( 50.0%)  2.00( 50.0%) 
 MO    55 (   37) HAS LZ(WEIGHT)=-2.00( 50.0%)  2.00( 50.0%) 
 MO    56 (   38) HAS LZ(WEIGHT)= 0.00(100.0%) 
 MO    57 (   39) HAS LZ(WEIGHT)=-2.00( 50.0%)  2.00( 50.0%) 
 MO    58 (   39) HAS LZ(WEIGHT)=-2.00( 50.0%)  2.00( 50.0%) 
 MO    59 (   40) HAS LZ(WEIGHT)=-1.00( 50.0%)  1.00( 50.0%) 
 MO    60 (   40) HAS LZ(WEIGHT)=-1.00( 50.0%)  1.00( 50.0%) 
 MO    61 (   41) HAS LZ(WEIGHT)=-1.00( 50.0%)  1.00( 50.0%) 
 MO    62 (   41) HAS LZ(WEIGHT)=-1.00( 50.0%)  1.00( 50.0%) 
 MO    63 (   42) HAS LZ(WEIGHT)= 0.00(100.0%) 
 MO    64 (   43) HAS LZ(WEIGHT)= 0.00(100.0%) 
 MO    65 (   44) HAS LZ(WEIGHT)=-1.00( 50.0%)  1.00( 50.0%) 
 MO    66 (   44) HAS LZ(WEIGHT)=-1.00( 50.0%)  1.00( 50.0%) 
 MO    67 (   45) HAS LZ(WEIGHT)= 0.00(100.0%) 
 MO    68 (   46) HAS LZ(WEIGHT)= 0.00(100.0%) 
 MO    69 (   47) HAS LZ(WEIGHT)=-1.00( 50.0%)  1.00( 50.0%) 
 MO    70 (   47) HAS LZ(WEIGHT)=-1.00( 50.0%)  1.00( 50.0%) 
 MO    71 (   48) HAS LZ(WEIGHT)=-1.00( 50.0%)  1.00( 50.0%) 
 MO    72 (   48) HAS LZ(WEIGHT)=-1.00( 50.0%)  1.00( 50.0%) 
 MO    73 (   49) HAS LZ(WEIGHT)= 0.00(100.0%) 
 MO    74 (   50) HAS LZ(WEIGHT)= 0.00(100.0%) 
 MO    75 (   51) HAS LZ(WEIGHT)= 0.00(100.0%) 
 MO    76 (   52) HAS LZ(WEIGHT)= 0.00(100.0%) 
 MO    77 (   53) HAS LZ(WEIGHT)= 0.00(100.0%) 
 MO    78 (   54) HAS LZ(WEIGHT)= 0.00(100.0%) 

          ------------
          EIGENVECTORS
          ------------

                      1          2          3          4          5
                  -20.6934   -20.6919    -1.5138    -0.9275    -0.6573
                     A          A          A          A          A   
    1  O  1  S    0.388721  -0.388774  -0.085220   0.092260  -0.033390
    2  O  1  S    0.338855  -0.339055  -0.144788   0.160086  -0.061102
    3  O  1  S    0.040450  -0.041091   0.059876  -0.073002   0.017514
    4  O  1  S   -0.008909   0.009701   0.369656  -0.422638   0.148773
    5  O  1  S   -0.002249   0.005903   0.160084  -0.307800   0.288009
    6  O  1  X   -0.000000  -0.000000  -0.000000   0.000000  -0.000000
    7  O  1  Y   -0.000000  -0.000000  -0.000000   0.000000  -0.000000
    8  O  1  Z    0.001770  -0.001779   0.056091   0.049329  -0.153433
    9  O  1  X   -0.000000  -0.000000  -0.000000   0.000000  -0.000000
   10  O  1  Y   -0.000000  -0.000000  -0.000000   0.000000  -0.000000
   11  O  1  Z   -0.001167   0.001338   0.087420   0.070570  -0.229754
   12  O  1  X   -0.000000  -0.000000  -0.000000   0.000000  -0.000000
   13  O  1  Y   -0.000000  -0.000000  -0.000000   0.000000  -0.000000
   14  O  1  Z   -0.000238  -0.000305   0.077751   0.063935  -0.256765
   15  O  1  X   -0.000000  -0.000000  -0.000000   0.000000  -0.000000
   16  O  1  Y   -0.000000  -0.000000  -0.000000   0.000000  -0.000000
   17  O  1  Z    0.000146   0.000734   0.011699   0.028922  -0.099335
   18  O  1 XX    0.000559  -0.000850  -0.000146  -0.007553   0.003188
   19  O  1 YY    0.000559  -0.000850  -0.000146  -0.007553   0.003188
   20  O  1 ZZ    0.000660  -0.000765   0.015651  -0.001916  -0.014908
   21  O  1 XY   -0.000000  -0.000000  -0.000000   0.000000  -0.000000
   22  O  1 XZ   -0.000000  -0.000000  -0.000000   0.000000  -0.000000
   23  O  1 YZ   -0.000000  -0.000000  -0.000000   0.000000  -0.000000
   24  O  1 XX    0.001961  -0.002887   0.001829  -0.016335  -0.011828
   25  O  1 YY    0.001961  -0.002887   0.001829  -0.016335  -0.011828
   26  O  1 ZZ    0.001939  -0.003044   0.032139  -0.006211  -0.047522
   27  O  1 XY   -0.000000  -0.000000  -0.000000   0.000000  -0.000000
   28  O  1 XZ   -0.000000  -0.000000  -0.000000   0.000000  -0.000000
   29  O  1 YZ   -0.000000  -0.000000  -0.000000   0.000000  -0.000000
   30  O  1 XXX  -0.000000  -0.000000  -0.000000   0.000000  -0.000000
   31  O  1 YYY  -0.000000  -0.000000  -0.000000   0.000000  -0.000000
   32  O  1 ZZZ   0.000836  -0.000714   0.012281   0.002582  -0.010830
   33  O  1 XXY  -0.000000  -0.000000  -0.000000   0.000000  -0.000000
   34  O  1 XXZ   0.000280  -0.000312  -0.001263   0.000642   0.002197
   35  O  1 YYX  -0.000000  -0.000000  -0.000000   0.000000  -0.000000
   36  O  1 YYZ   0.000280  -0.000312  -0.001263   0.000642   0.002197
   37  O  1 ZZX  -0.000000  -0.000000  -0.000000   0.000000  -0.000000
   38  O  1 ZZY  -0.000000  -0.000000  -0.000000   0.000000  -0.000000
   39  O  1 XYZ  -0.000000  -0.000000  -0.000000   0.000000  -0.000000
   40  O  2  S    0.388721   0.388774  -0.085220  -0.092260  -0.033390
   41  O  2  S    0.338855   0.339055  -0.144788  -0.160086  -0.061102
   42  O  2  S    0.040450   0.041091   0.059876   0.073002   0.017514
   43  O  2  S   -0.008909  -0.009701   0.369656   0.422638   0.148773
   44  O  2  S   -0.002249  -0.005903   0.160084   0.307800   0.288009
   45  O  2  X   -0.000000  -0.000000  -0.000000   0.000000  -0.000000
   46  O  2  Y   -0.000000  -0.000000  -0.000000   0.000000  -0.000000
   47  O  2  Z   -0.001770  -0.001779  -0.056091   0.049329   0.153433
   48  O  2  X   -0.000000  -0.000000  -0.000000   0.000000  -0.000000
   49  O  2  Y   -0.000000  -0.000000  -0.000000   0.000000  -0.000000
   50  O  2  Z    0.001167   0.001338  -0.087420   0.070570   0.229754
   51  O  2  X   -0.000000  -0.000000  -0.000000   0.000000  -0.000000
   52  O  2  Y   -0.000000  -0.000000  -0.000000   0.000000  -0.000000
   53  O  2  Z    0.000238  -0.000305  -0.077751   0.063935   0.256765
   54  O  2  X   -0.000000  -0.000000  -0.000000   0.000000  -0.000000
   55  O  2  Y   -0.000000  -0.000000  -0.000000   0.000000  -0.000000
   56  O  2  Z   -0.000146   0.000734  -0.011699   0.028922   0.099335
   57  O  2 XX    0.000559   0.000850  -0.000146   0.007553   0.003188
   58  O  2 YY    0.000559   0.000850  -0.000146   0.007553   0.003188
   59  O  2 ZZ    0.000660   0.000765   0.015651   0.001916  -0.014908
   60  O  2 XY   -0.000000  -0.000000  -0.000000   0.000000  -0.000000
   61  O  2 XZ   -0.000000  -0.000000  -0.000000   0.000000  -0.000000
   62  O  2 YZ   -0.000000  -0.000000  -0.000000   0.000000  -0.000000
   63  O  2 XX    0.001961   0.002887   0.001829   0.016335  -0.011828
   64  O  2 YY    0.001961   0.002887   0.001829   0.016335  -0.011828
   65  O  2 ZZ    0.001939   0.003044   0.032139   0.006211  -0.047522
   66  O  2 XY   -0.000000  -0.000000  -0.000000   0.000000  -0.000000
   67  O  2 XZ   -0.000000  -0.000000  -0.000000   0.000000  -0.000000
   68  O  2 YZ   -0.000000  -0.000000  -0.000000   0.000000  -0.000000
   69  O  2 XXX  -0.000000  -0.000000  -0.000000   0.000000  -0.000000
   70  O  2 YYY  -0.000000  -0.000000  -0.000000   0.000000  -0.000000
   71  O  2 ZZZ  -0.000836  -0.000714  -0.012281   0.002582   0.010830
   72  O  2 XXY  -0.000000  -0.000000  -0.000000   0.000000  -0.000000
   73  O  2 XXZ  -0.000280  -0.000312   0.001263   0.000642  -0.002197
   74  O  2 YYX  -0.000000  -0.000000  -0.000000   0.000000  -0.000000
   75  O  2 YYZ  -0.000280  -0.000312   0.001263   0.000642  -0.002197
   76  O  2 ZZX  -0.000000  -0.000000  -0.000000   0.000000  -0.000000
   77  O  2 ZZY  -0.000000  -0.000000  -0.000000   0.000000  -0.000000
   78  O  2 XYZ  -0.000000  -0.000000  -0.000000   0.000000  -0.000000

                      6          7          8          9         10
                   -0.4569    -0.4569    -0.2224    -0.2224     0.2723
                     A          A          A          A          A   
    1  O  1  S    0.000000   0.000000  -0.000000   0.000000   0.044934
    2  O  1  S    0.000000   0.000000  -0.000000   0.000000   0.090042
    3  O  1  S    0.000000   0.000000  -0.000000   0.000000   0.041742
    4  O  1  S    0.000000   0.000000  -0.000000   0.000000  -0.044606
    5  O  1  S    0.000000   0.000000  -0.000000   0.000000  -2.230188
    6  O  1  X   -0.024068   0.150952   0.142221  -0.114890  -0.000000
    7  O  1  Y    0.150952   0.024068  -0.114890  -0.142221  -0.000000
    8  O  1  Z    0.000000   0.000000  -0.000000   0.000000  -0.089953
    9  O  1  X   -0.035796   0.224504   0.215587  -0.174158  -0.000000
   10  O  1  Y    0.224504   0.035796  -0.174158  -0.215587  -0.000000
   11  O  1  Z    0.000000   0.000000  -0.000000   0.000000  -0.132383
   12  O  1  X   -0.043453   0.272530   0.262167  -0.211787  -0.000000
   13  O  1  Y    0.272530   0.043453  -0.211787  -0.262167  -0.000000
   14  O  1  Z    0.000000   0.000000  -0.000000   0.000000  -0.024321
   15  O  1  X   -0.019463   0.122070   0.161160  -0.130190  -0.000000
   16  O  1  Y    0.122070   0.019463  -0.130190  -0.161160  -0.000000
   17  O  1  Z    0.000000   0.000000  -0.000000   0.000000  -1.391294
   18  O  1 XX    0.000000   0.000000  -0.000000   0.000000   0.014466
   19  O  1 YY    0.000000   0.000000  -0.000000   0.000000   0.014466
   20  O  1 ZZ    0.000000   0.000000  -0.000000   0.000000   0.038655
   21  O  1 XY    0.000000   0.000000  -0.000000   0.000000  -0.000000
   22  O  1 XZ   -0.001376   0.008631  -0.001852   0.001496  -0.000000
   23  O  1 YZ    0.008631   0.001376   0.001496   0.001852  -0.000000
   24  O  1 XX    0.000000   0.000000  -0.000000   0.000000   0.195278
   25  O  1 YY    0.000000   0.000000  -0.000000   0.000000   0.195278
   26  O  1 ZZ    0.000000   0.000000  -0.000000   0.000000   0.237037
   27  O  1 XY    0.000000   0.000000  -0.000000   0.000000  -0.000000
   28  O  1 XZ   -0.004566   0.028637  -0.003996   0.003228  -0.000000
   29  O  1 YZ    0.028637   0.004566   0.003228   0.003996  -0.000000
   30  O  1 XXX   0.000221  -0.001384   0.001015  -0.000820  -0.000000
   31  O  1 YYY  -0.001384  -0.000221  -0.000820  -0.001015  -0.000000
   32  O  1 ZZZ   0.000000   0.000000  -0.000000   0.000000  -0.029620
   33  O  1 XXY  -0.000619  -0.000099  -0.000367  -0.000454  -0.000000
   34  O  1 XXZ   0.000000   0.000000  -0.000000   0.000000  -0.017561
   35  O  1 YYX   0.000099  -0.000619   0.000454  -0.000367  -0.000000
   36  O  1 YYZ   0.000000   0.000000  -0.000000   0.000000  -0.017561
   37  O  1 ZZX  -0.001330   0.008339  -0.002115   0.001709  -0.000000
   38  O  1 ZZY   0.008339   0.001330   0.001709   0.002115  -0.000000
   39  O  1 XYZ   0.000000   0.000000  -0.000000   0.000000  -0.000000
   40  O  2  S    0.000000   0.000000  -0.000000   0.000000  -0.044934
   41  O  2  S    0.000000   0.000000  -0.000000   0.000000  -0.090042
   42  O  2  S    0.000000   0.000000  -0.000000   0.000000  -0.041742
   43  O  2  S    0.000000   0.000000  -0.000000   0.000000   0.044606
   44  O  2  S    0.000000   0.000000  -0.000000   0.000000   2.230188
   45  O  2  X   -0.024068   0.150952  -0.142221   0.114890  -0.000000
   46  O  2  Y    0.150952   0.024068   0.114890   0.142221  -0.000000
   47  O  2  Z    0.000000   0.000000  -0.000000   0.000000  -0.089953
   48  O  2  X   -0.035796   0.224504  -0.215587   0.174158  -0.000000
   49  O  2  Y    0.224504   0.035796   0.174158   0.215587  -0.000000
   50  O  2  Z    0.000000   0.000000  -0.000000   0.000000  -0.132383
   51  O  2  X   -0.043453   0.272530  -0.262167   0.211787  -0.000000
   52  O  2  Y    0.272530   0.043453   0.211787   0.262167  -0.000000
   53  O  2  Z    0.000000   0.000000  -0.000000   0.000000  -0.024321
   54  O  2  X   -0.019463   0.122070  -0.161160   0.130190  -0.000000
   55  O  2  Y    0.122070   0.019463   0.130190   0.161160  -0.000000
   56  O  2  Z    0.000000   0.000000  -0.000000   0.000000  -1.391294
   57  O  2 XX    0.000000   0.000000  -0.000000   0.000000  -0.014466
   58  O  2 YY    0.000000   0.000000  -0.000000   0.000000  -0.014466
   59  O  2 ZZ    0.000000   0.000000  -0.000000   0.000000  -0.038655
   60  O  2 XY    0.000000   0.000000  -0.000000   0.000000  -0.000000
   61  O  2 XZ    0.001376  -0.008631  -0.001852   0.001496  -0.000000
   62  O  2 YZ   -0.008631  -0.001376   0.001496   0.001852  -0.000000
   63  O  2 XX    0.000000   0.000000  -0.000000   0.000000  -0.195278
   64  O  2 YY    0.000000   0.000000  -0.000000   0.000000  -0.195278
   65  O  2 ZZ    0.000000   0.000000  -0.000000   0.000000  -0.237037
   66  O  2 XY    0.000000   0.000000  -0.000000   0.000000  -0.000000
   67  O  2 XZ    0.004566  -0.028637  -0.003996   0.003228  -0.000000
   68  O  2 YZ   -0.028637  -0.004566   0.003228   0.003996  -0.000000
   69  O  2 XXX   0.000221  -0.001384  -0.001015   0.000820  -0.000000
   70  O  2 YYY  -0.001384  -0.000221   0.000820   0.001015  -0.000000
   71  O  2 ZZZ   0.000000   0.000000  -0.000000   0.000000  -0.029620
   72  O  2 XXY  -0.000619  -0.000099   0.000367   0.000454  -0.000000
   73  O  2 XXZ   0.000000   0.000000  -0.000000   0.000000  -0.017561
   74  O  2 YYX   0.000099  -0.000619  -0.000454   0.000367  -0.000000
   75  O  2 YYZ   0.000000   0.000000  -0.000000   0.000000  -0.017561
   76  O  2 ZZX  -0.001330   0.008339   0.002115  -0.001709  -0.000000
   77  O  2 ZZY   0.008339   0.001330  -0.001709  -0.002115  -0.000000
   78  O  2 XYZ   0.000000   0.000000  -0.000000   0.000000  -0.000000

                     11         12         13         14         15
                    0.4342     0.4342     0.5011     0.5358     0.5358
                     A          A          A          A          A   
    1  O  1  S   -0.000000   0.000000   0.028335  -0.000000  -0.000000
    2  O  1  S   -0.000000   0.000000   0.028129  -0.000000  -0.000000
    3  O  1  S   -0.000000   0.000000  -0.188075  -0.000000  -0.000000
    4  O  1  S   -0.000000   0.000000  -0.259215  -0.000000  -0.000000
    5  O  1  S   -0.000000   0.000000   1.423259  -0.000000  -0.000000
    6  O  1  X    0.050695  -0.058028   0.000000  -0.068475   0.008457
    7  O  1  Y   -0.058028  -0.050695   0.000000   0.008457   0.068475
    8  O  1  Z   -0.000000   0.000000   0.048858  -0.000000  -0.000000
    9  O  1  X    0.084033  -0.096189   0.000000  -0.109239   0.013492
   10  O  1  Y   -0.096189  -0.084033   0.000000   0.013492   0.109239
   11  O  1  Z   -0.000000   0.000000   0.072964  -0.000000  -0.000000
   12  O  1  X    0.437164  -0.500400   0.000000  -0.696203   0.085986
   13  O  1  Y   -0.500400  -0.437164   0.000000   0.085986   0.696203
   14  O  1  Z   -0.000000   0.000000   0.585273  -0.000000  -0.000000
   15  O  1  X   -0.527939   0.604305   0.000000   1.539503  -0.190139
   16  O  1  Y    0.604305   0.527939   0.000000  -0.190139  -1.539503
   17  O  1  Z   -0.000000   0.000000  -1.078091  -0.000000  -0.000000
   18  O  1 XX   -0.000000   0.000000  -0.064168  -0.000000  -0.000000
   19  O  1 YY   -0.000000   0.000000  -0.064168  -0.000000  -0.000000
   20  O  1 ZZ   -0.000000   0.000000  -0.046804  -0.000000  -0.000000
   21  O  1 XY   -0.000000   0.000000   0.000000  -0.000000  -0.000000
   22  O  1 XZ    0.001818  -0.002081   0.000000  -0.007075   0.000874
   23  O  1 YZ   -0.002081  -0.001818   0.000000   0.000874   0.007075
   24  O  1 XX   -0.000000   0.000000  -0.340470  -0.000000  -0.000000
   25  O  1 YY   -0.000000   0.000000  -0.340470  -0.000000  -0.000000
   26  O  1 ZZ   -0.000000   0.000000  -0.336668  -0.000000  -0.000000
   27  O  1 XY   -0.000000   0.000000   0.000000  -0.000000  -0.000000
   28  O  1 XZ    0.008788  -0.010059   0.000000  -0.006412   0.000792
   29  O  1 YZ   -0.010059  -0.008788   0.000000   0.000792   0.006412
   30  O  1 XXX  -0.067759   0.077560   0.000000   0.104791  -0.012942
   31  O  1 YYY   0.077560   0.067759   0.000000  -0.012942  -0.104791
   32  O  1 ZZZ  -0.000000   0.000000  -0.089089  -0.000000  -0.000000
   33  O  1 XXY   0.034686   0.030303   0.000000  -0.005788  -0.046864
   34  O  1 XXZ  -0.000000   0.000000  -0.046623  -0.000000  -0.000000
   35  O  1 YYX  -0.030303   0.034686   0.000000   0.046864  -0.005788
   36  O  1 YYZ  -0.000000   0.000000  -0.046623  -0.000000  -0.000000
   37  O  1 ZZX  -0.030713   0.035155   0.000000   0.043644  -0.005390
   38  O  1 ZZY   0.035155   0.030713   0.000000  -0.005390  -0.043644
   39  O  1 XYZ  -0.000000   0.000000   0.000000  -0.000000  -0.000000
   40  O  2  S   -0.000000   0.000000   0.028335  -0.000000  -0.000000
   41  O  2  S   -0.000000   0.000000   0.028129  -0.000000  -0.000000
   42  O  2  S   -0.000000   0.000000  -0.188075  -0.000000  -0.000000
   43  O  2  S   -0.000000   0.000000  -0.259215  -0.000000  -0.000000
   44  O  2  S   -0.000000   0.000000   1.423259  -0.000000  -0.000000
   45  O  2  X    0.050695  -0.058028   0.000000   0.068475  -0.008457
   46  O  2  Y   -0.058028  -0.050695   0.000000  -0.008457  -0.068475
   47  O  2  Z   -0.000000   0.000000  -0.048858  -0.000000  -0.000000
   48  O  2  X    0.084033  -0.096189   0.000000   0.109239  -0.013492
   49  O  2  Y   -0.096189  -0.084033   0.000000  -0.013492  -0.109239
   50  O  2  Z   -0.000000   0.000000  -0.072964  -0.000000  -0.000000
   51  O  2  X    0.437164  -0.500400   0.000000   0.696203  -0.085986
   52  O  2  Y   -0.500400  -0.437164   0.000000  -0.085986  -0.696203
   53  O  2  Z   -0.000000   0.000000  -0.585273  -0.000000  -0.000000
   54  O  2  X   -0.527939   0.604305   0.000000  -1.539503   0.190139
   55  O  2  Y    0.604305   0.527939   0.000000   0.190139   1.539503
   56  O  2  Z   -0.000000   0.000000   1.078091  -0.000000  -0.000000
   57  O  2 XX   -0.000000   0.000000  -0.064168  -0.000000  -0.000000
   58  O  2 YY   -0.000000   0.000000  -0.064168  -0.000000  -0.000000
   59  O  2 ZZ   -0.000000   0.000000  -0.046804  -0.000000  -0.000000
   60  O  2 XY   -0.000000   0.000000   0.000000  -0.000000  -0.000000
   61  O  2 XZ   -0.001818   0.002081   0.000000  -0.007075   0.000874
   62  O  2 YZ    0.002081   0.001818   0.000000   0.000874   0.007075
   63  O  2 XX   -0.000000   0.000000  -0.340470  -0.000000  -0.000000
   64  O  2 YY   -0.000000   0.000000  -0.340470  -0.000000  -0.000000
   65  O  2 ZZ   -0.000000   0.000000  -0.336668  -0.000000  -0.000000
   66  O  2 XY   -0.000000   0.000000   0.000000  -0.000000  -0.000000
   67  O  2 XZ   -0.008788   0.010059   0.000000  -0.006412   0.000792
   68  O  2 YZ    0.010059   0.008788   0.000000   0.000792   0.006412
   69  O  2 XXX  -0.067759   0.077560   0.000000  -0.104791   0.012942
   70  O  2 YYY   0.077560   0.067759   0.000000   0.012942   0.104791
   71  O  2 ZZZ  -0.000000   0.000000   0.089089  -0.000000  -0.000000
   72  O  2 XXY   0.034686   0.030303   0.000000   0.005788   0.046864
   73  O  2 XXZ  -0.000000   0.000000   0.046623  -0.000000  -0.000000
   74  O  2 YYX  -0.030303   0.034686   0.000000  -0.046864   0.005788
   75  O  2 YYZ  -0.000000   0.000000   0.046623  -0.000000  -0.000000
   76  O  2 ZZX  -0.030713   0.035155   0.000000  -0.043644   0.005390
   77  O  2 ZZY   0.035155   0.030713   0.000000   0.005390   0.043644
   78  O  2 XYZ  -0.000000   0.000000   0.000000  -0.000000  -0.000000

                     16         17         18         19         20
                    0.5411     0.5435     1.0309     1.4197     1.4197
                     A          A          A          A          A   
    1  O  1  S   -0.022182   0.043737  -0.053086   0.000000  -0.000000
    2  O  1  S   -0.032647   0.039218  -0.043758   0.000000  -0.000000
    3  O  1  S    0.082501  -0.336138   0.492145   0.000000  -0.000000
    4  O  1  S    0.320998  -0.410744   1.443203   0.000000  -0.000000
    5  O  1  S   -1.254666   1.802941  -7.806986   0.000000  -0.000000
    6  O  1  X    0.000000   0.000000  -0.000000   0.000000  -0.000000
    7  O  1  Y    0.000000   0.000000  -0.000000   0.000000  -0.000000
    8  O  1  Z    0.170193   0.001938   0.002504   0.000000  -0.000000
    9  O  1  X    0.000000   0.000000  -0.000000   0.000000  -0.000000
   10  O  1  Y    0.000000   0.000000  -0.000000   0.000000  -0.000000
   11  O  1  Z    0.261210   0.017644   0.031864   0.000000  -0.000000
   12  O  1  X    0.000000   0.000000  -0.000000   0.000000  -0.000000
   13  O  1  Y    0.000000   0.000000  -0.000000   0.000000  -0.000000
   14  O  1  Z    0.947743  -0.232702  -0.487257   0.000000  -0.000000
   15  O  1  X    0.000000   0.000000  -0.000000   0.000000  -0.000000
   16  O  1  Y    0.000000   0.000000  -0.000000   0.000000  -0.000000
   17  O  1  Z   -1.057432   0.584986  -1.875827   0.000000  -0.000000
   18  O  1 XX    0.025824  -0.097108   0.137725  -0.000000  -0.001998
   19  O  1 YY    0.025824  -0.097108   0.137725   0.000000   0.001998
   20  O  1 ZZ    0.011466  -0.110737   0.156927   0.000000  -0.000000
   21  O  1 XY    0.000000   0.000000  -0.000000  -0.002307   0.000000
   22  O  1 XZ    0.000000   0.000000  -0.000000   0.000000  -0.000000
   23  O  1 YZ    0.000000   0.000000  -0.000000   0.000000  -0.000000
   24  O  1 XX    0.208607  -0.604098   1.200862   0.000047   0.565389
   25  O  1 YY    0.208607  -0.604098   1.200862  -0.000047  -0.565389
   26  O  1 ZZ    0.184355  -0.625710   1.114668   0.000000  -0.000000
   27  O  1 XY    0.000000   0.000000  -0.000000   0.652855  -0.000054
   28  O  1 XZ    0.000000   0.000000  -0.000000   0.000000  -0.000000
   29  O  1 YZ    0.000000   0.000000  -0.000000   0.000000  -0.000000
   30  O  1 XXX   0.000000   0.000000  -0.000000   0.000000  -0.000000
   31  O  1 YYY   0.000000   0.000000  -0.000000   0.000000  -0.000000
   32  O  1 ZZZ  -0.084470   0.031420   0.044436   0.000000  -0.000000
   33  O  1 XXY   0.000000   0.000000  -0.000000   0.000000  -0.000000
   34  O  1 XXZ  -0.036563   0.023415   0.030910   0.000001   0.012200
   35  O  1 YYX   0.000000   0.000000  -0.000000   0.000000  -0.000000
   36  O  1 YYZ  -0.036563   0.023415   0.030910  -0.000001  -0.012200
   37  O  1 ZZX   0.000000   0.000000  -0.000000   0.000000  -0.000000
   38  O  1 ZZY   0.000000   0.000000  -0.000000   0.000000  -0.000000
   39  O  1 XYZ   0.000000   0.000000  -0.000000   0.014087  -0.000001
   40  O  2  S    0.022182   0.043737   0.053086   0.000000  -0.000000
   41  O  2  S    0.032647   0.039218   0.043758   0.000000  -0.000000
   42  O  2  S   -0.082501  -0.336138  -0.492145   0.000000  -0.000000
   43  O  2  S   -0.320998  -0.410744  -1.443203   0.000000  -0.000000
   44  O  2  S    1.254666   1.802941   7.806986   0.000000  -0.000000
   45  O  2  X    0.000000   0.000000  -0.000000   0.000000  -0.000000
   46  O  2  Y    0.000000   0.000000  -0.000000   0.000000  -0.000000
   47  O  2  Z    0.170193  -0.001938   0.002504   0.000000  -0.000000
   48  O  2  X    0.000000   0.000000  -0.000000   0.000000  -0.000000
   49  O  2  Y    0.000000   0.000000  -0.000000   0.000000  -0.000000
   50  O  2  Z    0.261210  -0.017644   0.031864   0.000000  -0.000000
   51  O  2  X    0.000000   0.000000  -0.000000   0.000000  -0.000000
   52  O  2  Y    0.000000   0.000000  -0.000000   0.000000  -0.000000
   53  O  2  Z    0.947743   0.232702  -0.487257   0.000000  -0.000000
   54  O  2  X    0.000000   0.000000  -0.000000   0.000000  -0.000000
   55  O  2  Y    0.000000   0.000000  -0.000000   0.000000  -0.000000
   56  O  2  Z   -1.057432  -0.584986  -1.875827   0.000000  -0.000000
   57  O  2 XX   -0.025824  -0.097108  -0.137725  -0.000000  -0.001998
   58  O  2 YY   -0.025824  -0.097108  -0.137725   0.000000   0.001998
   59  O  2 ZZ   -0.011466  -0.110737  -0.156927   0.000000  -0.000000
   60  O  2 XY    0.000000   0.000000  -0.000000  -0.002307   0.000000
   61  O  2 XZ    0.000000   0.000000  -0.000000   0.000000  -0.000000
   62  O  2 YZ    0.000000   0.000000  -0.000000   0.000000  -0.000000
   63  O  2 XX   -0.208607  -0.604098  -1.200862   0.000047   0.565389
   64  O  2 YY   -0.208607  -0.604098  -1.200862  -0.000047  -0.565389
   65  O  2 ZZ   -0.184355  -0.625710  -1.114668   0.000000  -0.000000
   66  O  2 XY    0.000000   0.000000  -0.000000   0.652855  -0.000054
   67  O  2 XZ    0.000000   0.000000  -0.000000   0.000000  -0.000000
   68  O  2 YZ    0.000000   0.000000  -0.000000   0.000000  -0.000000
   69  O  2 XXX   0.000000   0.000000  -0.000000   0.000000  -0.000000
   70  O  2 YYY   0.000000   0.000000  -0.000000   0.000000  -0.000000
   71  O  2 ZZZ  -0.084470  -0.031420   0.044436   0.000000  -0.000000
   72  O  2 XXY   0.000000   0.000000  -0.000000   0.000000  -0.000000
   73  O  2 XXZ  -0.036563  -0.023415   0.030910  -0.000001  -0.012200
   74  O  2 YYX   0.000000   0.000000  -0.000000   0.000000  -0.000000
   75  O  2 YYZ  -0.036563  -0.023415   0.030910   0.000001   0.012200
   76  O  2 ZZX   0.000000   0.000000  -0.000000   0.000000  -0.000000
   77  O  2 ZZY   0.000000   0.000000  -0.000000   0.000000  -0.000000
   78  O  2 XYZ   0.000000   0.000000  -0.000000  -0.014087   0.000001

                     21         22         23         24         25
                    1.4836     1.4836     1.7988     1.7988     1.8959
                     A          A          A          A          A   
    1  O  1  S   -0.000000  -0.000000  -0.000000   0.000000  -0.003866
    2  O  1  S   -0.000000  -0.000000  -0.000000   0.000000   0.007175
    3  O  1  S   -0.000000  -0.000000  -0.000000   0.000000   0.155534
    4  O  1  S   -0.000000  -0.000000  -0.000000   0.000000  -0.056958
    5  O  1  S   -0.000000  -0.000000  -0.000000   0.000000  -0.440930
    6  O  1  X   -0.015398  -0.061889  -0.000000   0.000000  -0.000000
    7  O  1  Y    0.061889  -0.015398  -0.000000   0.000000  -0.000000
    8  O  1  Z   -0.000000  -0.000000  -0.000000   0.000000  -0.136839
    9  O  1  X   -0.024643  -0.099051  -0.000000   0.000000  -0.000000
   10  O  1  Y    0.099051  -0.024643  -0.000000   0.000000  -0.000000
   11  O  1  Z   -0.000000  -0.000000  -0.000000   0.000000  -0.311747
   12  O  1  X   -0.004280  -0.017204  -0.000000   0.000000  -0.000000
   13  O  1  Y    0.017204  -0.004280  -0.000000   0.000000  -0.000000
   14  O  1  Z   -0.000000  -0.000000  -0.000000   0.000000   1.311331
   15  O  1  X   -0.002272  -0.009132  -0.000000   0.000000  -0.000000
   16  O  1  Y    0.009132  -0.002272  -0.000000   0.000000  -0.000000
   17  O  1  Z   -0.000000  -0.000000  -0.000000   0.000000  -0.856536
   18  O  1 XX   -0.000000  -0.000000  -0.000001   0.002736   0.058718
   19  O  1 YY   -0.000000  -0.000000   0.000001  -0.002736   0.058718
   20  O  1 ZZ   -0.000000  -0.000000  -0.000000   0.000000   0.005237
   21  O  1 XY   -0.000000  -0.000000  -0.003160  -0.000001  -0.000000
   22  O  1 XZ    0.003558   0.014301  -0.000000   0.000000  -0.000000
   23  O  1 YZ   -0.014301   0.003558  -0.000000   0.000000  -0.000000
   24  O  1 XX   -0.000000  -0.000000  -0.000133   0.669741   0.551737
   25  O  1 YY   -0.000000  -0.000000   0.000133  -0.669741   0.551737
   26  O  1 ZZ   -0.000000  -0.000000  -0.000000   0.000000  -0.278672
   27  O  1 XY   -0.000000  -0.000000  -0.773351  -0.000153  -0.000000
   28  O  1 XZ    0.142580   0.573082  -0.000000   0.000000  -0.000000
   29  O  1 YZ   -0.573082   0.142580  -0.000000   0.000000  -0.000000
   30  O  1 XXX  -0.004557  -0.018316  -0.000000   0.000000  -0.000000
   31  O  1 YYY   0.018316  -0.004557  -0.000000   0.000000  -0.000000
   32  O  1 ZZZ  -0.000000  -0.000000  -0.000000   0.000000  -0.291321
   33  O  1 XXY   0.008191  -0.002038  -0.000000   0.000000  -0.000000
   34  O  1 XXZ  -0.000000  -0.000000   0.000002  -0.009396  -0.141402
   35  O  1 YYX  -0.002038  -0.008191  -0.000000   0.000000  -0.000000
   36  O  1 YYZ  -0.000000  -0.000000  -0.000002   0.009396  -0.141402
   37  O  1 ZZX  -0.005066  -0.020364  -0.000000   0.000000  -0.000000
   38  O  1 ZZY   0.020364  -0.005066  -0.000000   0.000000  -0.000000
   39  O  1 XYZ  -0.000000  -0.000000   0.010849   0.000002  -0.000000
   40  O  2  S   -0.000000  -0.000000  -0.000000   0.000000  -0.003866
   41  O  2  S   -0.000000  -0.000000  -0.000000   0.000000   0.007175
   42  O  2  S   -0.000000  -0.000000  -0.000000   0.000000   0.155534
   43  O  2  S   -0.000000  -0.000000  -0.000000   0.000000  -0.056958
   44  O  2  S   -0.000000  -0.000000  -0.000000   0.000000  -0.440930
   45  O  2  X   -0.015398  -0.061889  -0.000000   0.000000  -0.000000
   46  O  2  Y    0.061889  -0.015398  -0.000000   0.000000  -0.000000
   47  O  2  Z   -0.000000  -0.000000  -0.000000   0.000000   0.136839
   48  O  2  X   -0.024643  -0.099051  -0.000000   0.000000  -0.000000
   49  O  2  Y    0.099051  -0.024643  -0.000000   0.000000  -0.000000
   50  O  2  Z   -0.000000  -0.000000  -0.000000   0.000000   0.311747
   51  O  2  X   -0.004280  -0.017204  -0.000000   0.000000  -0.000000
   52  O  2  Y    0.017204  -0.004280  -0.000000   0.000000  -0.000000
   53  O  2  Z   -0.000000  -0.000000  -0.000000   0.000000  -1.311331
   54  O  2  X   -0.002272  -0.009132  -0.000000   0.000000  -0.000000
   55  O  2  Y    0.009132  -0.002272  -0.000000   0.000000  -0.000000
   56  O  2  Z   -0.000000  -0.000000  -0.000000   0.000000   0.856536
   57  O  2 XX   -0.000000  -0.000000   0.000001  -0.002736   0.058718
   58  O  2 YY   -0.000000  -0.000000  -0.000001   0.002736   0.058718
   59  O  2 ZZ   -0.000000  -0.000000  -0.000000   0.000000   0.005237
   60  O  2 XY   -0.000000  -0.000000   0.003160   0.000001  -0.000000
   61  O  2 XZ   -0.003558  -0.014301  -0.000000   0.000000  -0.000000
   62  O  2 YZ    0.014301  -0.003558  -0.000000   0.000000  -0.000000
   63  O  2 XX   -0.000000  -0.000000   0.000133  -0.669741   0.551737
   64  O  2 YY   -0.000000  -0.000000  -0.000133   0.669741   0.551737
   65  O  2 ZZ   -0.000000  -0.000000  -0.000000   0.000000  -0.278672
   66  O  2 XY   -0.000000  -0.000000   0.773351   0.000153  -0.000000
   67  O  2 XZ   -0.142580  -0.573082  -0.000000   0.000000  -0.000000
   68  O  2 YZ    0.573082  -0.142580  -0.000000   0.000000  -0.000000
   69  O  2 XXX  -0.004557  -0.018316  -0.000000   0.000000  -0.000000
   70  O  2 YYY   0.018316  -0.004557  -0.000000   0.000000  -0.000000
   71  O  2 ZZZ  -0.000000  -0.000000  -0.000000   0.000000   0.291321
   72  O  2 XXY   0.008191  -0.002038  -0.000000   0.000000  -0.000000
   73  O  2 XXZ  -0.000000  -0.000000   0.000002  -0.009396   0.141402
   74  O  2 YYX  -0.002038  -0.008191  -0.000000   0.000000  -0.000000
   75  O  2 YYZ  -0.000000  -0.000000  -0.000002   0.009396   0.141402
   76  O  2 ZZX  -0.005066  -0.020364  -0.000000   0.000000  -0.000000
   77  O  2 ZZY   0.020364  -0.005066  -0.000000   0.000000  -0.000000
   78  O  2 XYZ  -0.000000  -0.000000   0.010849   0.000002  -0.000000

                     26         27         28         29         30
                    1.9907     1.9907     2.0207     2.0597     2.0597
                     A          A          A          A          A   
    1  O  1  S   -0.000000  -0.000000  -0.001550  -0.000000  -0.000000
    2  O  1  S   -0.000000  -0.000000   0.004672  -0.000000  -0.000000
    3  O  1  S   -0.000000  -0.000000   0.096205  -0.000000  -0.000000
    4  O  1  S   -0.000000  -0.000000   0.270174  -0.000000  -0.000000
    5  O  1  S   -0.000000  -0.000000  -0.746415  -0.000000  -0.000000
    6  O  1  X    0.087078  -0.253884  -0.000000  -0.234854   0.025109
    7  O  1  Y   -0.253884  -0.087078  -0.000000   0.025109   0.234854
    8  O  1  Z   -0.000000  -0.000000  -0.253422  -0.000000  -0.000000
    9  O  1  X    0.162175  -0.472837  -0.000000  -0.453024   0.048435
   10  O  1  Y   -0.472837  -0.162175  -0.000000   0.048435   0.453024
   11  O  1  Z   -0.000000  -0.000000  -0.503273  -0.000000  -0.000000
   12  O  1  X   -0.544204   1.586681  -0.000000   1.653012  -0.176732
   13  O  1  Y    1.586681   0.544204  -0.000000  -0.176732  -1.653012
   14  O  1  Z   -0.000000  -0.000000   2.359368  -0.000000  -0.000000
   15  O  1  X    0.187012  -0.545253  -0.000000  -1.000402   0.106958
   16  O  1  Y   -0.545253  -0.187012  -0.000000   0.106958   1.000402
   17  O  1  Z   -0.000000  -0.000000  -0.749721  -0.000000  -0.000000
   18  O  1 XX   -0.000000  -0.000000   0.029538  -0.000000  -0.000000
   19  O  1 YY   -0.000000  -0.000000   0.029538  -0.000000  -0.000000
   20  O  1 ZZ   -0.000000  -0.000000   0.018076  -0.000000  -0.000000
   21  O  1 XY   -0.000000  -0.000000  -0.000000  -0.000000  -0.000000
   22  O  1 XZ    0.001602  -0.004671  -0.000000  -0.006494   0.000694
   23  O  1 YZ   -0.004671  -0.001602  -0.000000   0.000694   0.006494
   24  O  1 XX   -0.000000  -0.000000   0.353953  -0.000000  -0.000000
   25  O  1 YY   -0.000000  -0.000000   0.353953  -0.000000  -0.000000
   26  O  1 ZZ   -0.000000  -0.000000   0.263024  -0.000000  -0.000000
   27  O  1 XY   -0.000000  -0.000000  -0.000000  -0.000000  -0.000000
   28  O  1 XZ    0.046147  -0.134545  -0.000000  -0.378830   0.040503
   29  O  1 YZ   -0.134545  -0.046147  -0.000000   0.040503   0.378830
   30  O  1 XXX   0.133900  -0.390399  -0.000000  -0.382799   0.040927
   31  O  1 YYY  -0.390399  -0.133900  -0.000000   0.040927   0.382799
   32  O  1 ZZZ  -0.000000  -0.000000  -0.381152  -0.000000  -0.000000
   33  O  1 XXY  -0.174592  -0.059882  -0.000000   0.018303   0.171193
   34  O  1 XXZ  -0.000000  -0.000000  -0.203387  -0.000000  -0.000000
   35  O  1 YYX   0.059882  -0.174592  -0.000000  -0.171193   0.018303
   36  O  1 YYZ  -0.000000  -0.000000  -0.203387  -0.000000  -0.000000
   37  O  1 ZZX   0.066684  -0.194425  -0.000000  -0.157144   0.016801
   38  O  1 ZZY  -0.194425  -0.066684  -0.000000   0.016801   0.157144
   39  O  1 XYZ  -0.000000  -0.000000  -0.000000  -0.000000  -0.000000
   40  O  2  S   -0.000000  -0.000000   0.001550  -0.000000  -0.000000
   41  O  2  S   -0.000000  -0.000000  -0.004672  -0.000000  -0.000000
   42  O  2  S   -0.000000  -0.000000  -0.096205  -0.000000  -0.000000
   43  O  2  S   -0.000000  -0.000000  -0.270174  -0.000000  -0.000000
   44  O  2  S   -0.000000  -0.000000   0.746415  -0.000000  -0.000000
   45  O  2  X    0.087078  -0.253884  -0.000000   0.234854  -0.025109
   46  O  2  Y   -0.253884  -0.087078  -0.000000  -0.025109  -0.234854
   47  O  2  Z   -0.000000  -0.000000  -0.253422  -0.000000  -0.000000
   48  O  2  X    0.162175  -0.472837  -0.000000   0.453024  -0.048435
   49  O  2  Y   -0.472837  -0.162175  -0.000000  -0.048435  -0.453024
   50  O  2  Z   -0.000000  -0.000000  -0.503273  -0.000000  -0.000000
   51  O  2  X   -0.544204   1.586681  -0.000000  -1.653012   0.176732
   52  O  2  Y    1.586681   0.544204  -0.000000   0.176732   1.653012
   53  O  2  Z   -0.000000  -0.000000   2.359368  -0.000000  -0.000000
   54  O  2  X    0.187012  -0.545253  -0.000000   1.000402  -0.106958
   55  O  2  Y   -0.545253  -0.187012  -0.000000  -0.106958  -1.000402
   56  O  2  Z   -0.000000  -0.000000  -0.749721  -0.000000  -0.000000
   57  O  2 XX   -0.000000  -0.000000  -0.029538  -0.000000  -0.000000
   58  O  2 YY   -0.000000  -0.000000  -0.029538  -0.000000  -0.000000
   59  O  2 ZZ   -0.000000  -0.000000  -0.018076  -0.000000  -0.000000
   60  O  2 XY   -0.000000  -0.000000  -0.000000  -0.000000  -0.000000
   61  O  2 XZ   -0.001602   0.004671  -0.000000  -0.006494   0.000694
   62  O  2 YZ    0.004671   0.001602  -0.000000   0.000694   0.006494
   63  O  2 XX   -0.000000  -0.000000  -0.353953  -0.000000  -0.000000
   64  O  2 YY   -0.000000  -0.000000  -0.353953  -0.000000  -0.000000
   65  O  2 ZZ   -0.000000  -0.000000  -0.263024  -0.000000  -0.000000
   66  O  2 XY   -0.000000  -0.000000  -0.000000  -0.000000  -0.000000
   67  O  2 XZ   -0.046147   0.134545  -0.000000  -0.378830   0.040503
   68  O  2 YZ    0.134545   0.046147  -0.000000   0.040503   0.378830
   69  O  2 XXX   0.133900  -0.390399  -0.000000   0.382799  -0.040927
   70  O  2 YYY  -0.390399  -0.133900  -0.000000  -0.040927  -0.382799
   71  O  2 ZZZ  -0.000000  -0.000000  -0.381152  -0.000000  -0.000000
   72  O  2 XXY  -0.174592  -0.059882  -0.000000  -0.018303  -0.171193
   73  O  2 XXZ  -0.000000  -0.000000  -0.203387  -0.000000  -0.000000
   74  O  2 YYX   0.059882  -0.174592  -0.000000   0.171193  -0.018303
   75  O  2 YYZ  -0.000000  -0.000000  -0.203387  -0.000000  -0.000000
   76  O  2 ZZX   0.066684  -0.194425  -0.000000   0.157144  -0.016801
   77  O  2 ZZY  -0.194425  -0.066684  -0.000000  -0.016801  -0.157144
   78  O  2 XYZ  -0.000000  -0.000000  -0.000000  -0.000000  -0.000000

                     31         32         33         34         35
                    2.3525     2.5519     2.5519     2.6118     2.8122
                     A          A          A          A          A   
    1  O  1  S   -0.062722  -0.000000   0.000000  -0.036837   0.065738
    2  O  1  S   -0.234251  -0.000000   0.000000  -0.116145   0.241997
    3  O  1  S   -0.837116  -0.000000   0.000000  -0.398429   0.907909
    4  O  1  S    1.673402  -0.000000   0.000000   1.458414  -0.930027
    5  O  1  S    2.459271  -0.000000   0.000000   0.418718  -7.736027
    6  O  1  X   -0.000000  -0.095961   0.063755   0.000000   0.000000
    7  O  1  Y   -0.000000   0.063755   0.095961   0.000000   0.000000
    8  O  1  Z   -0.111793  -0.000000   0.000000   0.190921   0.041350
    9  O  1  X   -0.000000  -0.247032   0.164124   0.000000   0.000000
   10  O  1  Y   -0.000000   0.164124   0.247032   0.000000   0.000000
   11  O  1  Z   -0.195633  -0.000000   0.000000   0.508214   0.222682
   12  O  1  X   -0.000000   1.170911  -0.777933   0.000000   0.000000
   13  O  1  Y   -0.000000  -0.777933  -1.170911   0.000000   0.000000
   14  O  1  Z    0.652629  -0.000000   0.000000  -1.121081  -1.909024
   15  O  1  X   -0.000000  -0.179560   0.119297   0.000000   0.000000
   16  O  1  Y   -0.000000   0.119297   0.179560   0.000000   0.000000
   17  O  1  Z   -0.131965  -0.000000   0.000000   0.245775  -1.239149
   18  O  1 XX   -0.290527  -0.000000   0.000000  -0.127589   0.290200
   19  O  1 YY   -0.290527  -0.000000   0.000000  -0.127589   0.290200
   20  O  1 ZZ   -0.275733  -0.000000   0.000000  -0.103752   0.314130
   21  O  1 XY   -0.000000  -0.000000   0.000000   0.000000   0.000000
   22  O  1 XZ   -0.000000  -0.012850   0.008537   0.000000   0.000000
   23  O  1 YZ   -0.000000   0.008537   0.012850   0.000000   0.000000
   24  O  1 XX   -1.591671  -0.000000   0.000000  -0.213709   2.306813
   25  O  1 YY   -1.591671  -0.000000   0.000000  -0.213709   2.306813
   26  O  1 ZZ   -1.262665  -0.000000   0.000000  -1.073781   0.876487
   27  O  1 XY   -0.000000  -0.000000   0.000000   0.000000   0.000000
   28  O  1 XZ   -0.000000   0.910094  -0.604651   0.000000   0.000000
   29  O  1 YZ   -0.000000  -0.604651  -0.910094   0.000000   0.000000
   30  O  1 XXX  -0.000000  -0.196951   0.130851   0.000000   0.000000
   31  O  1 YYY  -0.000000   0.130851   0.196951   0.000000   0.000000
   32  O  1 ZZZ  -0.165624  -0.000000   0.000000   0.411998   0.097428
   33  O  1 XXY  -0.000000   0.058518   0.088079   0.000000   0.000000
   34  O  1 XXZ  -0.074293  -0.000000   0.000000   0.120715   0.092777
   35  O  1 YYX  -0.000000  -0.088079   0.058518   0.000000   0.000000
   36  O  1 YYZ  -0.074293  -0.000000   0.000000   0.120715   0.092777
   37  O  1 ZZX  -0.000000  -0.097479   0.064763   0.000000   0.000000
   38  O  1 ZZY  -0.000000   0.064763   0.097479   0.000000   0.000000
   39  O  1 XYZ  -0.000000  -0.000000   0.000000   0.000000   0.000000
   40  O  2  S   -0.062722  -0.000000   0.000000  -0.036837  -0.065738
   41  O  2  S   -0.234251  -0.000000   0.000000  -0.116145  -0.241997
   42  O  2  S   -0.837116  -0.000000   0.000000  -0.398429  -0.907909
   43  O  2  S    1.673402  -0.000000   0.000000   1.458414   0.930027
   44  O  2  S    2.459271  -0.000000   0.000000   0.418718   7.736027
   45  O  2  X   -0.000000   0.095961  -0.063755   0.000000   0.000000
   46  O  2  Y   -0.000000  -0.063755  -0.095961   0.000000   0.000000
   47  O  2  Z    0.111793  -0.000000   0.000000  -0.190921   0.041350
   48  O  2  X   -0.000000   0.247032  -0.164124   0.000000   0.000000
   49  O  2  Y   -0.000000  -0.164124  -0.247032   0.000000   0.000000
   50  O  2  Z    0.195633  -0.000000   0.000000  -0.508214   0.222682
   51  O  2  X   -0.000000  -1.170911   0.777933   0.000000   0.000000
   52  O  2  Y   -0.000000   0.777933   1.170911   0.000000   0.000000
   53  O  2  Z   -0.652629  -0.000000   0.000000   1.121081  -1.909024
   54  O  2  X   -0.000000   0.179560  -0.119297   0.000000   0.000000
   55  O  2  Y   -0.000000  -0.119297  -0.179560   0.000000   0.000000
   56  O  2  Z    0.131965  -0.000000   0.000000  -0.245775  -1.239149
   57  O  2 XX   -0.290527  -0.000000   0.000000  -0.127589  -0.290200
   58  O  2 YY   -0.290527  -0.000000   0.000000  -0.127589  -0.290200
   59  O  2 ZZ   -0.275733  -0.000000   0.000000  -0.103752  -0.314130
   60  O  2 XY   -0.000000  -0.000000   0.000000   0.000000   0.000000
   61  O  2 XZ   -0.000000  -0.012850   0.008537   0.000000   0.000000
   62  O  2 YZ   -0.000000   0.008537   0.012850   0.000000   0.000000
   63  O  2 XX   -1.591671  -0.000000   0.000000  -0.213709  -2.306813
   64  O  2 YY   -1.591671  -0.000000   0.000000  -0.213709  -2.306813
   65  O  2 ZZ   -1.262665  -0.000000   0.000000  -1.073781  -0.876487
   66  O  2 XY   -0.000000  -0.000000   0.000000   0.000000   0.000000
   67  O  2 XZ   -0.000000   0.910094  -0.604651   0.000000   0.000000
   68  O  2 YZ   -0.000000  -0.604651  -0.910094   0.000000   0.000000
   69  O  2 XXX  -0.000000   0.196951  -0.130851   0.000000   0.000000
   70  O  2 YYY  -0.000000  -0.130851  -0.196951   0.000000   0.000000
   71  O  2 ZZZ   0.165624  -0.000000   0.000000  -0.411998   0.097428
   72  O  2 XXY  -0.000000  -0.058518  -0.088079   0.000000   0.000000
   73  O  2 XXZ   0.074293  -0.000000   0.000000  -0.120715   0.092777
   74  O  2 YYX  -0.000000   0.088079  -0.058518   0.000000   0.000000
   75  O  2 YYZ   0.074293  -0.000000   0.000000  -0.120715   0.092777
   76  O  2 ZZX  -0.000000   0.097479  -0.064763   0.000000   0.000000
   77  O  2 ZZY  -0.000000  -0.064763  -0.097479   0.000000   0.000000
   78  O  2 XYZ  -0.000000  -0.000000   0.000000   0.000000   0.000000

                     36         37         38         39         40
                    3.5151     4.9171     4.9171     4.9789     4.9789
                     A          A          A          A          A   
    1  O  1  S    0.022906  -0.000000  -0.000000   0.000000  -0.000000
    2  O  1  S    0.106857  -0.000000  -0.000000   0.000000  -0.000000
    3  O  1  S    0.769772  -0.000000  -0.000000   0.000000  -0.000000
    4  O  1  S    0.179790  -0.000000  -0.000000   0.000000  -0.000000
    5  O  1  S   -0.220126  -0.000000  -0.000000   0.000000  -0.000000
    6  O  1  X   -0.000000   0.022785  -0.062217   0.000000  -0.000000
    7  O  1  Y   -0.000000  -0.062217  -0.022785   0.000000  -0.000000
    8  O  1  Z   -0.013802  -0.000000  -0.000000   0.000000  -0.000000
    9  O  1  X   -0.000000   0.070575  -0.192712   0.000000  -0.000000
   10  O  1  Y   -0.000000  -0.192712  -0.070575   0.000000  -0.000000
   11  O  1  Z   -0.584434  -0.000000  -0.000000   0.000000  -0.000000
   12  O  1  X   -0.000000   0.159406  -0.435277   0.000000  -0.000000
   13  O  1  Y   -0.000000  -0.435277  -0.159406   0.000000  -0.000000
   14  O  1  Z    7.147903  -0.000000  -0.000000   0.000000  -0.000000
   15  O  1  X   -0.000000  -0.043727   0.119401   0.000000  -0.000000
   16  O  1  Y   -0.000000   0.119401   0.043727   0.000000  -0.000000
   17  O  1  Z   -0.378848  -0.000000  -0.000000   0.000000  -0.000000
   18  O  1 XX    0.222745  -0.000000  -0.000000   0.000001   0.009648
   19  O  1 YY    0.222745  -0.000000  -0.000000  -0.000001  -0.009648
   20  O  1 ZZ    0.112244  -0.000000  -0.000000   0.000000  -0.000000
   21  O  1 XY   -0.000000  -0.000000  -0.000000   0.011141  -0.000002
   22  O  1 XZ   -0.000000  -0.062728   0.171285   0.000000  -0.000000
   23  O  1 YZ   -0.000000   0.171285   0.062728   0.000000  -0.000000
   24  O  1 XX    0.863965  -0.000000  -0.000000   0.000009   0.065125
   25  O  1 YY    0.863965  -0.000000  -0.000000  -0.000009  -0.065125
   26  O  1 ZZ    5.542264  -0.000000  -0.000000   0.000000  -0.000000
   27  O  1 XY   -0.000000  -0.000000  -0.000000   0.075200  -0.000010
   28  O  1 XZ   -0.000000   0.055214  -0.150768   0.000000  -0.000000
   29  O  1 YZ   -0.000000  -0.150768  -0.055214   0.000000  -0.000000
   30  O  1 XXX  -0.000000  -0.019237   0.052528   0.000000  -0.000000
   31  O  1 YYY  -0.000000   0.052528   0.019237   0.000000  -0.000000
   32  O  1 ZZZ  -0.127353  -0.000000  -0.000000   0.000000  -0.000000
   33  O  1 XXY  -0.000000   0.023491   0.008603   0.000000  -0.000000
   34  O  1 XXZ  -0.216554  -0.000000  -0.000000  -0.000080  -0.576797
   35  O  1 YYX  -0.000000  -0.008603   0.023491   0.000000  -0.000000
   36  O  1 YYZ  -0.216554  -0.000000  -0.000000   0.000080   0.576797
   37  O  1 ZZX  -0.000000  -0.279124   0.762180   0.000000  -0.000000
   38  O  1 ZZY  -0.000000   0.762180   0.279124   0.000000  -0.000000
   39  O  1 XYZ  -0.000000  -0.000000  -0.000000  -0.666028   0.000093
   40  O  2  S   -0.022906  -0.000000  -0.000000   0.000000  -0.000000
   41  O  2  S   -0.106857  -0.000000  -0.000000   0.000000  -0.000000
   42  O  2  S   -0.769772  -0.000000  -0.000000   0.000000  -0.000000
   43  O  2  S   -0.179790  -0.000000  -0.000000   0.000000  -0.000000
   44  O  2  S    0.220126  -0.000000  -0.000000   0.000000  -0.000000
   45  O  2  X   -0.000000   0.022785  -0.062217   0.000000  -0.000000
   46  O  2  Y   -0.000000  -0.062217  -0.022785   0.000000  -0.000000
   47  O  2  Z   -0.013802  -0.000000  -0.000000   0.000000  -0.000000
   48  O  2  X   -0.000000   0.070575  -0.192712   0.000000  -0.000000
   49  O  2  Y   -0.000000  -0.192712  -0.070575   0.000000  -0.000000
   50  O  2  Z   -0.584434  -0.000000  -0.000000   0.000000  -0.000000
   51  O  2  X   -0.000000   0.159406  -0.435277   0.000000  -0.000000
   52  O  2  Y   -0.000000  -0.435277  -0.159406   0.000000  -0.000000
   53  O  2  Z    7.147903  -0.000000  -0.000000   0.000000  -0.000000
   54  O  2  X   -0.000000  -0.043727   0.119401   0.000000  -0.000000
   55  O  2  Y   -0.000000   0.119401   0.043727   0.000000  -0.000000
   56  O  2  Z   -0.378848  -0.000000  -0.000000   0.000000  -0.000000
   57  O  2 XX   -0.222745  -0.000000  -0.000000   0.000001   0.009648
   58  O  2 YY   -0.222745  -0.000000  -0.000000  -0.000001  -0.009648
   59  O  2 ZZ   -0.112244  -0.000000  -0.000000   0.000000  -0.000000
   60  O  2 XY   -0.000000  -0.000000  -0.000000   0.011141  -0.000002
   61  O  2 XZ   -0.000000   0.062728  -0.171285   0.000000  -0.000000
   62  O  2 YZ   -0.000000  -0.171285  -0.062728   0.000000  -0.000000
   63  O  2 XX   -0.863965  -0.000000  -0.000000   0.000009   0.065125
   64  O  2 YY   -0.863965  -0.000000  -0.000000  -0.000009  -0.065125
   65  O  2 ZZ   -5.542264  -0.000000  -0.000000   0.000000  -0.000000
   66  O  2 XY   -0.000000  -0.000000  -0.000000   0.075200  -0.000010
   67  O  2 XZ   -0.000000  -0.055214   0.150768   0.000000  -0.000000
   68  O  2 YZ   -0.000000   0.150768   0.055214   0.000000  -0.000000
   69  O  2 XXX  -0.000000  -0.019237   0.052528   0.000000  -0.000000
   70  O  2 YYY  -0.000000   0.052528   0.019237   0.000000  -0.000000
   71  O  2 ZZZ  -0.127353  -0.000000  -0.000000   0.000000  -0.000000
   72  O  2 XXY  -0.000000   0.023491   0.008603   0.000000  -0.000000
   73  O  2 XXZ  -0.216554  -0.000000  -0.000000   0.000080   0.576797
   74  O  2 YYX  -0.000000  -0.008603   0.023491   0.000000  -0.000000
   75  O  2 YYZ  -0.216554  -0.000000  -0.000000  -0.000080  -0.576797
   76  O  2 ZZX  -0.000000  -0.279124   0.762180   0.000000  -0.000000
   77  O  2 ZZY  -0.000000   0.762180   0.279124   0.000000  -0.000000
   78  O  2 XYZ  -0.000000  -0.000000  -0.000000   0.666028  -0.000093

                     41         42         43         44         45
                    5.1570     5.3017     5.3017     5.5142     5.5142
                     A          A          A          A          A   
    1  O  1  S   -0.046382   0.000000  -0.000000   0.000000  -0.000000
    2  O  1  S   -0.066652   0.000000  -0.000000   0.000000  -0.000000
    3  O  1  S    0.485495   0.000000  -0.000000   0.000000  -0.000000
    4  O  1  S   -0.825071   0.000000  -0.000000   0.000000  -0.000000
    5  O  1  S    0.051312   0.000000  -0.000000   0.000000  -0.000000
    6  O  1  X   -0.000000   0.000000  -0.000000  -0.000000  -0.000000
    7  O  1  Y   -0.000000   0.000000  -0.000000  -0.000000   0.000000
    8  O  1  Z    0.191359   0.000000  -0.000000   0.000000  -0.000000
    9  O  1  X   -0.000000   0.000000  -0.000000  -0.000000  -0.000000
   10  O  1  Y   -0.000000   0.000000   0.000000  -0.000000   0.000000
   11  O  1  Z    0.287506   0.000000  -0.000000   0.000000  -0.000000
   12  O  1  X   -0.000000   0.000000  -0.000000  -0.000000  -0.000000
   13  O  1  Y   -0.000000   0.000000   0.000000  -0.000000   0.000000
   14  O  1  Z    0.480217   0.000000  -0.000000   0.000000  -0.000000
   15  O  1  X   -0.000000  -0.000000  -0.000000   0.000000   0.000000
   16  O  1  Y   -0.000000   0.000000  -0.000000   0.000000  -0.000000
   17  O  1  Z   -0.045829   0.000000  -0.000000   0.000000  -0.000000
   18  O  1 XX    0.287064   0.000000  -0.000000   0.000000  -0.000000
   19  O  1 YY    0.287064   0.000000  -0.000000   0.000000  -0.000000
   20  O  1 ZZ   -0.242615   0.000000  -0.000000   0.000000  -0.000000
   21  O  1 XY   -0.000000   0.000000  -0.000000   0.000000  -0.000000
   22  O  1 XZ   -0.000000   0.000000  -0.000000  -0.000000  -0.000000
   23  O  1 YZ   -0.000000   0.000000   0.000000  -0.000000   0.000000
   24  O  1 XX   -0.072564   0.000000  -0.000000   0.000000  -0.000000
   25  O  1 YY   -0.072564   0.000000  -0.000000   0.000000  -0.000000
   26  O  1 ZZ    0.383419   0.000000  -0.000000   0.000000  -0.000000
   27  O  1 XY   -0.000000   0.000000  -0.000000   0.000000  -0.000000
   28  O  1 XZ   -0.000000  -0.000000  -0.000000   0.000000   0.000000
   29  O  1 YZ   -0.000000   0.000000  -0.000000   0.000000  -0.000000
   30  O  1 XXX  -0.000000  -0.551243  -0.049629   0.558081  -0.086414
   31  O  1 YYY  -0.000000   0.049629  -0.551243  -0.086414  -0.558081
   32  O  1 ZZZ  -0.908296   0.000000  -0.000000   0.000000  -0.000000
   33  O  1 XXY  -0.000000  -0.066585   0.739570   0.115937   0.748744
   34  O  1 XXZ  -0.005629   0.000000  -0.000000   0.000000  -0.000000
   35  O  1 YYX  -0.000000   0.739570   0.066585  -0.748744   0.115937
   36  O  1 YYZ  -0.005629   0.000000  -0.000000   0.000000  -0.000000
   37  O  1 ZZX  -0.000000  -0.000000  -0.000000   0.000000   0.000000
   38  O  1 ZZY  -0.000000   0.000000  -0.000000   0.000000  -0.000000
   39  O  1 XYZ  -0.000000   0.000000  -0.000000   0.000000  -0.000000
   40  O  2  S   -0.046382   0.000000  -0.000000   0.000000  -0.000000
   41  O  2  S   -0.066652   0.000000  -0.000000   0.000000  -0.000000
   42  O  2  S    0.485495   0.000000  -0.000000   0.000000  -0.000000
   43  O  2  S   -0.825071   0.000000  -0.000000   0.000000  -0.000000
   44  O  2  S    0.051312   0.000000  -0.000000   0.000000  -0.000000
   45  O  2  X   -0.000000   0.000000  -0.000000   0.000000   0.000000
   46  O  2  Y   -0.000000   0.000000  -0.000000   0.000000  -0.000000
   47  O  2  Z   -0.191359   0.000000  -0.000000   0.000000  -0.000000
   48  O  2  X   -0.000000   0.000000  -0.000000   0.000000   0.000000
   49  O  2  Y   -0.000000   0.000000   0.000000   0.000000  -0.000000
   50  O  2  Z   -0.287506   0.000000  -0.000000   0.000000  -0.000000
   51  O  2  X   -0.000000   0.000000  -0.000000   0.000000   0.000000
   52  O  2  Y   -0.000000   0.000000   0.000000   0.000000  -0.000000
   53  O  2  Z   -0.480217   0.000000  -0.000000   0.000000  -0.000000
   54  O  2  X   -0.000000  -0.000000  -0.000000  -0.000000  -0.000000
   55  O  2  Y   -0.000000   0.000000  -0.000000  -0.000000   0.000000
   56  O  2  Z    0.045829   0.000000  -0.000000   0.000000  -0.000000
   57  O  2 XX    0.287064   0.000000  -0.000000   0.000000  -0.000000
   58  O  2 YY    0.287064   0.000000  -0.000000   0.000000  -0.000000
   59  O  2 ZZ   -0.242615   0.000000  -0.000000   0.000000  -0.000000
   60  O  2 XY   -0.000000   0.000000  -0.000000   0.000000  -0.000000
   61  O  2 XZ   -0.000000  -0.000000  -0.000000  -0.000000  -0.000000
   62  O  2 YZ   -0.000000   0.000000  -0.000000  -0.000000   0.000000
   63  O  2 XX   -0.072564   0.000000  -0.000000   0.000000  -0.000000
   64  O  2 YY   -0.072564   0.000000  -0.000000   0.000000  -0.000000
   65  O  2 ZZ    0.383419   0.000000  -0.000000   0.000000  -0.000000
   66  O  2 XY   -0.000000   0.000000  -0.000000   0.000000  -0.000000
   67  O  2 XZ   -0.000000   0.000000  -0.000000   0.000000   0.000000
   68  O  2 YZ   -0.000000   0.000000   0.000000   0.000000  -0.000000
   69  O  2 XXX  -0.000000  -0.551243  -0.049629  -0.558081   0.086414
   70  O  2 YYY  -0.000000   0.049629  -0.551243   0.086414   0.558081
   71  O  2 ZZZ   0.908296   0.000000  -0.000000   0.000000  -0.000000
   72  O  2 XXY  -0.000000  -0.066585   0.739570  -0.115937  -0.748744
   73  O  2 XXZ   0.005629   0.000000  -0.000000   0.000000  -0.000000
   74  O  2 YYX  -0.000000   0.739570   0.066585   0.748744  -0.115937
   75  O  2 YYZ   0.005629   0.000000  -0.000000   0.000000  -0.000000
   76  O  2 ZZX  -0.000000  -0.000000  -0.000000  -0.000000  -0.000000
   77  O  2 ZZY  -0.000000   0.000000  -0.000000  -0.000000   0.000000
   78  O  2 XYZ  -0.000000   0.000000  -0.000000   0.000000  -0.000000

                     46         47         48         49         50
                    5.7761     5.7761     5.7827     5.8668     5.8668
                     A          A          A          A          A   
    1  O  1  S   -0.000000  -0.000000   0.001101   0.000000   0.000000
    2  O  1  S   -0.000000  -0.000000   0.025102   0.000000   0.000000
    3  O  1  S   -0.000000  -0.000000   0.181570   0.000000   0.000000
    4  O  1  S   -0.000000  -0.000000  -0.257820   0.000000   0.000000
    5  O  1  S   -0.000000  -0.000000  -0.716730   0.000000   0.000000
    6  O  1  X    0.114850  -0.124918   0.000000   0.157431  -0.084791
    7  O  1  Y   -0.124918  -0.114850   0.000000  -0.084791  -0.157431
    8  O  1  Z   -0.000000  -0.000000   0.111593   0.000000   0.000000
    9  O  1  X    0.359920  -0.391473   0.000000   0.445351  -0.239862
   10  O  1  Y   -0.391473  -0.359920   0.000000  -0.239862  -0.445351
   11  O  1  Z   -0.000000  -0.000000   0.608726   0.000000   0.000000
   12  O  1  X    0.954865  -1.038574   0.000000   1.601723  -0.862673
[...]
   30  O  1 XXX  -2.077449   0.372587  -0.000000  -0.000000   0.000000
   31  O  1 YYY   0.372587   2.077449  -0.000000  -0.000000   0.000000
   32  O  1 ZZZ   0.000000  -0.000000  -2.699628   2.059993   0.519958
   33  O  1 XXY   0.166626   0.929064  -0.000000  -0.000000   0.000000
   34  O  1 XXZ   0.000000  -0.000000  -0.896803   0.928851   0.253132
   35  O  1 YYX  -0.929064   0.166626  -0.000000  -0.000000   0.000000
   36  O  1 YYZ   0.000000  -0.000000  -0.896803   0.928851   0.253132
   37  O  1 ZZX  -0.990950   0.177725  -0.000000  -0.000000   0.000000
   38  O  1 ZZY   0.177725   0.990950  -0.000000  -0.000000   0.000000
   39  O  1 XYZ   0.000000  -0.000000  -0.000000  -0.000000   0.000000
   40  O  2  S    0.000000  -0.000000   0.005581   0.034541  -0.146037
   41  O  2  S    0.000000  -0.000000   0.020275   0.329364  -1.402549
   42  O  2  S    0.000000  -0.000000  -0.355758  -0.122042   0.592523
   43  O  2  S    0.000000  -0.000000   0.719739  -1.226215   5.792842
   44  O  2  S    0.000000  -0.000000   0.199887  -0.386535   1.059082
   45  O  2  X    1.593385  -0.285771  -0.000000  -0.000000   0.000000
   46  O  2  Y   -0.285771  -1.593385  -0.000000  -0.000000   0.000000
   47  O  2  Z    0.000000  -0.000000  -1.639654  -1.588235  -0.400568
   48  O  2  X   -3.168906   0.568338  -0.000000  -0.000000   0.000000
   49  O  2  Y    0.568338   3.168906  -0.000000  -0.000000   0.000000
   50  O  2  Z    0.000000  -0.000000   3.375692   3.181124   0.815807
   51  O  2  X   -1.246314   0.223524  -0.000000  -0.000000   0.000000
   52  O  2  Y    0.223524   1.246314  -0.000000  -0.000000   0.000000
   53  O  2  Z    0.000000  -0.000000   0.624893   1.122824   0.290475
   54  O  2  X    0.358675  -0.064328  -0.000000  -0.000000   0.000000
   55  O  2  Y   -0.064328  -0.358675  -0.000000  -0.000000   0.000000
   56  O  2  Z    0.000000  -0.000000  -0.237029  -0.278935  -0.093657
   57  O  2 XX    0.000000  -0.000000  -0.123495   0.525976  -2.176180
   58  O  2 YY    0.000000  -0.000000  -0.123495   0.525976  -2.176180
   59  O  2 ZZ    0.000000  -0.000000   0.100314   0.442138  -2.273996
   60  O  2 XY    0.000000  -0.000000  -0.000000  -0.000000   0.000000
   61  O  2 XZ   -0.020547   0.003685  -0.000000  -0.000000   0.000000
   62  O  2 YZ    0.003685   0.020547  -0.000000  -0.000000   0.000000
   63  O  2 XX    0.000000  -0.000000  -0.150115   0.316503  -1.185024
   64  O  2 YY    0.000000  -0.000000  -0.150115   0.316503  -1.185024
   65  O  2 ZZ    0.000000  -0.000000   0.594168   0.275451  -1.186640
   66  O  2 XY    0.000000  -0.000000  -0.000000  -0.000000   0.000000
   67  O  2 XZ    0.016903  -0.003032  -0.000000  -0.000000   0.000000
   68  O  2 YZ   -0.003032  -0.016903  -0.000000  -0.000000   0.000000
   69  O  2 XXX   2.077449  -0.372587  -0.000000  -0.000000   0.000000
   70  O  2 YYY  -0.372587  -2.077449  -0.000000  -0.000000   0.000000
   71  O  2 ZZZ   0.000000  -0.000000  -2.699628  -2.059993  -0.519958
   72  O  2 XXY  -0.166626  -0.929064  -0.000000  -0.000000   0.000000
   73  O  2 XXZ   0.000000  -0.000000  -0.896803  -0.928851  -0.253132
   74  O  2 YYX   0.929064  -0.166626  -0.000000  -0.000000   0.000000
   75  O  2 YYZ   0.000000  -0.000000  -0.896803  -0.928851  -0.253132
   76  O  2 ZZX   0.990950  -0.177725  -0.000000  -0.000000   0.000000
   77  O  2 ZZY  -0.177725  -0.990950  -0.000000  -0.000000   0.000000
   78  O  2 XYZ   0.000000  -0.000000  -0.000000  -0.000000   0.000000

                     76         77         78
                   16.6708    69.8671    70.5881
                     A          A          A   
    1  O  1  S    0.150031  -1.583247  -1.591660
    2  O  1  S    1.468884   3.801030   3.862411
    3  O  1  S    0.109041  -2.724769  -2.419752
    4  O  1  S   -6.693650  -3.575120  -3.951929
    5  O  1  S   -3.427222  -0.658505  -1.995735
    6  O  1  X    0.000000  -0.000000  -0.000000
    7  O  1  Y    0.000000  -0.000000  -0.000000
    8  O  1  Z   -0.056317  -0.025446  -0.013255
    9  O  1  X    0.000000  -0.000000  -0.000000
   10  O  1  Y    0.000000  -0.000000  -0.000000
   11  O  1  Z    0.140501   0.053691   0.029656
   12  O  1  X    0.000000  -0.000000  -0.000000
   13  O  1  Y    0.000000  -0.000000  -0.000000
   14  O  1  Z    0.344280   0.022828   0.199728
   15  O  1  X    0.000000  -0.000000  -0.000000
   16  O  1  Y    0.000000  -0.000000  -0.000000
   17  O  1  Z   -0.535492  -0.016462  -0.314848
   18  O  1 XX    2.510044   1.867080   2.028796
   19  O  1 YY    2.510044   1.867080   2.028796
   20  O  1 ZZ    2.383411   1.898067   1.984278
   21  O  1 XY    0.000000  -0.000000  -0.000000
   22  O  1 XZ    0.000000  -0.000000  -0.000000
   23  O  1 YZ    0.000000  -0.000000  -0.000000
   24  O  1 XX    1.952199   0.714609   1.119395
   25  O  1 YY    1.952199   0.714609   1.119395
   26  O  1 ZZ    1.895439   0.718311   1.120569
   27  O  1 XY    0.000000  -0.000000  -0.000000
   28  O  1 XZ    0.000000  -0.000000  -0.000000
   29  O  1 YZ    0.000000  -0.000000  -0.000000
   30  O  1 XXX   0.000000  -0.000000  -0.000000
   31  O  1 YYY   0.000000  -0.000000  -0.000000
   32  O  1 ZZZ  -0.343433  -0.028847  -0.124175
   33  O  1 XXY   0.000000  -0.000000  -0.000000
   34  O  1 XXZ  -0.041891  -0.027439  -0.012543
   35  O  1 YYX   0.000000  -0.000000  -0.000000
   36  O  1 YYZ  -0.041891  -0.027439  -0.012543
   37  O  1 ZZX   0.000000  -0.000000  -0.000000
   38  O  1 ZZY   0.000000  -0.000000  -0.000000
   39  O  1 XYZ   0.000000  -0.000000  -0.000000
   40  O  2  S   -0.150031  -1.583247   1.591660
   41  O  2  S   -1.468884   3.801030  -3.862411
   42  O  2  S   -0.109041  -2.724769   2.419752
   43  O  2  S    6.693650  -3.575120   3.951929
   44  O  2  S    3.427222  -0.658505   1.995735
   45  O  2  X    0.000000  -0.000000  -0.000000
   46  O  2  Y    0.000000  -0.000000  -0.000000
   47  O  2  Z   -0.056317   0.025446  -0.013255
   48  O  2  X    0.000000  -0.000000  -0.000000
   49  O  2  Y    0.000000  -0.000000  -0.000000
   50  O  2  Z    0.140501  -0.053691   0.029656
   51  O  2  X    0.000000  -0.000000  -0.000000
   52  O  2  Y    0.000000  -0.000000  -0.000000
   53  O  2  Z    0.344280  -0.022828   0.199728
   54  O  2  X    0.000000  -0.000000  -0.000000
   55  O  2  Y    0.000000  -0.000000  -0.000000
   56  O  2  Z   -0.535492   0.016462  -0.314848
   57  O  2 XX   -2.510044   1.867080  -2.028796
   58  O  2 YY   -2.510044   1.867080  -2.028796
   59  O  2 ZZ   -2.383411   1.898067  -1.984278
   60  O  2 XY    0.000000  -0.000000  -0.000000
   61  O  2 XZ    0.000000  -0.000000  -0.000000
   62  O  2 YZ    0.000000  -0.000000  -0.000000
   63  O  2 XX   -1.952199   0.714609  -1.119395
   64  O  2 YY   -1.952199   0.714609  -1.119395
   65  O  2 ZZ   -1.895439   0.718311  -1.120569
   66  O  2 XY    0.000000  -0.000000  -0.000000
   67  O  2 XZ    0.000000  -0.000000  -0.000000
   68  O  2 YZ    0.000000  -0.000000  -0.000000
   69  O  2 XXX   0.000000  -0.000000  -0.000000
   70  O  2 YYY   0.000000  -0.000000  -0.000000
   71  O  2 ZZZ  -0.343433   0.028847  -0.124175
   72  O  2 XXY   0.000000  -0.000000  -0.000000
   73  O  2 XXZ  -0.041891   0.027439  -0.012543
   74  O  2 YYX   0.000000  -0.000000  -0.000000
   75  O  2 YYZ  -0.041891   0.027439  -0.012543
   76  O  2 ZZX   0.000000  -0.000000  -0.000000
   77  O  2 ZZY   0.000000  -0.000000  -0.000000
   78  O  2 XYZ   0.000000  -0.000000  -0.000000
 ...... END OF ROHF CALCULATION ......
 STEP CPU TIME =     0.21 TOTAL CPU TIME =        0.4 (    0.0 MIN)
 TOTAL WALL CLOCK TIME=        0.4 SECONDS, CPU UTILIZATION IS  97.62%

     ----------------------------------------------------------------
     PROPERTY VALUES FOR THE ROHF  SELF-CONSISTENT FIELD WAVEFUNCTION
     ----------------------------------------------------------------

          -----------------
          ENERGY COMPONENTS
          -----------------

         WAVEFUNCTION NORMALIZATION =       1.0000000000

                ONE ELECTRON ENERGY =    -260.3306316715
                TWO ELECTRON ENERGY =      83.3137865175
           NUCLEAR REPULSION ENERGY =      27.3653393272
                                      ------------------
                       TOTAL ENERGY =    -149.6515058268

 ELECTRON-ELECTRON POTENTIAL ENERGY =      83.3137865175
  NUCLEUS-ELECTRON POTENTIAL ENERGY =    -409.6378988574
   NUCLEUS-NUCLEUS POTENTIAL ENERGY =      27.3653393272
                                      ------------------
             TOTAL POTENTIAL ENERGY =    -298.9587730127
               TOTAL KINETIC ENERGY =     149.3072671860
                 VIRIAL RATIO (V/T) =       2.0023055719

          ---------------------------------------
          MULLIKEN AND LOWDIN POPULATION ANALYSES
          ---------------------------------------

     ATOMIC MULLIKEN POPULATION IN EACH MOLECULAR ORBITAL

                      1          2          3          4          5

                  2.000000   2.000000   2.000000   2.000000   2.000000

    1             1.000000   1.000000   1.000000   1.000000   1.000000
    2             1.000000   1.000000   1.000000   1.000000   1.000000

                      6          7          8          9

                  2.000000   2.000000   1.000000   1.000000

    1             1.000000   1.000000   0.500000   0.500000
    2             1.000000   1.000000   0.500000   0.500000

     ATOMIC SPIN POPULATION (ALPHA MINUS BETA)
       ATOM         MULL.POP.                    LOW.POP.
    1 O             1.000000                     1.000000
    2 O             1.000000                     1.000000

               ----- POPULATIONS IN EACH AO -----
                             MULLIKEN      LOWDIN
              1  O  1  S      1.06712     1.04315
              2  O  1  S      0.86614     0.80325
              3  O  1  S      0.18220     0.28168
              4  O  1  S      1.02995     0.36842
              5  O  1  S      0.67600     0.33096
              6  O  1  X      0.21221     0.22074
              7  O  1  Y      0.21221     0.22074
              8  O  1  Z      0.16243     0.16432
              9  O  1  X      0.46660     0.31248
             10  O  1  Y      0.46660     0.31248
             11  O  1  Z      0.38761     0.25768
             12  O  1  X      0.59134     0.36159
             13  O  1  Y      0.59134     0.36159
             14  O  1  Z      0.44229     0.31588
             15  O  1  X      0.20804     0.22013
             16  O  1  Y      0.20804     0.22013
             17  O  1  Z      0.07970     0.16446
             18  O  1 XX      0.00791     0.16007
             19  O  1 YY      0.00791     0.16007
             20  O  1 ZZ      0.01380     0.15799
             21  O  1 XY      0.00000     0.00000
             22  O  1 XZ      0.00111     0.00097
             23  O  1 YZ      0.00111     0.00097
             24  O  1 XX      0.01020     0.15088
             25  O  1 YY      0.01020     0.15088
             26  O  1 ZZ      0.03693     0.16562
             27  O  1 XY      0.00000     0.00000
             28  O  1 XZ      0.01437     0.02833
             29  O  1 YZ      0.01437     0.02833
             30  O  1 XXX    -0.00087     0.18237
             31  O  1 YYY    -0.00087     0.18237
             32  O  1 ZZZ     0.02391     0.19128
             33  O  1 XXY    -0.00029     0.08355
             34  O  1 XXZ    -0.00215     0.06672
             35  O  1 YYX    -0.00029     0.08355
             36  O  1 YYZ    -0.00215     0.06672
             37  O  1 ZZX     0.00748     0.08983
             38  O  1 ZZY     0.00748     0.08983
             39  O  1 XYZ     0.00000     0.00000
             40  O  2  S      1.06712     1.04315
             41  O  2  S      0.86614     0.80325
             42  O  2  S      0.18220     0.28168
             43  O  2  S      1.02995     0.36842
             44  O  2  S      0.67600     0.33096
             45  O  2  X      0.21221     0.22074
             46  O  2  Y      0.21221     0.22074
             47  O  2  Z      0.16243     0.16432
             48  O  2  X      0.46660     0.31248
             49  O  2  Y      0.46660     0.31248
             50  O  2  Z      0.38761     0.25768
             51  O  2  X      0.59134     0.36159
             52  O  2  Y      0.59134     0.36159
             53  O  2  Z      0.44229     0.31588
             54  O  2  X      0.20804     0.22013
             55  O  2  Y      0.20804     0.22013
             56  O  2  Z      0.07970     0.16446
             57  O  2 XX      0.00791     0.16007
             58  O  2 YY      0.00791     0.16007
             59  O  2 ZZ      0.01380     0.15799
             60  O  2 XY      0.00000     0.00000
             61  O  2 XZ      0.00111     0.00097
             62  O  2 YZ      0.00111     0.00097
             63  O  2 XX      0.01020     0.15088
             64  O  2 YY      0.01020     0.15088
             65  O  2 ZZ      0.03693     0.16562
             66  O  2 XY      0.00000     0.00000
             67  O  2 XZ      0.01437     0.02833
             68  O  2 YZ      0.01437     0.02833
             69  O  2 XXX    -0.00087     0.18237
             70  O  2 YYY    -0.00087     0.18237
             71  O  2 ZZZ     0.02391     0.19128
             72  O  2 XXY    -0.00029     0.08355
             73  O  2 XXZ    -0.00215     0.06672
             74  O  2 YYX    -0.00029     0.08355
             75  O  2 YYZ    -0.00215     0.06672
             76  O  2 ZZX     0.00748     0.08983
             77  O  2 ZZY     0.00748     0.08983
             78  O  2 XYZ     0.00000     0.00000

          ----- MULLIKEN ATOMIC OVERLAP POPULATIONS -----
          (OFF-DIAGONAL ELEMENTS NEED TO BE MULTIPLIED BY 2)

             1           2

    1    7.7716843
    2    0.2283157   7.7716843

          TOTAL MULLIKEN AND LOWDIN ATOMIC POPULATIONS
       ATOM         MULL.POP.    CHARGE          LOW.POP.     CHARGE
    1 O             8.000000    0.000000         8.000000    0.000000
    2 O             8.000000   -0.000000         8.000000   -0.000000

          -------------------------------
          BOND ORDER AND VALENCE ANALYSIS     BOND ORDER THRESHOLD=0.050
          -------------------------------

                   BOND                       BOND                       BOND
  ATOM PAIR DIST  ORDER      ATOM PAIR DIST  ORDER      ATOM PAIR DIST  ORDER
    1   2  1.238  1.958

                       TOTAL       BONDED        FREE
      ATOM            VALENCE     VALENCE     VALENCE
    1 O                 2.458       1.958       0.500
    2 O                 2.458       1.958       0.500

          -----------------------------------------
          ATOMIC SPIN DENSITY AT THE NUCLEUS (A.U.)
          -----------------------------------------
                            SPIN DENS    ALPHA DENS     BETA DENS
    1  O            8.0     0.0000000     150.57983     150.57983
    2  O            8.0     0.0000000     150.57983     150.57983

          ---------------------
          ELECTROSTATIC MOMENTS
          ---------------------

 POINT   1           X           Y           Z (BOHR)    CHARGE
                 0.000000    0.000000    0.000000       -0.00 (A.U.)
         DX          DY          DZ         /D/  (DEBYE)
     0.000000    0.000000   -0.000000    0.000000
 ...... END OF PROPERTY EVALUATION ......
 STEP CPU TIME =     0.00 TOTAL CPU TIME =        0.4 (    0.0 MIN)
 TOTAL WALL CLOCK TIME=        0.4 SECONDS, CPU UTILIZATION IS  95.35%

 -----------------------------   -------------------------------------------
 RMP2 (ROHF-MBPT2) CALCULATION   PROGRAM BY M.DUPUIS,S.MALUENDES,N.MATSUNAGA
 -----------------------------   -------------------------------------------
 NCORE=   2  NOCC ALPHA,BETA=    9    7  NMOS=   78  NAOS=   78

     ORBITALS AND ORBITAL ENERGIES ARE MODIFIED
     DEFINED UNIQUE ORBITAL ENERGIES ARE:
       ALPHA
       -20.754754  -20.754222   -1.679298   -1.198535   -0.810183
        -0.810183   -0.758174   -0.542086   -0.542086    0.289417
         0.452339    0.452339    0.507110    0.550101    0.554709
         0.554709    0.564949    1.042861    1.451068    1.451068
         1.516179    1.516179    1.846542    1.846542    1.907172
         2.024580    2.024580    2.031913    2.093323    2.093323
         2.366217    2.575992    2.575992    2.631372    2.827590
         3.525683    4.933231    4.933231    4.998399    4.998399
         5.174411    5.330684    5.330684    5.545481    5.545481
         5.796809    5.805449    5.805449    5.896379    5.896379
         6.027891    6.053490    6.053490    6.496739    6.496739
         6.619220    6.703855    6.703855    6.737554    6.737554
         6.838365    6.838365    6.855998    7.405726    7.579104
         7.579104    8.087782    9.283154   14.748984   14.748984
        14.920281   14.920281   15.043508   15.267001   16.404755
        16.684169   69.873252   70.594183
       BETA
       -20.713804  -20.712632   -1.567619   -1.017900   -0.692303
        -0.574640   -0.574640    0.072703    0.072703    0.317997
         0.485970    0.485970    0.517303    0.564704    0.611215
         0.611215    0.617579    1.066778    1.512972    1.512972
         1.580588    1.580588    1.928970    1.941069    1.941069
         2.054209    2.094316    2.094316    2.165388    2.165388
         2.393683    2.624047    2.624047    2.670956    2.858586
         3.546659    4.966071    4.966071    5.037442    5.037442
         5.209141    5.388672    5.388672    5.608013    5.608013
         5.825227    5.864741    5.864741    5.956266    5.956266
         6.054957    6.103487    6.103487    6.601166    6.601166
         6.645901    6.796576    6.796576    6.801911    6.801911
         6.880353    6.894642    6.894642    7.445986    7.610610
         7.610610    8.120748    9.311116   14.793602   14.793602
        14.964747   14.964747   15.058554   15.282151   16.432579
        16.711032   69.885641   70.606317

 MEMORY REQUIREMENTS FOR SEGMENTED MP2 TRANSFORMATION
   MINIMUM=         535596 WORDS, USING 1 MOLECULAR ORBITAL PER PASS
   MAXIMUM=        2938776 WORDS, MAKING ONLY 1 INTEGRAL PASS
 CHOOSING THE SEGMENTED MP2 TRANSFORMATION...
   NUMBER OF MOS/PASS =    7
   NUMBER OF PASSES   =    1
   MEMORY USED =         3419412 WORDS.
 PASS #   1 TOOK        0.19 SECONDS.
 DONE WITH PARTIAL TRANSFORMATION (PQ|RS) TO (IA|JB)

     SINGLE EXCITATION CONTRIBUTION
         ALPHA        -0.0067097864
         BETA         -0.0072098191
     DOUBLE EXCITATION CONTRIBUTION
                      -0.4803509760

 RESULTS OF MOLLER-PLESSET 2ND ORDER CORRECTION ARE
               E(0)=      -149.6515058268
               E(1)=         0.0
               E(2)=        -0.4942705815
             E(MP2)=      -150.1457764082
 ..... DONE WITH MP2 ENERGY .....
 STEP CPU TIME =     0.19 TOTAL CPU TIME =        0.6 (    0.0 MIN)
 TOTAL WALL CLOCK TIME=        0.6 SECONDS, CPU UTILIZATION IS  98.36%
              3419412  WORDS OF DYNAMIC MEMORY USED
 EXECUTION OF GAMESS TERMINATED NORMALLY Wed Aug  9 21:46:42 2017
 DDI: 263640 bytes (0.3 MB / 0 MWords) used by master data server.

 ----------------------------------------
 CPU timing information for all processes
 ========================================
 0: 0.569 + 0.44 = 0.614
 ----------------------------------------
 ddikick.x: exited gracefully.
unset echo
----- accounting info -----
Files used on the master node compute-1-1.local were:
-rw-rw-r-- 1 sarom sarom 2.1K Aug  9 21:46 /scratch/serial-rohf-rmp-o2.F05
-rw-rw-r-- 1 sarom sarom  14M Aug  9 21:46 /scratch/serial-rohf-rmp-o2.F08
-rw-rw-r-- 1 sarom sarom 2.0M Aug  9 21:46 /scratch/serial-rohf-rmp-o2.F10
rm: cannot remove `/scratch/tmp': Is a directory
ls: No match.
ls: No match.
ls: No match.
Wed Aug  9 21:46:45 CDT 2017
0.274u 0.176s 0:04.12 10.6%	0+0k 8+360io 0pf+0w
/opt/gridengine/default/spool/compute-1-1/active_jobs/36117.1/pe_hostfile compute-1-1.local
