-catch_rsh /opt/gridengine/default/spool/compute-0-1/active_jobs/36115.1/pe_hostfile
compute-0-1
The primary node assigned by SGE to this run is compute-0-1
Warning: no access to tty (Bad file descriptor).
Thus no job control in this shell.
source /home/sarom/dir.git.branch.saromleang-travis-ci/install.info
setenv GMS_PATH /home/sarom/dir.git.branch.saromleang-travis-ci
setenv GMS_BUILD_DIR /home/sarom/dir.git.branch.saromleang-travis-ci
setenv GMS_TARGET linux64
setenv GMS_FORTRAN gfortran
setenv GMS_GFORTRAN_VERNO 4.4
setenv GMS_MATHLIB mkl-so
setenv GMS_MATHLIB none
setenv GMS_MATHLIB_PATH /share/apps/intel/compilers_and_libraries_2017.1.132/linux/mkl/lib/intel64
setenv GMS_MKL_VERNO 12
setenv GMS_DDI_COMM sockets
setenv GMS_LIBCCHEM false
setenv GMS_EIGEN_PATH
setenv GMS_PHI false
setenv GMS_SHMTYPE sysv
setenv GMS_OPENMP false
unset echo
serial-rohf-rmp-c4o4
/home/sarom/dir.git.branch.saromleang-travis-ci/tests/mp2
----- GAMESS execution script 'rungms' -----
This job is running on host compute-0-1.local
under operating system Linux at Wed Aug 9 21:46:11 CDT 2017
Available scratch disk space (Kbyte units) at beginning of the job is
Filesystem           1K-blocks      Used Available Use% Mounted on
/dev/sda1             16126920   3965560  11342160  26% /
GAMESS temporary binary files will be written to /scratch
GAMESS supplementary output files will be written to /home/sarom/restart
Copying input file serial-rohf-rmp-c4o4.inp to your run's scratch directory...
cp /home/sarom/dir.git.branch.saromleang-travis-ci/tests/mp2/serial-rohf-rmp-c4o4.inp /scratch/serial-rohf-rmp-c4o4.F05
unset echo
The generated host list is
compute-0-1.local
/home/sarom/dir.git.branch.saromleang-travis-ci/ddikick.x /home/sarom/dir.git.branch.saromleang-travis-ci/gamess.00.x serial-rohf-rmp-c4o4 -ddi 1 1 compute-0-1.local -scr /scratch

 Distributed Data Interface kickoff program.
 Initiating 1 compute processes on 1 nodes to run the following command:
 /home/sarom/dir.git.branch.saromleang-travis-ci/gamess.00.x serial-rohf-rmp-c4o4 

          ******************************************************
          *         GAMESS VERSION = 20 APR 2017 (R1)          *
          *             FROM IOWA STATE UNIVERSITY             *
          * M.W.SCHMIDT, K.K.BALDRIDGE, J.A.BOATZ, S.T.ELBERT, *
          *   M.S.GORDON, J.H.JENSEN, S.KOSEKI, N.MATSUNAGA,   *
          *          K.A.NGUYEN, S.J.SU, T.L.WINDUS,           *
          *       TOGETHER WITH M.DUPUIS, J.A.MONTGOMERY       *
          *         J.COMPUT.CHEM.  14, 1347-1363(1993)        *
          **************** 64 BIT LINUX VERSION ****************

  SINCE 1993, STUDENTS AND POSTDOCS WORKING AT IOWA STATE UNIVERSITY
  AND ALSO IN THEIR VARIOUS JOBS AFTER LEAVING ISU HAVE MADE IMPORTANT
  CONTRIBUTIONS TO THE CODE:
     IVANA ADAMOVIC, CHRISTINE AIKENS, YURI ALEXEEV, POOJA ARORA,
     ANDREY ASADCHEV, ROB BELL, PRADIPTA BANDYOPADHYAY, JONATHAN BENTZ,
     BRETT BODE, KURT BRORSEN, CALEB CARLIN, GALINA CHABAN, WEI CHEN,
     CHEOL HO CHOI, PAUL DAY, ALBERT DEFUSCO, NUWAN DESILVA, TIM DUDLEY,
     DMITRI FEDOROV, GRAHAM FLETCHER, MARK FREITAG, KURT GLAESEMANN,
     DAN KEMP, GRANT MERRILL, NORIYUKI MINEZAWA, JONATHAN MULLIN,
     TAKESHI NAGATA, SEAN NEDD, HEATHER NETZLOFF, BOSILJKA NJEGIC, RYAN OLSON,
     MIKE PAK, SPENCER PRUITT, LUKE ROSKOP, JIM SHOEMAKER, LYUDMILA SLIPCHENKO,
     TONY SMITH, SAROM SOK LEANG, JIE SONG, TETSUYA TAKETSUGU, SIMON WEBB,
     PENG XU, SOOHAENG YOO, FEDERICO ZAHARIEV

  ADDITIONAL CODE HAS BEEN PROVIDED BY COLLABORATORS IN OTHER GROUPS:
     IOWA STATE UNIVERSITY:
          JOE IVANIC, AARON WEST, LAIMUTIS BYTAUTAS, KLAUS RUEDENBERG
     UNIVERSITY OF TOKYO: KIMIHIKO HIRAO, TAKAHITO NAKAJIMA,
          TAKAO TSUNEDA, MUNEAKI KAMIYA, SUSUMU YANAGISAWA,
          KIYOSHI YAGI, MAHITO CHIBA, SEIKEN TOKURA, NAOAKI KAWAKAMI
     UNIVERSITY OF AARHUS: FRANK JENSEN
     UNIVERSITY OF IOWA: VISVALDAS KAIRYS, HUI LI
     NATIONAL INST. OF STANDARDS AND TECHNOLOGY: WALT STEVENS, DAVID GARMER
     UNIVERSITY OF PISA: BENEDETTA MENNUCCI, JACOPO TOMASI
     UNIVERSITY OF MEMPHIS: HENRY KURTZ, PRAKASHAN KORAMBATH
     UNIVERSITY OF ALBERTA: TOBY ZENG, MARIUSZ KLOBUKOWSKI
     UNIVERSITY OF NEW ENGLAND: MARK SPACKMAN
     MIE UNIVERSITY: HIROAKI UMEDA
     NAT. INST. OF ADVANCED INDUSTRIAL SCIENCE AND TECHNOLOGY: KAZUO KITAURA
     MICHIGAN STATE UNIVERSITY:
          KAROL KOWALSKI, MARTA WLOCH, JEFFREY GOUR, JESSE LUTZ,
          WEI LI, PIOTR PIECUCH
     UNIVERSITY OF SILESIA: MONIKA MUSIAL, STANISLAW KUCHARSKI
     FACULTES UNIVERSITAIRES NOTRE-DAME DE LA PAIX:
          OLIVIER QUINET, BENOIT CHAMPAGNE
     UNIVERSITY OF CALIFORNIA - SANTA BARBARA: BERNARD KIRTMAN
     INSTITUTE FOR MOLECULAR SCIENCE:
          KAZUYA ISHIMURA, MICHIO KATOUDA, AND SHIGERU NAGASE
     UNIVERSITY OF NOTRE DAME: ANNA POMOGAEVA, DAN CHIPMAN
     KYUSHU UNIVERSITY:
          HARUYUKI NAKANO,
          FENG LONG GU, JACEK KORCHOWIEC, MARCIN MAKOWSKI, AND YURIKO AOKI,
          HIROTOSHI MORI AND EISAKU MIYOSHI
     PENNSYLVANIA STATE UNIVERSITY:
          TZVETELIN IORDANOV, CHET SWALINA, JONATHAN SKONE,
          SHARON HAMMES-SCHIFFER
     WASEDA UNIVERSITY:
          MASATO KOBAYASHI, TOMOKO AKAMA, TSUGUKI TOUMA,
          TAKESHI YOSHIKAWA, YASUHIRO IKABATA, JUNJI SEINO,
          YUYA NAKAJIMA, HIROMI NAKAI
     NANJING UNIVERSITY: SHUHUA LI
     UNIVERSITY OF NEBRASKA:
          PEIFENG SU, DEJUN SI, NANDUN THELLAMUREGE, YALI WANG, HUI LI
     UNIVERSITY OF ZURICH: ROBERTO PEVERATI, KIM BALDRIDGE
     N. COPERNICUS UNIVERSITY AND JACKSON STATE UNIVERSITY:
          MARIA BARYSZ
     UNIVERSITY OF COPENHAGEN: Jimmy Kromann, CASPER STEINMANN
     TOKYO INSTITUTE OF TECHNOLOGY: HIROYA NAKATA
     NAGOYA UNIVERSITY: YOSHIO NISHIMOTO, STEPHAN IRLE
     MOSCOW STATE UNIVERSITY: VLADIMIR MIRONOV

 EXECUTION OF GAMESS BEGUN Wed Aug  9 21:46:11 2017

            ECHO OF THE FIRST FEW INPUT CARDS -
 INPUT CARD>!   Wes Bordon's cyclobutanetetraone, (CO)4 ... 440 AOs, 368 MOs                
 INPUT CARD>!   The curiosity here is that singlet RHF is lower than triplet ROHF,          
 INPUT CARD>!   but dynamical correlation reverses this order, to a triplet G.S.            
 INPUT CARD>!   test case prepared in 2012                                                  
 INPUT CARD>!                                                                               
 INPUT CARD>!   The test case is left as a ZAPT MP2 energy calculation.                     
 INPUT CARD>!      FINAL ROHF E= -450.9300388936, 11 iters, E(MP2)= -452.5330850988         
 INPUT CARD>!   Various other results are below the inputs.                                 
 INPUT CARD>!                                                                               
 INPUT CARD>!   This run takes 983 seconds on 2.66 GHz Cloverton (31 Mar 2015)              
 INPUT CARD>!                                                                               
 INPUT CARD>!      theory:                                                                  
 INPUT CARD>!   X.Zhou, D.A.Hrovat, W.T.Bordon  J.Phys.Chem.A 114, 1304-1308(2010)          
 INPUT CARD>!      experiment:                                                              
 INPUT CARD>!   J.-C.Guo, G.L.Hou, S.-D.Li, X.-B.Wang  J.Phys.Chem.Lett 3, 304-308(2012)    
 INPUT CARD>!      both agree this molecule should be 3-B1u, not 1-A1g.                     
 INPUT CARD>!                                                                               
 INPUT CARD>!   Note atom order changes between D4h and D2h, so generate $VECs in           
 INPUT CARD>!   the chosen group.  For CI purposes, the Abelian D2h is more better.         
 INPUT CARD>!   The b1g and a2u orbitals of D4h are the ag and b1u irreps of D2h.           
 INPUT CARD>!                                                                               
 INPUT CARD> $contrl runtyp=energy ispher=1 nosym=1 maxit=100 $end                          
 INPUT CARD> $basis  gbasis=acct $end                                                       
 INPUT CARD> $guess  guess=moread norb=368 $end                                             
 INPUT CARD> $statpt opttol=1d-5 $end                                                       
 INPUT CARD>                                                                                
 INPUT CARD>!   GVB run from triplet starting orbs printed orb 29 has zero norm?            
 INPUT CARD>x$contrl scftyp=gvb mult=1 $end                                                 
 INPUT CARD>x$scf    nco=27 npair=1 $end                                                    
 INPUT CARD>!   ...so I just used the next inputs to perform the TCSCF run.                 
 INPUT CARD>x$contrl scftyp=mcscf mult=1 $end                                               
 INPUT CARD>x$det    stsym=ag ncore=27 nact=2 nels=2 $end                                   
 INPUT CARD>x$trans  ipurfy=2 $end                                                          
 INPUT CARD>                                                                                
 INPUT CARD>!   special input to get orbitals to test for multireference character...       
 INPUT CARD>x$contrl scftyp=rhf mult=1 $end                                                 
 INPUT CARD>x$scf    vvos=.true. $end                                                       
 INPUT CARD>!   ...which is done by CI-SD in VVOs.                                          
 INPUT CARD>!   singlet= 10,793 determinants, triplet= 6,584 determinants                   
 INPUT CARD>x$contrl scftyp=none cityp=ormas mult=1 $end                                    
 INPUT CARD>x$cidet  stsym=ag ncore=8 nact=32 nels=40 $end                                  
 INPUT CARD>x$contrl scftyp=none cityp=ormas mult=3 $end                                    
 INPUT CARD>x$cidet  stsym=b1u ncore=8 nact=32 nels=40 $end                                 
 INPUT CARD>x$ormas  nspace=2 mstart(1)=9,29 mine(1)=38,0 maxe(1)=40,2 $end                 
 INPUT CARD>                                                                                
 INPUT CARD>!   how to do MP2:   perhaps pick the optimized geometries for each!            
 INPUT CARD>x$contrl scftyp=rhf  mult=1 mplevl=2 $end                                       
 INPUT CARD>x$system parall=.true. mwords=10 memddi=150 $end                                
 INPUT CARD> $contrl scftyp=rohf mult=3 mplevl=2 $end                                       
 INPUT CARD> $system mwords=500 memddi=150 $end                                             
  500000000 WORDS OF MEMORY AVAILABLE

     BASIS OPTIONS
     -------------
     GBASIS=ACCT         IGAUSS=       0      POLAR=NONE    
     NDFUNC=       0     NFFUNC=       0     DIFFSP=       F
     NPFUNC=       0      DIFFS=       F     BASNAM=        


     RUN TITLE
     ---------
 Wes Borden's (CO)4 ring...really it is D4h symmetry, with X=Y exactly           

 THE POINT GROUP OF THE MOLECULE IS DNH     
 THE ORDER OF THE PRINCIPAL AXIS IS     2

 ATOM      ATOMIC                      COORDINATES (BOHR)
           CHARGE         X                   Y                   Z
 C           6.0    -1.4810182041       -1.4810182041        0.0000000000
 C           6.0     1.4810182041       -1.4810182041        0.0000000000
 C           6.0    -1.4810182041        1.4810182041        0.0000000000
 C           6.0     1.4810182041        1.4810182041        0.0000000000
 O           8.0    -3.0191931197       -3.0191931197        0.0000000000
 O           8.0     3.0191931197       -3.0191931197        0.0000000000
 O           8.0    -3.0191931197        3.0191931197        0.0000000000
 O           8.0     3.0191931197        3.0191931197        0.0000000000

          INTERNUCLEAR DISTANCES (ANGS.)
          ------------------------------

                1 C          2 C          3 C          4 C          5 O     

   1 C       0.0000000    1.5674423 *  1.5674423 *  2.2166981 *  1.1511234 *
   2 C       1.5674423 *  0.0000000    2.2166981 *  1.5674423 *  2.5166751 *
   3 C       1.5674423 *  2.2166981 *  0.0000000    1.5674423 *  2.5166751 *
   4 C       2.2166981 *  1.5674423 *  1.5674423 *  0.0000000    3.3678215  
   5 O       1.1511234 *  2.5166751 *  2.5166751 *  3.3678215    0.0000000  
   6 O       2.5166751 *  1.1511234 *  3.3678215    2.5166751 *  3.1953766  
   7 O       2.5166751 *  3.3678215    1.1511234 *  2.5166751 *  3.1953766  
   8 O       3.3678215    2.5166751 *  2.5166751 *  1.1511234 *  4.5189450  

                6 O          7 O          8 O     

   1 C       2.5166751 *  2.5166751 *  3.3678215  
   2 C       1.1511234 *  3.3678215    2.5166751 *
   3 C       3.3678215    1.1511234 *  2.5166751 *
   4 C       2.5166751 *  2.5166751 *  1.1511234 *
   5 O       3.1953766    3.1953766    4.5189450  
   6 O       0.0000000    4.5189450    3.1953766  
   7 O       4.5189450    0.0000000    3.1953766  
   8 O       3.1953766    3.1953766    0.0000000  

  * ... LESS THAN  3.000


     ATOMIC BASIS SET
     ----------------
 THE CONTRACTED PRIMITIVE FUNCTIONS HAVE BEEN UNNORMALIZED
 THE CONTRACTED BASIS FUNCTIONS ARE NOW NORMALIZED TO UNITY

  SHELL TYPE  PRIMITIVE        EXPONENT          CONTRACTION COEFFICIENT(S)

 C         

     43   S       1          8236.0000000    0.000542430189
     43   S       2          1235.0000000    0.004196427901
     43   S       3           280.8000000    0.021540914108
     43   S       4            79.2700000    0.083614949614
     43   S       5            25.5900000    0.239871618922
     43   S       6             8.9970000    0.443751820060
     43   S       7             3.3190000    0.353579696469
     43   S       8             0.3643000   -0.009176366076

     44   S       9          8236.0000000   -0.000196392234
     44   S      10          1235.0000000   -0.001525950274
     44   S      11           280.8000000   -0.007890449028
     44   S      12            79.2700000   -0.031514870532
     44   S      13            25.5900000   -0.096910008320
     44   S      14             8.9970000   -0.220541526288
     44   S      15             3.3190000   -0.296069112937
     44   S      16             0.3643000    1.040503432950

     45   S      17             0.9059000    1.000000000000

     46   S      18             0.1285000    1.000000000000

     47   P      19            18.7100000    0.039426387165
     47   P      20             4.1330000    0.244088984924
     47   P      21             1.2000000    0.815492008943

     48   P      22             0.3827000    1.000000000000

     49   P      23             0.1209000    1.000000000000

     50   D      24             1.0970000    1.000000000000

     51   D      25             0.3180000    1.000000000000

     52   F      26             0.7610000    1.000000000000

     53   S      27             0.0440200    1.000000000000

     54   P      28             0.0356900    1.000000000000

     55   D      29             0.1000000    1.000000000000

     56   F      30             0.2680000    1.000000000000

 O         

     99   S      31         15330.0000000    0.000520198307
     99   S      32          2299.0000000    0.004023344781
     99   S      33           522.4000000    0.020729083329
     99   S      34           147.3000000    0.081082327080
     99   S      35            47.5500000    0.236226352118
     99   S      36            16.7600000    0.443518209420
     99   S      37             6.2070000    0.358670588689
     99   S      38             0.6882000   -0.008349797237

    100   S      39         15330.0000000   -0.000197236012
    100   S      40          2299.0000000   -0.001535010700
    100   S      41           522.4000000   -0.007951183914
    100   S      42           147.3000000   -0.032113452892
    100   S      43            47.5500000   -0.100269643049
    100   S      44            16.7600000   -0.234047111838
    100   S      45             6.2070000   -0.301410927756
    100   S      46             0.6882000    1.034919649508

    101   S      47             1.7520000    1.000000000000

    102   S      48             0.2384000    1.000000000000

    103   P      49            34.4600000    0.041163489568
    103   P      50             7.7490000    0.257762835858
    103   P      51             2.2800000    0.802419274427

    104   P      52             0.7156000    1.000000000000

    105   P      53             0.2140000    1.000000000000

    106   D      54             2.3140000    1.000000000000

    107   D      55             0.6450000    1.000000000000

    108   F      56             1.4280000    1.000000000000

    109   S      57             0.0737600    1.000000000000

    110   P      58             0.0597400    1.000000000000

    111   D      59             0.2140000    1.000000000000

    112   F      60             0.5000000    1.000000000000

 TOTAL NUMBER OF BASIS SET SHELLS             =  112
 NUMBER OF CARTESIAN GAUSSIAN BASIS FUNCTIONS =  440
 NOTE: THIS RUN WILL RESTRICT THE MO VARIATION SPACE TO SPHERICAL HARMONICS.
 THE NUMBER OF ORBITALS KEPT IN THE VARIATIONAL SPACE WILL BE PRINTED LATER.
 NUMBER OF ELECTRONS                          =   56
 CHARGE OF MOLECULE                           =    0
 SPIN MULTIPLICITY                            =    3
 NUMBER OF OCCUPIED ORBITALS (ALPHA)          =   29
 NUMBER OF OCCUPIED ORBITALS (BETA )          =   27
 TOTAL NUMBER OF ATOMS                        =    8
 THE NUCLEAR REPULSION ENERGY IS      322.3626635559

     $CONTRL OPTIONS
     ---------------
 SCFTYP=ROHF         RUNTYP=ENERGY       EXETYP=RUN     
 MPLEVL=       2     CITYP =NONE         CCTYP =NONE         VBTYP =NONE    
 DFTTYP=NONE         TDDFT =NONE    
 MULT  =       3     ICHARG=       0     NZVAR =       0     COORD =UNIQUE  
 PP    =NONE         RELWFN=NONE         LOCAL =NONE         NUMGRD=       F
 ISPHER=       1     NOSYM =       1     MAXIT =     100     UNITS =ANGS    
 PLTORB=       F     MOLPLT=       F     AIMPAC=       F     FRIEND=        
 NPRINT=       7     IREST =       0     GEOM  =INPUT   
 NORMF =       0     NORMP =       0     ITOL  =      20     ICUT  =       9
 INTTYP=BEST         GRDTYP=BEST         QMTTOL= 1.0E-06

     $SYSTEM OPTIONS
     ---------------
  REPLICATED MEMORY=   500000000 WORDS (ON EVERY NODE).
 DISTRIBUTED MEMDDI=         150 MILLION WORDS IN AGGREGATE,
 MEMDDI DISTRIBUTED OVER   1 PROCESSORS IS   150000000 WORDS/PROCESSOR.
 TOTAL MEMORY REQUESTED ON EACH PROCESSOR=   650000000 WORDS.
 TIMLIM=      525600.00 MINUTES, OR     365.0 DAYS.
 PARALL= F  BALTYP=  DLB     KDIAG=    0  COREFL= F
 MXSEQ2=     300 MXSEQ3=     150  mem10=         0

          ----------------
          PROPERTIES INPUT
          ----------------

     MOMENTS            FIELD           POTENTIAL          DENSITY
 IEMOM =       1   IEFLD =       0   IEPOT =       0   IEDEN =       0
 WHERE =COMASS     WHERE =NUCLEI     WHERE =NUCLEI     WHERE =NUCLEI  
 OUTPUT=BOTH       OUTPUT=BOTH       OUTPUT=BOTH       OUTPUT=BOTH    
 IEMINT=       0   IEFINT=       0                     IEDINT=       0
                                                       MORB  =       0
          EXTRAPOLATION IN EFFECT
          DIIS IN EFFECT
 ORBITAL PRINTING OPTION: NPREO=     1   440     2     1

     -------------------------------
     INTEGRAL TRANSFORMATION OPTIONS
     -------------------------------
     NWORD  =            0
     CUTOFF = 1.0E-09     MPTRAN =       0
     DIRTRF =       T     AOINTS =DUP     

          ----------------------
          INTEGRAL INPUT OPTIONS
          ----------------------
 NOPK  =       1 NORDER=       0 SCHWRZ=       T

          -----------------------
          MP2 CONTROL INFORMATION
          -----------------------
          NACORE =        8  NBCORE =        8
          LMOMP2 =        F  AOINTS = DUP     
          METHOD =        2  NWORD  =               0
          MP2PRP =        F  OSPT   = RMP     
          CUTOFF = 1.00E-09  CPHFBS = BASISAO 
          CODE   = SERIAL  

          NUMBER OF CORE -A-  ORBITALS =     8
          NUMBER OF CORE -B-  ORBITALS =     8
          NUMBER OF OCC. -A-  ORBITALS =    29
          NUMBER OF OCC. -B-  ORBITALS =    27
          NUMBER OF MOLECULAR ORBITALS =   440
          NUMBER OF   BASIS  FUNCTIONS =   440


     ------------------------------------------
     THE POINT GROUP IS C1 , NAXIS= 1, ORDER= 1
     ------------------------------------------

 -- VARIATIONAL SPACE WILL BE RESTRICTED TO PURE SPHERICAL HARMONICS ONLY --
 AFTER EXCLUDING CONTAMINANT COMBINATIONS FROM THE CARTESIAN GAUSSIAN BASIS
 SET, THE NUMBER OF SPHERICAL HARMONICS KEPT IN THE VARIATION SPACE IS  368

     DIMENSIONS OF THE SYMMETRY SUBSPACES ARE
 A   =  368

 ..... DONE SETTING UP THE RUN .....
 STEP CPU TIME =     3.36 TOTAL CPU TIME =        3.4 (    0.1 MIN)
 TOTAL WALL CLOCK TIME=        3.4 SECONDS, CPU UTILIZATION IS  99.70%

          ********************
          1 ELECTRON INTEGRALS
          ********************
 ...... END OF ONE-ELECTRON INTEGRALS ......
 STEP CPU TIME =     0.04 TOTAL CPU TIME =        3.4 (    0.1 MIN)
 TOTAL WALL CLOCK TIME=        3.4 SECONDS, CPU UTILIZATION IS  99.71%

          -------------
          GUESS OPTIONS
          -------------
          GUESS =MOREAD            NORB  =     368          NORDER=       0
          MIX   =       F          PRTMO =       F          PUNMO =       F
          TOLZ  = 1.0E-08          TOLE  = 1.0E-05
          SYMDEN=       F          PURIFY=       F

 INITIAL GUESS ORBITALS GENERATED BY MOREAD   ROUTINE.

 STATISTICS FOR GENERATION OF SYMMETRY ORBITAL -Q- MATRIX
 NUMBER OF CARTESIAN ATOMIC ORBITALS=        440
 NUMBER OF SPHERICAL CONTAMINANTS DROPPED=    72
 NUMBER OF LINEARLY DEPENDENT MOS DROPPED=     0
 TOTAL NUMBER OF MOS IN VARIATION SPACE=     368

                    * * * * * WARNING * * * * *
 POSSIBLE LINEAR DEPENDENCE PROBLEMS DETECTED, INPUT QMTTOL= 1.0E-06,
 WITH     1 OVERLAP EIGENVALUES LYING BETWEEN 1.0E-05 AND QMTTOL.
 IF YOU EXPERIENCE SCF CONVERGENCE DIFFICULTIES WITH THE DENSITY ALMOST BUT
 NOT QUITE CONVERGED, YOU MAY NEED TO LOOSEN -QMTTOL- BY A FACTOR 5 TO 10.

 SYMMETRIES FOR INITIAL GUESS ORBITALS FOLLOW.  ALPHA SET(S).
    29 ORBITALS ARE OCCUPIED (    8 CORE ORBITALS).
     9=A       10=A       11=A       12=A       13=A       14=A       15=A   
    16=A       17=A       18=A       19=A       20=A       21=A       22=A   
    23=A       24=A       25=A       26=A       27=A       28=A       29=A   
    30=A       31=A       32=A       33=A       34=A       35=A       36=A   
    37=A       38=A       39=A   

 SYMMETRIES FOR INITIAL GUESS ORBITALS FOLLOW.   BETA SET(S).
    27 ORBITALS ARE OCCUPIED (    8 CORE ORBITALS).
     9=A       10=A       11=A       12=A       13=A       14=A       15=A   
    16=A       17=A       18=A       19=A       20=A       21=A       22=A   
    23=A       24=A       25=A       26=A       27=A       28=A       29=A   
    30=A       31=A       32=A       33=A       34=A       35=A       36=A   
    37=A   
 ...... END OF INITIAL ORBITAL SELECTION ......
 STEP CPU TIME =     0.65 TOTAL CPU TIME =        4.1 (    0.1 MIN)
 TOTAL WALL CLOCK TIME=        4.1 SECONDS, CPU UTILIZATION IS 100.00%

                    ----------------------
                    AO INTEGRAL TECHNOLOGY
                    ----------------------
     S,P,L SHELL ROTATED AXIS INTEGRALS, REPROGRAMMED BY
        KAZUYA ISHIMURA (IMS) AND JOSE SIERRA (SYNSTAR).
     S,P,D,L SHELL ROTATED AXIS INTEGRALS PROGRAMMED BY
        KAZUYA ISHIMURA (INSTITUTE FOR MOLECULAR SCIENCE).
     S,P,D,F,G SHELL TO TOTAL QUARTET ANGULAR MOMENTUM SUM 5,
        ERIC PROGRAM BY GRAHAM FLETCHER (ELORET AND NASA ADVANCED
        SUPERCOMPUTING DIVISION, AMES RESEARCH CENTER).
     S,P,D,F,G,L SHELL GENERAL RYS QUADRATURE PROGRAMMED BY
        MICHEL DUPUIS (PACIFIC NORTHWEST NATIONAL LABORATORY).

          --------------------
          2 ELECTRON INTEGRALS
          --------------------

 DIRECT SCF METHOD SKIPS INTEGRAL STORAGE ON DISK.
 DIRECT TRANSFORMATION SKIPS AO INTEGRAL STORAGE ON DISK.
  ...... END OF TWO-ELECTRON INTEGRALS .....
 STEP CPU TIME =     0.00 TOTAL CPU TIME =        4.1 (    0.1 MIN)
 TOTAL WALL CLOCK TIME=        4.1 SECONDS, CPU UTILIZATION IS  99.75%

          ---------------------------
                 ROHF SCF CALCULATION
          ---------------------------

     NUCLEAR ENERGY =       322.3626635559
     MAXIT =100     NPUNCH=  2     MULT=  3
     EXTRAP=T  DAMP=F  SHIFT=F  RSTRCT=F  DIIS=T  SOSCF=F
     DENSITY MATRIX CONV=  2.00E-06
     ROHF CANONICALIZATION PARAMETERS
             C-C     O-O     V-V
     ALPHA -0.5000  0.5000  1.5000
     BETA   1.5000  0.5000 -0.5000
     MEMORY REQUIRED FOR UHF/ROHF ITERS=   1821146 WORDS.

 DIRECT SCF CALCULATION, SCHWRZ=T   FDIFF=T
 SCHWARZ INEQUALITY OVERHEAD:     95724 INTEGRALS, T=        0.05

                                                                                NONZERO     BLOCKS
 ITER EX      TOTAL ENERGY        E CHANGE  DENSITY CHANGE    DIIS ERROR      INTEGRALS    SKIPPED
          * * *   INITIATING DIIS PROCEDURE   * * *
   1  0     -450.8875110490  -450.8875110490   0.028113768   0.089172788     1967359294    2486168
   2  1     -450.9460407095    -0.0585296605   0.010336356   0.016928073     1943752947    3067147
   3  2     -450.9475743482    -0.0015336387   0.003680303   0.016515942     1916987252    3474854
   4  3     -450.9494203614    -0.0018460132   0.001508167   0.002962183     1892894768    3806792
   5  4     -450.9495444443    -0.0001240829   0.000654926   0.000987583     1857184287    4248735
   6  5     -450.9495591945    -0.0000147502   0.000180317   0.000196657     1809443395    4695587
   7  6     -450.9495601011    -0.0000009066   0.000029875   0.000058003     1729635431    5415918
   8  7     -450.9495601212    -0.0000000202   0.000009510   0.000008575     1630533887    6169934
   9  8     -450.9495601251    -0.0000000039   0.000003250   0.000001701     1503076040    7002920
  10  9     -450.9495601299    -0.0000000048   0.000008569   0.000000422     1361700698    7946728
  11 10     -450.9495601207     0.0000000092   0.000003901   0.000000247     1411244741    7553372
  12 11     -450.9495601213    -0.0000000006   0.000001498   0.000000313     1286918605    8141702

          -----------------
          DENSITY CONVERGED
          -----------------
     TIME TO FORM FOCK OPERATORS=    1339.1 SECONDS (     111.6 SEC/ITER)
     FOCK TIME ON FIRST ITERATION=     135.7, LAST ITERATION=      83.2
     TIME TO SOLVE SCF EQUATIONS=       8.4 SECONDS (       0.7 SEC/ITER)

 FINAL ROHF ENERGY IS     -450.9495601213 AFTER  12 ITERATIONS

          --------------------
          SPIN SZ   =    1.000
          S-SQUARED =    2.000
          --------------------

          ------------
          EIGENVECTORS
          ------------

                      1          2          3          4          5
                  -20.6430   -20.6430   -20.6430   -20.6430   -11.4142
                     A          A          A          A          A   
    1  C  1  S    0.000393   0.000005   0.000420   0.000265   0.489556
    2  C  1  S    0.000860   0.000011   0.000927   0.000567   0.001320
    3  C  1  S    0.000449   0.000003   0.000285   0.000024   0.021122
    4  C  1  S    0.001546  -0.000011  -0.000935   0.000292  -0.001824
    5  C  1  X   -0.000090  -0.000049  -0.000150  -0.000133  -0.000075
    6  C  1  Y   -0.000090   0.000045  -0.000151  -0.000133  -0.000075
    7  C  1  Z    0.000000   0.000000  -0.000000   0.000000   0.000000
    8  C  1  X   -0.001606   0.000293  -0.001483  -0.000535  -0.000418
    9  C  1  Y   -0.001606  -0.000329  -0.001476  -0.000535  -0.000418
   10  C  1  Z    0.000000   0.000000   0.000000   0.000000  -0.000000
   11  C  1  X    0.000633  -0.000154   0.000489  -0.000102   0.001882
   12  C  1  Y    0.000633   0.000166   0.000485  -0.000102   0.001882
   13  C  1  Z    0.000000   0.000000   0.000000   0.000000  -0.000000
   14  C  1 XX    0.000038   0.000028   0.000056   0.000044   0.000206
   15  C  1 YY    0.000038  -0.000027   0.000056   0.000044   0.000206
   16  C  1 ZZ   -0.000076  -0.000001  -0.000112  -0.000087  -0.000412
   17  C  1 XY    0.000105   0.000002   0.000209   0.000141   0.000390
   18  C  1 XZ    0.000000   0.000000  -0.000000   0.000000   0.000000
   19  C  1 YZ    0.000000   0.000000  -0.000000   0.000000   0.000000
   20  C  1 XX   -0.000097   0.000443   0.000118   0.000173  -0.000271
   21  C  1 YY   -0.000097  -0.000440   0.000129   0.000173  -0.000271
   22  C  1 ZZ    0.000194  -0.000003  -0.000247  -0.000346   0.000543
   23  C  1 XY    0.002237   0.000011   0.000939   0.000574  -0.000839
   24  C  1 XZ    0.000000   0.000000  -0.000000   0.000000   0.000000
   25  C  1 YZ    0.000000   0.000000  -0.000000   0.000000   0.000000
   26  C  1 XXX  -0.000127   0.000022  -0.000052  -0.000015   0.000000
   27  C  1 YYY  -0.000127  -0.000023  -0.000052  -0.000015   0.000000
   28  C  1 ZZZ   0.000000   0.000000  -0.000000   0.000000   0.000000
   29  C  1 XXY   0.000148  -0.000002   0.000064   0.000040  -0.000154
   30  C  1 XXZ   0.000000   0.000000  -0.000000   0.000000   0.000000
   31  C  1 YYX   0.000148   0.000003   0.000064   0.000040  -0.000154
   32  C  1 YYZ   0.000000   0.000000  -0.000000   0.000000   0.000000
   33  C  1 ZZX   0.000023  -0.000032   0.000006  -0.000019   0.000154
   34  C  1 ZZY   0.000023   0.000032   0.000005  -0.000019   0.000154
   35  C  1 XYZ   0.000000   0.000000  -0.000000   0.000000   0.000000
   36  C  1  S   -0.010684   0.000013   0.001078   0.000061   0.000120
   37  C  1  X   -0.000825  -0.000325  -0.000122  -0.000011   0.000106
   38  C  1  Y   -0.000825   0.000322  -0.000130  -0.000011   0.000106
   39  C  1  Z   -0.000000   0.000000   0.000000  -0.000000  -0.000000
   40  C  1 XX   -0.000310   0.000440   0.000029  -0.000026   0.000107
   41  C  1 YY   -0.000310  -0.000439   0.000040  -0.000026   0.000107
   42  C  1 ZZ    0.000620  -0.000001  -0.000069   0.000052  -0.000213
   43  C  1 XY   -0.005872  -0.000007  -0.000581  -0.000243  -0.000571
   44  C  1 XZ    0.000000   0.000000   0.000000   0.000000   0.000000
   45  C  1 YZ    0.000000   0.000000   0.000000   0.000000   0.000000
   46  C  1 XXX  -0.000594  -0.000024  -0.000019   0.000102  -0.000434
   47  C  1 YYY  -0.000594   0.000023  -0.000019   0.000102  -0.000434
   48  C  1 ZZZ  -0.000000   0.000000  -0.000000  -0.000000   0.000000
   49  C  1 XXY   0.000680  -0.000065  -0.000160  -0.000308   0.000829
   50  C  1 XXZ   0.000000   0.000000   0.000000   0.000000   0.000000
   51  C  1 YYX   0.000680   0.000061  -0.000162  -0.000308   0.000829
   52  C  1 YYZ   0.000000   0.000000   0.000000   0.000000   0.000000
   53  C  1 ZZX   0.000117  -0.000029   0.000187   0.000172  -0.000246
   54  C  1 ZZY   0.000117   0.000034   0.000186   0.000172  -0.000246
   55  C  1 XYZ   0.000000   0.000000   0.000000   0.000000   0.000000
   56  C  2  S   -0.000393   0.000420  -0.000005   0.000265   0.489557
   57  C  2  S   -0.000860   0.000927  -0.000011   0.000567   0.001320
   58  C  2  S   -0.000449   0.000285  -0.000003   0.000024   0.021122
   59  C  2  S   -0.001546  -0.000935   0.000011   0.000293  -0.001823
   60  C  2  X   -0.000090   0.000151   0.000045   0.000133   0.000075
   61  C  2  Y    0.000090  -0.000150   0.000049  -0.000133  -0.000075
   62  C  2  Z    0.000000   0.000000  -0.000000   0.000000   0.000000
   63  C  2  X   -0.001606   0.001476  -0.000329   0.000535   0.000418
   64  C  2  Y    0.001606  -0.001483  -0.000293  -0.000535  -0.000418
   65  C  2  Z   -0.000000   0.000000  -0.000000   0.000000   0.000000
   66  C  2  X    0.000633  -0.000485   0.000166   0.000102  -0.001882
   67  C  2  Y   -0.000633   0.000489   0.000154  -0.000102   0.001882
   68  C  2  Z   -0.000000  -0.000000  -0.000000  -0.000000   0.000000
   69  C  2 XX   -0.000038   0.000056   0.000027   0.000044   0.000206
   70  C  2 YY   -0.000038   0.000056  -0.000028   0.000044   0.000206
   71  C  2 ZZ    0.000076  -0.000112   0.000001  -0.000087  -0.000412
   72  C  2 XY    0.000105  -0.000209   0.000002  -0.000141  -0.000390
   73  C  2 XZ    0.000000   0.000000  -0.000000   0.000000   0.000000
   74  C  2 YZ    0.000000   0.000000  -0.000000   0.000000   0.000000
   75  C  2 XX    0.000097   0.000129   0.000440   0.000173  -0.000271
   76  C  2 YY    0.000097   0.000118  -0.000443   0.000173  -0.000271
   77  C  2 ZZ   -0.000194  -0.000247   0.000003  -0.000346   0.000543
   78  C  2 XY    0.002237  -0.000939   0.000011  -0.000574   0.000839
   79  C  2 XZ    0.000000   0.000000  -0.000000   0.000000   0.000000
   80  C  2 YZ    0.000000   0.000000   0.000000   0.000000  -0.000000
   81  C  2 XXX  -0.000127   0.000052  -0.000023   0.000015  -0.000000
   82  C  2 YYY   0.000127  -0.000052  -0.000022  -0.000015   0.000000
   83  C  2 ZZZ   0.000000   0.000000  -0.000000   0.000000   0.000000
   84  C  2 XXY  -0.000148   0.000064  -0.000003   0.000040  -0.000154
   85  C  2 XXZ   0.000000   0.000000  -0.000000   0.000000   0.000000
   86  C  2 YYX   0.000148  -0.000064  -0.000002  -0.000040   0.000154
   87  C  2 YYZ   0.000000   0.000000  -0.000000   0.000000   0.000000
   88  C  2 ZZX   0.000023  -0.000005   0.000032   0.000019  -0.000154
   89  C  2 ZZY  -0.000023   0.000006   0.000032  -0.000019   0.000154
   90  C  2 XYZ   0.000000   0.000000  -0.000000   0.000000   0.000000
   91  C  2  S    0.010684   0.001078  -0.000013   0.000061   0.000121
   92  C  2  X   -0.000825   0.000130   0.000322   0.000011  -0.000106
   93  C  2  Y    0.000825  -0.000122   0.000324  -0.000011   0.000106
   94  C  2  Z    0.000000  -0.000000  -0.000000   0.000000   0.000000
   95  C  2 XX    0.000310   0.000040   0.000439  -0.000026   0.000107
   96  C  2 YY    0.000310   0.000029  -0.000440  -0.000026   0.000107
   97  C  2 ZZ   -0.000620  -0.000069   0.000001   0.000052  -0.000213
   98  C  2 XY   -0.005872   0.000581  -0.000007   0.000243   0.000571
   99  C  2 XZ    0.000000   0.000000   0.000000   0.000000   0.000000
  100  C  2 YZ   -0.000000  -0.000000  -0.000000  -0.000000  -0.000000
  101  C  2 XXX  -0.000594   0.000019   0.000023  -0.000102   0.000434
  102  C  2 YYY   0.000594  -0.000019   0.000024   0.000102  -0.000434
  103  C  2 ZZZ   0.000000   0.000000   0.000000   0.000000   0.000000
  104  C  2 XXY  -0.000680  -0.000161  -0.000061  -0.000308   0.000829
  105  C  2 XXZ   0.000000   0.000000  -0.000000   0.000000  -0.000000
  106  C  2 YYX   0.000680   0.000160  -0.000065   0.000308  -0.000829
  107  C  2 YYZ   0.000000   0.000000  -0.000000   0.000000   0.000000
  108  C  2 ZZX   0.000117  -0.000186   0.000034  -0.000172   0.000246
  109  C  2 ZZY  -0.000117   0.000187   0.000029   0.000172  -0.000246
  110  C  2 XYZ   0.000000   0.000000  -0.000000   0.000000   0.000000
  111  C  3  S   -0.000393  -0.000420   0.000005   0.000265   0.489556
  112  C  3  S   -0.000860  -0.000927   0.000011   0.000567   0.001320
  113  C  3  S   -0.000449  -0.000285   0.000003   0.000024   0.021122
  114  C  3  S   -0.001546   0.000935  -0.000011   0.000293  -0.001823
  115  C  3  X    0.000090   0.000151   0.000045  -0.000133  -0.000075
  116  C  3  Y   -0.000090  -0.000150   0.000049   0.000133   0.000075
  117  C  3  Z    0.000000   0.000000  -0.000000   0.000000   0.000000
  118  C  3  X    0.001606   0.001476  -0.000329  -0.000535  -0.000418
  119  C  3  Y   -0.001606  -0.001483  -0.000293   0.000535   0.000418
  120  C  3  Z   -0.000000   0.000000  -0.000000  -0.000000   0.000000
  121  C  3  X   -0.000633  -0.000485   0.000166  -0.000102   0.001882
  122  C  3  Y    0.000633   0.000489   0.000154   0.000102  -0.001882
  123  C  3  Z   -0.000000  -0.000000  -0.000000  -0.000000   0.000000
  124  C  3 XX   -0.000038  -0.000056  -0.000027   0.000044   0.000206
  125  C  3 YY   -0.000038  -0.000056   0.000028   0.000044   0.000206
  126  C  3 ZZ    0.000076   0.000112  -0.000001  -0.000087  -0.000412
  127  C  3 XY    0.000105   0.000209  -0.000002  -0.000141  -0.000390
  128  C  3 XZ    0.000000   0.000000  -0.000000   0.000000   0.000000
  129  C  3 YZ    0.000000   0.000000  -0.000000   0.000000   0.000000
  130  C  3 XX    0.000097  -0.000129  -0.000440   0.000173  -0.000271
  131  C  3 YY    0.000097  -0.000118   0.000443   0.000173  -0.000271
  132  C  3 ZZ   -0.000194   0.000247  -0.000003  -0.000346   0.000543
  133  C  3 XY    0.002237   0.000939  -0.000011  -0.000574   0.000839
  134  C  3 XZ    0.000000   0.000000   0.000000   0.000000  -0.000000
  135  C  3 YZ    0.000000   0.000000  -0.000000   0.000000   0.000000
  136  C  3 XXX   0.000127   0.000052  -0.000023  -0.000015   0.000000
  137  C  3 YYY  -0.000127  -0.000052  -0.000022   0.000015  -0.000000
  138  C  3 ZZZ   0.000000   0.000000  -0.000000   0.000000   0.000000
  139  C  3 XXY   0.000148   0.000064  -0.000003  -0.000040   0.000154
  140  C  3 XXZ   0.000000   0.000000  -0.000000   0.000000   0.000000
  141  C  3 YYX  -0.000148  -0.000064  -0.000002   0.000040  -0.000154
  142  C  3 YYZ   0.000000   0.000000  -0.000000   0.000000   0.000000
  143  C  3 ZZX  -0.000023  -0.000005   0.000032  -0.000019   0.000154
  144  C  3 ZZY   0.000023   0.000006   0.000032   0.000019  -0.000154
  145  C  3 XYZ   0.000000   0.000000  -0.000000   0.000000   0.000000
  146  C  3  S    0.010685  -0.001078   0.000013   0.000061   0.000121
  147  C  3  X    0.000825   0.000130   0.000321  -0.000011   0.000106
  148  C  3  Y   -0.000825  -0.000122   0.000325   0.000011  -0.000106
  149  C  3  Z    0.000000  -0.000000  -0.000000   0.000000   0.000000
  150  C  3 XX    0.000310  -0.000040  -0.000439  -0.000026   0.000107
  151  C  3 YY    0.000310  -0.000029   0.000440  -0.000026   0.000107
  152  C  3 ZZ   -0.000620   0.000069  -0.000001   0.000052  -0.000213
  153  C  3 XY   -0.005872  -0.000581   0.000007   0.000243   0.000571
  154  C  3 XZ   -0.000000  -0.000000  -0.000000  -0.000000  -0.000000
  155  C  3 YZ    0.000000   0.000000   0.000000   0.000000   0.000000
  156  C  3 XXX   0.000594   0.000019   0.000023   0.000102  -0.000434
  157  C  3 YYY  -0.000594  -0.000019   0.000024  -0.000102   0.000434
  158  C  3 ZZZ   0.000000   0.000000   0.000000   0.000000  -0.000000
  159  C  3 XXY   0.000680  -0.000161  -0.000061   0.000308  -0.000829
  160  C  3 XXZ   0.000000   0.000000  -0.000000   0.000000   0.000000
  161  C  3 YYX  -0.000680   0.000160  -0.000065  -0.000308   0.000829
  162  C  3 YYZ  -0.000000   0.000000  -0.000000  -0.000000   0.000000
  163  C  3 ZZX  -0.000117  -0.000186   0.000034   0.000172  -0.000246
  164  C  3 ZZY   0.000117   0.000187   0.000029  -0.000172   0.000246
  165  C  3 XYZ   0.000000   0.000000  -0.000000   0.000000   0.000000
  166  C  4  S    0.000393  -0.000005  -0.000420   0.000265   0.489557
  167  C  4  S    0.000860  -0.000011  -0.000927   0.000567   0.001320
  168  C  4  S    0.000449  -0.000003  -0.000285   0.000024   0.021122
  169  C  4  S    0.001546   0.000011   0.000935   0.000292  -0.001824
  170  C  4  X    0.000090  -0.000049  -0.000150   0.000133   0.000075
  171  C  4  Y    0.000090   0.000045  -0.000151   0.000133   0.000075
  172  C  4  Z    0.000000   0.000000  -0.000000   0.000000   0.000000
  173  C  4  X    0.001606   0.000293  -0.001483   0.000535   0.000418
  174  C  4  Y    0.001606  -0.000329  -0.001476   0.000535   0.000418
  175  C  4  Z    0.000000   0.000000   0.000000   0.000000  -0.000000
  176  C  4  X   -0.000633  -0.000154   0.000489   0.000102  -0.001882
  177  C  4  Y   -0.000633   0.000166   0.000485   0.000102  -0.001882
  178  C  4  Z    0.000000   0.000000   0.000000   0.000000  -0.000000
  179  C  4 XX    0.000038  -0.000028  -0.000056   0.000044   0.000206
  180  C  4 YY    0.000038   0.000027  -0.000056   0.000044   0.000206
  181  C  4 ZZ   -0.000076   0.000001   0.000112  -0.000087  -0.000412
  182  C  4 XY    0.000105  -0.000002  -0.000209   0.000141   0.000390
  183  C  4 XZ    0.000000   0.000000  -0.000000   0.000000   0.000000
  184  C  4 YZ    0.000000   0.000000  -0.000000   0.000000   0.000000
  185  C  4 XX   -0.000097  -0.000443  -0.000118   0.000173  -0.000271
  186  C  4 YY   -0.000097   0.000440  -0.000129   0.000173  -0.000271
  187  C  4 ZZ    0.000194   0.000003   0.000247  -0.000346   0.000543
  188  C  4 XY    0.002237  -0.000011  -0.000939   0.000574  -0.000839
  189  C  4 XZ   -0.000000   0.000000   0.000000   0.000000  -0.000000
  190  C  4 YZ    0.000000   0.000000   0.000000   0.000000  -0.000000
  191  C  4 XXX   0.000127   0.000022  -0.000052   0.000015  -0.000000
  192  C  4 YYY   0.000127  -0.000023  -0.000052   0.000015  -0.000000
  193  C  4 ZZZ   0.000000   0.000000  -0.000000   0.000000   0.000000
  194  C  4 XXY  -0.000148  -0.000002   0.000064  -0.000040   0.000154
  195  C  4 XXZ   0.000000   0.000000  -0.000000   0.000000   0.000000
  196  C  4 YYX  -0.000148   0.000003   0.000064  -0.000040   0.000154
  197  C  4 YYZ   0.000000   0.000000  -0.000000   0.000000   0.000000
  198  C  4 ZZX  -0.000023  -0.000032   0.000006   0.000019  -0.000154
  199  C  4 ZZY  -0.000023   0.000032   0.000005   0.000019  -0.000154
  200  C  4 XYZ   0.000000   0.000000  -0.000000   0.000000   0.000000
  201  C  4  S   -0.010684  -0.000013  -0.001078   0.000061   0.000120
  202  C  4  X    0.000825  -0.000325  -0.000122   0.000011  -0.000106
  203  C  4  Y    0.000825   0.000322  -0.000130   0.000011  -0.000106
  204  C  4  Z   -0.000000   0.000000   0.000000  -0.000000  -0.000000
  205  C  4 XX   -0.000310  -0.000440  -0.000029  -0.000026   0.000107
  206  C  4 YY   -0.000310   0.000439  -0.000040  -0.000026   0.000107
  207  C  4 ZZ    0.000620   0.000001   0.000069   0.000052  -0.000213
  208  C  4 XY   -0.005872   0.000007   0.000581  -0.000243  -0.000571
  209  C  4 XZ   -0.000000  -0.000000  -0.000000  -0.000000  -0.000000
  210  C  4 YZ   -0.000000  -0.000000  -0.000000  -0.000000  -0.000000
  211  C  4 XXX   0.000594  -0.000024  -0.000019  -0.000102   0.000434
  212  C  4 YYY   0.000594   0.000023  -0.000019  -0.000102   0.000434
  213  C  4 ZZZ   0.000000   0.000000  -0.000000   0.000000   0.000000
  214  C  4 XXY  -0.000680  -0.000065  -0.000160   0.000308  -0.000829
  215  C  4 XXZ   0.000000   0.000000   0.000000   0.000000   0.000000
  216  C  4 YYX  -0.000680   0.000061  -0.000161   0.000308  -0.000829
  217  C  4 YYZ   0.000000   0.000000   0.000000   0.000000  -0.000000
  218  C  4 ZZX  -0.000117  -0.000029   0.000187  -0.000172   0.000246
  219  C  4 ZZY  -0.000117   0.000034   0.000186  -0.000172   0.000246
  220  C  4 XYZ   0.000000   0.000000  -0.000000   0.000000   0.000000
  221  O  5  S    0.487554   0.008205   0.689357   0.487434   0.000162
  222  O  5  S   -0.001125  -0.000021  -0.001770  -0.001326   0.000867
  223  O  5  S    0.021833   0.000367   0.030839   0.021795   0.000135
  224  O  5  S    0.001432   0.000018   0.001516   0.001063   0.001831
  225  O  5  X    0.000738   0.000011   0.001035   0.000725   0.000145
  226  O  5  Y    0.000738   0.000014   0.001035   0.000725   0.000145
  227  O  5  Z    0.000000   0.000000  -0.000000   0.000000   0.000000
  228  O  5  X   -0.000748  -0.000019  -0.001055  -0.000695   0.000095
  229  O  5  Y   -0.000748  -0.000006  -0.001055  -0.000695   0.000095
  230  O  5  Z    0.000000   0.000000  -0.000000   0.000000   0.000000
  231  O  5  X   -0.001547   0.000290  -0.000218   0.000198  -0.000582
  232  O  5  Y   -0.001547  -0.000296  -0.000211   0.000198  -0.000582
  233  O  5  Z   -0.000000  -0.000000  -0.000000  -0.000000   0.000000
  234  O  5 XX    0.000051  -0.000003   0.000063   0.000043   0.000015
  235  O  5 YY    0.000051   0.000004   0.000063   0.000043   0.000015
  236  O  5 ZZ   -0.000102  -0.000002  -0.000127  -0.000087  -0.000031
  237  O  5 XY    0.000117   0.000002   0.000142   0.000096   0.000061
  238  O  5 XZ    0.000000   0.000000  -0.000000   0.000000   0.000000
  239  O  5 YZ    0.000000   0.000000  -0.000000   0.000000   0.000000
  240  O  5 XX   -0.000106   0.000016  -0.000110  -0.000061  -0.000090
  241  O  5 YY   -0.000106  -0.000018  -0.000109  -0.000061  -0.000090
  242  O  5 ZZ    0.000213   0.000003   0.000219   0.000122   0.000180
  243  O  5 XY   -0.000392  -0.000006  -0.000472  -0.000276  -0.000269
  244  O  5 XZ    0.000000   0.000000  -0.000000   0.000000   0.000000
  245  O  5 YZ    0.000000   0.000000  -0.000000   0.000000   0.000000
  246  O  5 XXX  -0.000002  -0.000006  -0.000003  -0.000006  -0.000010
  247  O  5 YYY  -0.000002   0.000005  -0.000003  -0.000006  -0.000010
  248  O  5 ZZZ   0.000000   0.000000  -0.000000   0.000000   0.000000
  249  O  5 XXY   0.000005  -0.000003  -0.000004  -0.000000   0.000063
  250  O  5 XXZ   0.000000   0.000000  -0.000000   0.000000   0.000000
  251  O  5 YYX   0.000005   0.000003  -0.000004  -0.000000   0.000063
  252  O  5 YYZ   0.000000   0.000000  -0.000000   0.000000   0.000000
  253  O  5 ZZX  -0.000002   0.000005   0.000008   0.000008  -0.000049
  254  O  5 ZZY  -0.000002  -0.000004   0.000008   0.000008  -0.000049
  255  O  5 XYZ   0.000000   0.000000  -0.000000   0.000000   0.000000
  256  O  5  S    0.007280  -0.000003  -0.000238  -0.000294   0.000260
  257  O  5  X    0.000694   0.000166  -0.000019  -0.000065  -0.000075
  258  O  5  Y    0.000694  -0.000167  -0.000015  -0.000065  -0.000075
  259  O  5  Z    0.000000  -0.000000  -0.000000   0.000000   0.000000
  260  O  5 XX   -0.000317   0.000141  -0.000074   0.000032  -0.000280
  261  O  5 YY   -0.000317  -0.000143  -0.000071   0.000032  -0.000280
  262  O  5 ZZ    0.000634   0.000002   0.000145  -0.000064   0.000559
  263  O  5 XY   -0.000503  -0.000001  -0.000060   0.000141  -0.000166
  264  O  5 XZ    0.000000  -0.000000  -0.000000   0.000000   0.000000
  265  O  5 YZ   -0.000000  -0.000000  -0.000000   0.000000   0.000000
  266  O  5 XXX  -0.000010   0.000015   0.000017   0.000023  -0.000063
  267  O  5 YYY  -0.000010  -0.000015   0.000018   0.000023  -0.000063
  268  O  5 ZZZ   0.000000   0.000000  -0.000000   0.000000   0.000000
  269  O  5 XXY  -0.000089   0.000011  -0.000106  -0.000061  -0.000080
  270  O  5 XXZ   0.000000   0.000000  -0.000000   0.000000   0.000000
  271  O  5 YYX  -0.000089  -0.000014  -0.000106  -0.000061  -0.000080
  272  O  5 YYZ   0.000000   0.000000  -0.000000   0.000000   0.000000
  273  O  5 ZZX   0.000103  -0.000007   0.000082   0.000030   0.000165
  274  O  5 ZZY   0.000103   0.000009   0.000082   0.000030   0.000165
  275  O  5 XYZ   0.000000   0.000000  -0.000000   0.000000   0.000000
  276  O  6  S   -0.487545   0.689356  -0.008196   0.487443   0.000162
  277  O  6  S    0.001125  -0.001770   0.000021  -0.001326   0.000867
  278  O  6  S   -0.021833   0.030839  -0.000367   0.021796   0.000135
  279  O  6  S   -0.001432   0.001516  -0.000018   0.001063   0.001831
  280  O  6  X    0.000738  -0.001035   0.000014  -0.000725  -0.000145
  281  O  6  Y   -0.000738   0.001035  -0.000011   0.000725   0.000145
  282  O  6  Z    0.000000   0.000000  -0.000000   0.000000   0.000000
  283  O  6  X   -0.000748   0.001055  -0.000006   0.000695  -0.000095
  284  O  6  Y    0.000748  -0.001055   0.000019  -0.000695   0.000095
  285  O  6  Z    0.000000   0.000000  -0.000000   0.000000   0.000000
  286  O  6  X   -0.001547   0.000211  -0.000296  -0.000198   0.000582
  287  O  6  Y    0.001547  -0.000218  -0.000290   0.000198  -0.000582
  288  O  6  Z    0.000000   0.000000   0.000000   0.000000  -0.000000
  289  O  6 XX   -0.000051   0.000063  -0.000004   0.000043   0.000015
  290  O  6 YY   -0.000051   0.000063   0.000003   0.000043   0.000015
  291  O  6 ZZ    0.000102  -0.000127   0.000002  -0.000087  -0.000031
  292  O  6 XY    0.000117  -0.000142   0.000002  -0.000096  -0.000061
  293  O  6 XZ    0.000000   0.000000  -0.000000   0.000000   0.000000
  294  O  6 YZ    0.000000   0.000000  -0.000000   0.000000   0.000000
  295  O  6 XX    0.000106  -0.000109   0.000018  -0.000061  -0.000090
  296  O  6 YY    0.000106  -0.000110  -0.000016  -0.000061  -0.000090
  297  O  6 ZZ   -0.000213   0.000219  -0.000003   0.000122   0.000180
  298  O  6 XY   -0.000392   0.000472  -0.000006   0.000276   0.000269
  299  O  6 XZ    0.000000   0.000000  -0.000000   0.000000   0.000000
  300  O  6 YZ    0.000000   0.000000  -0.000000   0.000000   0.000000
  301  O  6 XXX  -0.000002   0.000003   0.000005   0.000006   0.000010
  302  O  6 YYY   0.000002  -0.000003   0.000006  -0.000006  -0.000010
  303  O  6 ZZZ   0.000000   0.000000  -0.000000   0.000000   0.000000
  304  O  6 XXY  -0.000005  -0.000004  -0.000003  -0.000000   0.000063
  305  O  6 XXZ   0.000000   0.000000  -0.000000   0.000000   0.000000
  306  O  6 YYX   0.000005   0.000004  -0.000003   0.000000  -0.000063
  307  O  6 YYZ   0.000000   0.000000  -0.000000   0.000000   0.000000
  308  O  6 ZZX  -0.000002  -0.000008  -0.000004  -0.000008   0.000049
  309  O  6 ZZY   0.000002   0.000008  -0.000005   0.000008  -0.000049
  310  O  6 XYZ   0.000000   0.000000  -0.000000   0.000000   0.000000
  311  O  6  S   -0.007280  -0.000238   0.000003  -0.000294   0.000259
  312  O  6  X    0.000694   0.000015  -0.000167   0.000065   0.000075
  313  O  6  Y   -0.000694  -0.000019  -0.000166  -0.000065  -0.000075
  314  O  6  Z   -0.000000   0.000000   0.000000  -0.000000  -0.000000
  315  O  6 XX    0.000317  -0.000071   0.000143   0.000032  -0.000280
  316  O  6 YY    0.000317  -0.000074  -0.000141   0.000032  -0.000280
  317  O  6 ZZ   -0.000634   0.000145  -0.000002  -0.000064   0.000559
  318  O  6 XY   -0.000503   0.000060  -0.000001  -0.000141   0.000166
  319  O  6 XZ    0.000000   0.000000  -0.000000   0.000000   0.000000
  320  O  6 YZ    0.000000   0.000000   0.000000   0.000000  -0.000000
  321  O  6 XXX  -0.000010  -0.000018  -0.000015  -0.000023   0.000063
  322  O  6 YYY   0.000010   0.000017  -0.000015   0.000023  -0.000063
  323  O  6 ZZZ   0.000000   0.000000  -0.000000   0.000000   0.000000
  324  O  6 XXY   0.000089  -0.000106   0.000014  -0.000061  -0.000080
  325  O  6 XXZ   0.000000   0.000000  -0.000000   0.000000   0.000000
  326  O  6 YYX  -0.000089   0.000106   0.000011   0.000061   0.000080
  327  O  6 YYZ   0.000000   0.000000  -0.000000   0.000000   0.000000
  328  O  6 ZZX   0.000103  -0.000082   0.000009  -0.000030  -0.000165
  329  O  6 ZZY  -0.000103   0.000082   0.000007   0.000030   0.000165
  330  O  6 XYZ   0.000000   0.000000  -0.000000   0.000000   0.000000
  331  O  7  S   -0.487552  -0.689354   0.008221   0.487439   0.000162
  332  O  7  S    0.001125   0.001770  -0.000021  -0.001326   0.000867
  333  O  7  S   -0.021833  -0.030838   0.000368   0.021796   0.000135
  334  O  7  S   -0.001432  -0.001516   0.000018   0.001063   0.001831
  335  O  7  X   -0.000738  -0.001035   0.000014   0.000725   0.000145
  336  O  7  Y    0.000738   0.001035  -0.000011  -0.000725  -0.000145
  337  O  7  Z    0.000000   0.000000  -0.000000   0.000000   0.000000
  338  O  7  X    0.000748   0.001055  -0.000006  -0.000695   0.000095
  339  O  7  Y   -0.000748  -0.001055   0.000019   0.000695  -0.000095
  340  O  7  Z    0.000000   0.000000  -0.000000   0.000000   0.000000
  341  O  7  X    0.001547   0.000211  -0.000296   0.000198  -0.000582
  342  O  7  Y   -0.001547  -0.000218  -0.000290  -0.000198   0.000582
  343  O  7  Z    0.000000   0.000000   0.000000   0.000000  -0.000000
  344  O  7 XX   -0.000051  -0.000063   0.000004   0.000043   0.000015
  345  O  7 YY   -0.000051  -0.000063  -0.000003   0.000043   0.000015
  346  O  7 ZZ    0.000102   0.000127  -0.000002  -0.000087  -0.000031
  347  O  7 XY    0.000117   0.000142  -0.000002  -0.000096  -0.000061
  348  O  7 XZ    0.000000   0.000000  -0.000000   0.000000   0.000000
  349  O  7 YZ    0.000000   0.000000  -0.000000   0.000000   0.000000
  350  O  7 XX    0.000106   0.000109  -0.000018  -0.000061  -0.000090
  351  O  7 YY    0.000106   0.000110   0.000016  -0.000061  -0.000090
  352  O  7 ZZ   -0.000213  -0.000219   0.000003   0.000122   0.000180
  353  O  7 XY   -0.000392  -0.000472   0.000006   0.000276   0.000269
  354  O  7 XZ    0.000000   0.000000  -0.000000   0.000000   0.000000
  355  O  7 YZ    0.000000   0.000000  -0.000000   0.000000   0.000000
  356  O  7 XXX   0.000002   0.000003   0.000005  -0.000006  -0.000010
  357  O  7 YYY  -0.000002  -0.000003   0.000006   0.000006   0.000010
  358  O  7 ZZZ   0.000000   0.000000  -0.000000   0.000000   0.000000
  359  O  7 XXY   0.000005  -0.000004  -0.000003   0.000000  -0.000063
  360  O  7 XXZ   0.000000   0.000000  -0.000000   0.000000   0.000000
  361  O  7 YYX  -0.000005   0.000004  -0.000003  -0.000000   0.000063
  362  O  7 YYZ   0.000000   0.000000  -0.000000   0.000000   0.000000
  363  O  7 ZZX   0.000002  -0.000008  -0.000004   0.000008  -0.000049
  364  O  7 ZZY  -0.000002   0.000008  -0.000005  -0.000008   0.000049
  365  O  7 XYZ   0.000000   0.000000  -0.000000   0.000000   0.000000
  366  O  7  S   -0.007280   0.000238  -0.000003  -0.000294   0.000259
  367  O  7  X   -0.000694   0.000015  -0.000167  -0.000065  -0.000075
  368  O  7  Y    0.000694  -0.000019  -0.000166   0.000065   0.000075
  369  O  7  Z   -0.000000   0.000000   0.000000  -0.000000  -0.000000
  370  O  7 XX    0.000317   0.000071  -0.000143   0.000032  -0.000280
  371  O  7 YY    0.000317   0.000074   0.000141   0.000032  -0.000280
  372  O  7 ZZ   -0.000634  -0.000145   0.000002  -0.000064   0.000559
  373  O  7 XY   -0.000503  -0.000060   0.000001  -0.000141   0.000166
  374  O  7 XZ    0.000000   0.000000   0.000000   0.000000  -0.000000
  375  O  7 YZ   -0.000000  -0.000000  -0.000000   0.000000   0.000000
  376  O  7 XXX   0.000010  -0.000018  -0.000015   0.000023  -0.000063
  377  O  7 YYY  -0.000010   0.000017  -0.000015  -0.000023   0.000063
  378  O  7 ZZZ   0.000000   0.000000  -0.000000   0.000000   0.000000
  379  O  7 XXY  -0.000089  -0.000106   0.000014   0.000061   0.000080
  380  O  7 XXZ   0.000000   0.000000  -0.000000   0.000000   0.000000
  381  O  7 YYX   0.000089   0.000106   0.000011  -0.000061  -0.000080
  382  O  7 YYZ   0.000000   0.000000  -0.000000   0.000000   0.000000
  383  O  7 ZZX  -0.000103  -0.000082   0.000009   0.000030   0.000165
  384  O  7 ZZY   0.000103   0.000082   0.000007  -0.000030  -0.000165
  385  O  7 XYZ   0.000000   0.000000  -0.000000   0.000000   0.000000
  386  O  8  S    0.487538  -0.008213  -0.689354   0.487454   0.000162
  387  O  8  S   -0.001125   0.000021   0.001770  -0.001326   0.000867
  388  O  8  S    0.021832  -0.000367  -0.030838   0.021796   0.000135
  389  O  8  S    0.001432  -0.000018  -0.001516   0.001063   0.001831
  390  O  8  X   -0.000738   0.000011   0.001035  -0.000725  -0.000145
  391  O  8  Y   -0.000738   0.000014   0.001035  -0.000725  -0.000145
  392  O  8  Z    0.000000   0.000000  -0.000000   0.000000   0.000000
  393  O  8  X    0.000748  -0.000019  -0.001055   0.000695  -0.000095
  394  O  8  Y    0.000748  -0.000006  -0.001055   0.000695  -0.000095
  395  O  8  Z    0.000000   0.000000  -0.000000   0.000000   0.000000
  396  O  8  X    0.001547   0.000290  -0.000218  -0.000198   0.000582
  397  O  8  Y    0.001547  -0.000296  -0.000211  -0.000198   0.000582
  398  O  8  Z    0.000000  -0.000000  -0.000000  -0.000000   0.000000
  399  O  8 XX    0.000051   0.000003  -0.000063   0.000043   0.000015
  400  O  8 YY    0.000051  -0.000004  -0.000063   0.000043   0.000015
  401  O  8 ZZ   -0.000102   0.000002   0.000127  -0.000087  -0.000031
  402  O  8 XY    0.000117  -0.000002  -0.000142   0.000096   0.000061
  403  O  8 XZ    0.000000   0.000000  -0.000000   0.000000   0.000000
  404  O  8 YZ    0.000000   0.000000  -0.000000   0.000000   0.000000
  405  O  8 XX   -0.000106  -0.000016   0.000110  -0.000061  -0.000090
  406  O  8 YY   -0.000106   0.000018   0.000109  -0.000061  -0.000090
  407  O  8 ZZ    0.000213  -0.000003  -0.000219   0.000122   0.000180
  408  O  8 XY   -0.000392   0.000006   0.000472  -0.000276  -0.000269
  409  O  8 XZ    0.000000   0.000000  -0.000000   0.000000   0.000000
  410  O  8 YZ    0.000000   0.000000  -0.000000   0.000000   0.000000
  411  O  8 XXX   0.000002  -0.000006  -0.000003   0.000006   0.000010
  412  O  8 YYY   0.000002   0.000005  -0.000003   0.000006   0.000010
  413  O  8 ZZZ   0.000000   0.000000  -0.000000   0.000000   0.000000
  414  O  8 XXY  -0.000005  -0.000003  -0.000004   0.000000  -0.000063
  415  O  8 XXZ   0.000000   0.000000  -0.000000   0.000000   0.000000
  416  O  8 YYX  -0.000005   0.000003  -0.000004   0.000000  -0.000063
  417  O  8 YYZ   0.000000   0.000000  -0.000000   0.000000   0.000000
  418  O  8 ZZX   0.000002   0.000005   0.000008  -0.000008   0.000049
  419  O  8 ZZY   0.000002  -0.000004   0.000008  -0.000008   0.000049
  420  O  8 XYZ   0.000000   0.000000  -0.000000   0.000000   0.000000
  421  O  8  S    0.007280   0.000003   0.000238  -0.000294   0.000260
  422  O  8  X   -0.000694   0.000166  -0.000019   0.000065   0.000075
  423  O  8  Y   -0.000694  -0.000167  -0.000015   0.000065   0.000075
  424  O  8  Z    0.000000  -0.000000  -0.000000   0.000000   0.000000
  425  O  8 XX   -0.000317  -0.000141   0.000074   0.000032  -0.000280
  426  O  8 YY   -0.000317   0.000143   0.000071   0.000032  -0.000280
  427  O  8 ZZ    0.000634  -0.000002  -0.000145  -0.000064   0.000559
  428  O  8 XY   -0.000503   0.000001   0.000060   0.000141  -0.000166
  429  O  8 XZ    0.000000   0.000000   0.000000   0.000000  -0.000000
  430  O  8 YZ    0.000000   0.000000   0.000000   0.000000  -0.000000
  431  O  8 XXX   0.000010   0.000015   0.000017  -0.000023   0.000063
  432  O  8 YYY   0.000010  -0.000015   0.000018  -0.000023   0.000063
  433  O  8 ZZZ   0.000000   0.000000  -0.000000   0.000000   0.000000
  434  O  8 XXY   0.000089   0.000011  -0.000106   0.000061   0.000080
  435  O  8 XXZ   0.000000   0.000000  -0.000000   0.000000   0.000000
  436  O  8 YYX   0.000089  -0.000014  -0.000106   0.000061   0.000080
  437  O  8 YYZ   0.000000   0.000000  -0.000000   0.000000   0.000000
  438  O  8 ZZX  -0.000103  -0.000007   0.000082  -0.000030  -0.000165
  439  O  8 ZZY  -0.000103   0.000009   0.000082  -0.000030  -0.000165
  440  O  8 XYZ   0.000000   0.000000  -0.000000   0.000000   0.000000

                      6          7          8          9         10
                  -11.4139   -11.4139   -11.4136    -1.5038    -1.4872
                     A          A          A          A          A   
    1  C  1  S   -0.419757   0.551075  -0.489827  -0.007858  -0.000885
    2  C  1  S   -0.001497   0.001966  -0.001663   0.152539   0.017825
    3  C  1  S   -0.018313   0.024042  -0.021511   0.035734   0.004029
    4  C  1  S   -0.004562   0.005990  -0.011301  -0.014953   0.009416
    5  C  1  X    0.000053  -0.000123   0.000024  -0.034039  -0.012659
    6  C  1  Y    0.000104  -0.000084   0.000024  -0.034039   0.001393
    7  C  1  Z    0.000000  -0.000000   0.000000   0.000000  -0.000000
    8  C  1  X   -0.000669  -0.001753   0.003784  -0.030600  -0.018729
    9  C  1  Y    0.001868   0.000179   0.003784  -0.030600   0.009831
   10  C  1  Z   -0.000000   0.000000   0.000000   0.000000  -0.000000
   11  C  1  X    0.002178   0.005971  -0.006857   0.022707   0.068389
   12  C  1  Y   -0.006334  -0.000513  -0.006858   0.022708  -0.060135
   13  C  1  Z   -0.000000   0.000000  -0.000000   0.000000   0.000000
   14  C  1 XX   -0.000306   0.000158  -0.000208   0.003669  -0.001077
   15  C  1 YY   -0.000071   0.000337  -0.000208   0.003669   0.001947
   16  C  1 ZZ    0.000377  -0.000495   0.000416  -0.007339  -0.000870
   17  C  1 XY   -0.000399   0.000523  -0.000584   0.009167   0.001317
   18  C  1 XZ    0.000000  -0.000000   0.000000   0.000000  -0.000000
   19  C  1 YZ    0.000000  -0.000000   0.000000   0.000000  -0.000000
   20  C  1 XX   -0.000268  -0.000930   0.000408  -0.000353   0.001860
   21  C  1 YY    0.000968   0.000011   0.000408  -0.000354  -0.001499
   22  C  1 ZZ   -0.000700   0.000919  -0.000816   0.000707  -0.000362
   23  C  1 XY   -0.000535   0.000703  -0.001032  -0.001138   0.000830
   24  C  1 XZ    0.000000  -0.000000   0.000000  -0.000000   0.000000
   25  C  1 YZ    0.000000  -0.000000  -0.000000  -0.000000   0.000000
   26  C  1 XXX  -0.000075   0.000048  -0.000246   0.001468   0.000518
   27  C  1 YYY  -0.000026   0.000085  -0.000246   0.001468  -0.000065
   28  C  1 ZZZ   0.000000  -0.000000   0.000000   0.000000  -0.000000
   29  C  1 XXY   0.000173  -0.000309   0.000622  -0.003420  -0.000327
   30  C  1 XXZ   0.000000  -0.000000   0.000000   0.000000  -0.000000
   31  C  1 YYX   0.000252  -0.000249   0.000622  -0.003420  -0.000701
   32  C  1 YYZ   0.000000  -0.000000   0.000000   0.000000  -0.000000
   33  C  1 ZZX  -0.000152   0.000185  -0.000293   0.001451   0.000006
   34  C  1 ZZY  -0.000137   0.000196  -0.000293   0.001451   0.000415
   35  C  1 XYZ   0.000000  -0.000000   0.000000   0.000000  -0.000000
   36  C  1  S    0.000469  -0.000617   0.009721  -0.009519  -0.008359
   37  C  1  X   -0.000573   0.000133   0.000571   0.000963  -0.014985
   38  C  1  Y    0.000024   0.000588   0.000571   0.000963   0.016005
   39  C  1  Z    0.000000   0.000000   0.000000  -0.000000  -0.000000
   40  C  1 XX    0.000529   0.000290   0.000457  -0.002791   0.014748
   41  C  1 YY   -0.000420  -0.000433   0.000457  -0.002791  -0.015753
   42  C  1 ZZ   -0.000108   0.000142  -0.000914   0.005582   0.001004
   43  C  1 XY    0.001396  -0.001832   0.004165  -0.014343  -0.003769
   44  C  1 XZ   -0.000000   0.000000  -0.000000   0.000000   0.000000
   45  C  1 YZ   -0.000000  -0.000000  -0.000000   0.000000   0.000000
   46  C  1 XXX   0.001523  -0.000096   0.000680  -0.003810   0.005292
   47  C  1 YYY  -0.000312  -0.001494   0.000680  -0.003810  -0.006805
   48  C  1 ZZZ   0.000000  -0.000000   0.000000  -0.000000  -0.000000
   49  C  1 XXY   0.000275   0.001720  -0.001522   0.007271   0.005039
   50  C  1 XXZ  -0.000000  -0.000000   0.000000   0.000000  -0.000000
   51  C  1 YYX  -0.001731   0.000192  -0.001522   0.007271  -0.002731
   52  C  1 YYZ  -0.000000   0.000000  -0.000000   0.000000  -0.000000
   53  C  1 ZZX  -0.000312  -0.000063   0.000609  -0.002159  -0.004369
   54  C  1 ZZY   0.000144   0.000284   0.000609  -0.002159   0.004091
   55  C  1 XYZ  -0.000000  -0.000000   0.000000   0.000000  -0.000000
   56  C  2  S   -0.551074  -0.419757   0.489827  -0.007858   0.009246
   57  C  2  S   -0.001966  -0.001497   0.001663   0.152539  -0.186190
   58  C  2  S   -0.024042  -0.018313   0.021511   0.035734  -0.042087
   59  C  2  S   -0.005990  -0.004562   0.011301  -0.014952  -0.098367
   60  C  2  X   -0.000084  -0.000104   0.000024   0.034039  -0.059511
   61  C  2  Y    0.000123   0.000053  -0.000024  -0.034039   0.058166
   62  C  2  Z    0.000000  -0.000000   0.000000   0.000000  -0.000000
   63  C  2  X    0.000179  -0.001868   0.003784   0.030599  -0.047842
   64  C  2  Y    0.001753  -0.000669  -0.003784  -0.030599   0.045108
   65  C  2  Z    0.000000  -0.000000   0.000000  -0.000000   0.000000
   66  C  2  X   -0.000513   0.006335  -0.006857  -0.022708   0.049268
   67  C  2  Y   -0.005971   0.002178   0.006857   0.022707  -0.036964
   68  C  2  Z    0.000000  -0.000000   0.000000  -0.000000  -0.000000
   69  C  2 XX   -0.000337  -0.000071   0.000208   0.003669  -0.004399
   70  C  2 YY   -0.000158  -0.000306   0.000208   0.003669  -0.004688
   71  C  2 ZZ    0.000495   0.000377  -0.000416  -0.007339   0.009087
   72  C  2 XY    0.000523   0.000399  -0.000584  -0.009167   0.013762
   73  C  2 XZ    0.000000  -0.000000   0.000000   0.000000  -0.000000
   74  C  2 YZ    0.000000  -0.000000   0.000000   0.000000  -0.000000
   75  C  2 XX   -0.000011   0.000968  -0.000408  -0.000354  -0.002050
   76  C  2 YY    0.000930  -0.000268  -0.000408  -0.000353  -0.001728
   77  C  2 ZZ   -0.000919  -0.000700   0.000816   0.000707   0.003778
   78  C  2 XY    0.000703   0.000535  -0.001032   0.001138   0.008666
   79  C  2 XZ    0.000000  -0.000000   0.000000  -0.000000   0.000000
   80  C  2 YZ    0.000000  -0.000000   0.000000   0.000000  -0.000000
   81  C  2 XXX   0.000085   0.000026  -0.000246  -0.001468   0.002391
   82  C  2 YYY  -0.000048  -0.000075   0.000246   0.001468  -0.002335
   83  C  2 ZZZ   0.000000  -0.000000   0.000000   0.000000  -0.000000
   84  C  2 XXY   0.000249   0.000252  -0.000622  -0.003420   0.005352
   85  C  2 XXZ   0.000000  -0.000000   0.000000   0.000000  -0.000000
   86  C  2 YYX  -0.000309  -0.000173   0.000622   0.003420  -0.005388
   87  C  2 YYZ   0.000000  -0.000000   0.000000   0.000000  -0.000000
   88  C  2 ZZX   0.000196   0.000137  -0.000293  -0.001451   0.002180
   89  C  2 ZZY  -0.000185  -0.000152   0.000293   0.001451  -0.002219
   90  C  2 XYZ   0.000000  -0.000000   0.000000   0.000000  -0.000000
   91  C  2  S    0.000617   0.000470  -0.009721  -0.009517   0.087323
   92  C  2  X    0.000588  -0.000024   0.000571  -0.000963   0.003844
   93  C  2  Y   -0.000133  -0.000573  -0.000571   0.000964  -0.006811
   94  C  2  Z   -0.000000  -0.000000  -0.000000   0.000000   0.000000
   95  C  2 XX    0.000433  -0.000420  -0.000457  -0.002791   0.003786
   96  C  2 YY   -0.000290   0.000529  -0.000457  -0.002791   0.006706
   97  C  2 ZZ   -0.000142  -0.000108   0.000914   0.005582  -0.010492
   98  C  2 XY   -0.001832  -0.001396   0.004165   0.014342  -0.039371
   99  C  2 XZ   -0.000000  -0.000000  -0.000000   0.000000  -0.000000
  100  C  2 YZ    0.000000   0.000000   0.000000  -0.000000  -0.000000
  101  C  2 XXX  -0.001494   0.000312   0.000680   0.003810  -0.007325
  102  C  2 YYY   0.000096   0.001523  -0.000680  -0.003810   0.008483
  103  C  2 ZZZ  -0.000000   0.000000  -0.000000   0.000000  -0.000000
  104  C  2 XXY  -0.000192  -0.001731   0.001522   0.007271  -0.012427
  105  C  2 XXZ   0.000000   0.000000   0.000000  -0.000000  -0.000000
  106  C  2 YYX   0.001720  -0.000275  -0.001522  -0.007271   0.011683
  107  C  2 YYZ   0.000000  -0.000000   0.000000  -0.000000   0.000000
  108  C  2 ZZX   0.000284  -0.000144   0.000609   0.002159  -0.001856
  109  C  2 ZZY   0.000063  -0.000312  -0.000609  -0.002159   0.001046
  110  C  2 XYZ  -0.000000  -0.000000   0.000000   0.000000  -0.000000
  111  C  3  S    0.551074   0.419758   0.489827  -0.007858  -0.009246
  112  C  3  S    0.001966   0.001497   0.001663   0.152539   0.186190
  113  C  3  S    0.024042   0.018313   0.021511   0.035734   0.042087
  114  C  3  S    0.005990   0.004562   0.011301  -0.014952   0.098370
  115  C  3  X   -0.000084  -0.000104  -0.000024  -0.034039  -0.059511
  116  C  3  Y    0.000123   0.000053   0.000024   0.034039   0.058166
  117  C  3  Z    0.000000  -0.000000   0.000000   0.000000  -0.000000
  118  C  3  X    0.000179  -0.001868  -0.003784  -0.030599  -0.047842
  119  C  3  Y    0.001753  -0.000669   0.003784   0.030599   0.045108
  120  C  3  Z    0.000000  -0.000000   0.000000  -0.000000  -0.000000
  121  C  3  X   -0.000513   0.006334   0.006857   0.022708   0.049269
  122  C  3  Y   -0.005970   0.002178  -0.006858  -0.022708  -0.036965
  123  C  3  Z    0.000000  -0.000000   0.000000  -0.000000  -0.000000
  124  C  3 XX    0.000337   0.000071   0.000208   0.003669   0.004399
  125  C  3 YY    0.000158   0.000306   0.000208   0.003669   0.004688
  126  C  3 ZZ   -0.000495  -0.000377  -0.000416  -0.007339  -0.009087
  127  C  3 XY   -0.000523  -0.000399  -0.000584  -0.009167  -0.013762
  128  C  3 XZ    0.000000  -0.000000   0.000000   0.000000  -0.000000
  129  C  3 YZ    0.000000  -0.000000   0.000000   0.000000  -0.000000
  130  C  3 XX    0.000011  -0.000968  -0.000408  -0.000354   0.002050
  131  C  3 YY   -0.000930   0.000268  -0.000408  -0.000353   0.001728
  132  C  3 ZZ    0.000919   0.000700   0.000817   0.000707  -0.003779
  133  C  3 XY   -0.000703  -0.000535  -0.001032   0.001138  -0.008666
  134  C  3 XZ   -0.000000   0.000000   0.000000   0.000000  -0.000000
  135  C  3 YZ    0.000000  -0.000000  -0.000000  -0.000000  -0.000000
  136  C  3 XXX   0.000085   0.000026   0.000246   0.001468   0.002391
  137  C  3 YYY  -0.000048  -0.000075  -0.000246  -0.001468  -0.002335
  138  C  3 ZZZ   0.000000  -0.000000   0.000000   0.000000  -0.000000
  139  C  3 XXY   0.000249   0.000252   0.000622   0.003420   0.005352
  140  C  3 XXZ   0.000000  -0.000000   0.000000   0.000000  -0.000000
  141  C  3 YYX  -0.000309  -0.000173  -0.000622  -0.003420  -0.005388
  142  C  3 YYZ   0.000000  -0.000000   0.000000   0.000000  -0.000000
  143  C  3 ZZX   0.000196   0.000137   0.000293   0.001451   0.002180
  144  C  3 ZZY  -0.000185  -0.000152  -0.000293  -0.001451  -0.002219
  145  C  3 XYZ   0.000000  -0.000000   0.000000   0.000000  -0.000000
  146  C  3  S   -0.000617  -0.000470  -0.009721  -0.009518  -0.087325
  147  C  3  X    0.000588  -0.000024  -0.000571   0.000963   0.003844
  148  C  3  Y   -0.000133  -0.000573   0.000571  -0.000963  -0.006811
  149  C  3  Z   -0.000000  -0.000000  -0.000000   0.000000   0.000000
  150  C  3 XX   -0.000433   0.000420  -0.000457  -0.002791  -0.003786
  151  C  3 YY    0.000290  -0.000529  -0.000457  -0.002791  -0.006706
  152  C  3 ZZ    0.000142   0.000108   0.000914   0.005582   0.010492
  153  C  3 XY    0.001832   0.001396   0.004165   0.014342   0.039371
  154  C  3 XZ    0.000000  -0.000000   0.000000  -0.000000  -0.000000
  155  C  3 YZ   -0.000000  -0.000000  -0.000000   0.000000   0.000000
  156  C  3 XXX  -0.001494   0.000312  -0.000680  -0.003810  -0.007325
  157  C  3 YYY   0.000096   0.001523   0.000680   0.003810   0.008483
  158  C  3 ZZZ  -0.000000   0.000000  -0.000000   0.000000   0.000000
  159  C  3 XXY  -0.000192  -0.001731  -0.001522  -0.007271  -0.012427
  160  C  3 XXZ   0.000000  -0.000000   0.000000  -0.000000  -0.000000
  161  C  3 YYX   0.001720  -0.000275   0.001522   0.007271   0.011683
  162  C  3 YYZ   0.000000  -0.000000   0.000000   0.000000  -0.000000
  163  C  3 ZZX   0.000284  -0.000144  -0.000609  -0.002159  -0.001856
  164  C  3 ZZY   0.000063  -0.000312   0.000609   0.002159   0.001046
  165  C  3 XYZ  -0.000000  -0.000000   0.000000   0.000000   0.000000
  166  C  4  S    0.419758  -0.551074  -0.489827  -0.007858   0.000885
  167  C  4  S    0.001497  -0.001966  -0.001663   0.152539  -0.017825
  168  C  4  S    0.018313  -0.024042  -0.021511   0.035734  -0.004029
  169  C  4  S    0.004562  -0.005989  -0.011301  -0.014952  -0.009419
  170  C  4  X    0.000053  -0.000123  -0.000024   0.034039  -0.012659
  171  C  4  Y    0.000104  -0.000084  -0.000024   0.034039   0.001393
  172  C  4  Z    0.000000  -0.000000   0.000000   0.000000  -0.000000
  173  C  4  X   -0.000669  -0.001753  -0.003784   0.030600  -0.018729
  174  C  4  Y    0.001868   0.000179  -0.003784   0.030600   0.009830
  175  C  4  Z   -0.000000  -0.000000   0.000000   0.000000   0.000000
  176  C  4  X    0.002178   0.005970   0.006857  -0.022707   0.068390
  177  C  4  Y   -0.006335  -0.000513   0.006857  -0.022708  -0.060134
  178  C  4  Z   -0.000000   0.000000  -0.000000   0.000000   0.000000
  179  C  4 XX    0.000306  -0.000158  -0.000208   0.003669   0.001077
  180  C  4 YY    0.000071  -0.000337  -0.000208   0.003669  -0.001947
  181  C  4 ZZ   -0.000377   0.000495   0.000416  -0.007339   0.000870
  182  C  4 XY    0.000399  -0.000523  -0.000584   0.009167  -0.001317
  183  C  4 XZ    0.000000  -0.000000   0.000000   0.000000  -0.000000
  184  C  4 YZ    0.000000  -0.000000   0.000000   0.000000  -0.000000
  185  C  4 XX    0.000268   0.000930   0.000408  -0.000353  -0.001860
  186  C  4 YY   -0.000968  -0.000011   0.000408  -0.000353   0.001499
  187  C  4 ZZ    0.000700  -0.000919  -0.000817   0.000707   0.000362
  188  C  4 XY    0.000535  -0.000703  -0.001032  -0.001138  -0.000830
  189  C  4 XZ   -0.000000   0.000000   0.000000  -0.000000   0.000000
  190  C  4 YZ   -0.000000  -0.000000   0.000000  -0.000000   0.000000
  191  C  4 XXX  -0.000075   0.000048   0.000246  -0.001468   0.000518
  192  C  4 YYY  -0.000026   0.000085   0.000246  -0.001468  -0.000065
  193  C  4 ZZZ   0.000000  -0.000000   0.000000   0.000000  -0.000000
  194  C  4 XXY   0.000173  -0.000309  -0.000622   0.003420  -0.000327
  195  C  4 XXZ   0.000000  -0.000000   0.000000   0.000000  -0.000000
  196  C  4 YYX   0.000252  -0.000249  -0.000622   0.003420  -0.000701
  197  C  4 YYZ   0.000000  -0.000000   0.000000   0.000000  -0.000000
  198  C  4 ZZX  -0.000152   0.000185   0.000293  -0.001451   0.000006
  199  C  4 ZZY  -0.000137   0.000196   0.000293  -0.001451   0.000415
  200  C  4 XYZ   0.000000  -0.000000   0.000000   0.000000  -0.000000
  201  C  4  S   -0.000470   0.000617   0.009721  -0.009519   0.008361
  202  C  4  X   -0.000573   0.000133  -0.000571  -0.000963  -0.014985
  203  C  4  Y    0.000024   0.000588  -0.000571  -0.000963   0.016005
  204  C  4  Z    0.000000   0.000000   0.000000  -0.000000  -0.000000
  205  C  4 XX   -0.000529  -0.000290   0.000457  -0.002791  -0.014748
  206  C  4 YY    0.000420   0.000433   0.000457  -0.002791   0.015753
  207  C  4 ZZ    0.000108  -0.000142  -0.000914   0.005582  -0.001004
  208  C  4 XY   -0.001396   0.001832   0.004165  -0.014343   0.003769
  209  C  4 XZ    0.000000  -0.000000   0.000000  -0.000000  -0.000000
  210  C  4 YZ    0.000000  -0.000000   0.000000  -0.000000  -0.000000
  211  C  4 XXX   0.001523  -0.000096  -0.000680   0.003810   0.005292
  212  C  4 YYY  -0.000312  -0.001494  -0.000680   0.003810  -0.006805
  213  C  4 ZZZ   0.000000  -0.000000   0.000000   0.000000  -0.000000
  214  C  4 XXY   0.000275   0.001720   0.001522  -0.007271   0.005039
  215  C  4 XXZ  -0.000000  -0.000000   0.000000   0.000000   0.000000
  216  C  4 YYX  -0.001731   0.000192   0.001522  -0.007271  -0.002731
  217  C  4 YYZ  -0.000000   0.000000  -0.000000  -0.000000   0.000000
  218  C  4 ZZX  -0.000312  -0.000063  -0.000609   0.002159  -0.004369
  219  C  4 ZZY   0.000144   0.000284  -0.000609   0.002159   0.004091
  220  C  4 XYZ  -0.000000  -0.000000   0.000000   0.000000   0.000000
  221  O  5  S    0.000085  -0.000112   0.000141  -0.003566  -0.000566
  222  O  5  S   -0.000337   0.000442  -0.000303   0.223816   0.031318
  223  O  5  S   -0.000128   0.000168  -0.000217   0.057913   0.008121
  224  O  5  S   -0.000528   0.000694  -0.000044   0.127168   0.017295
  225  O  5  X   -0.000132   0.000187  -0.000188   0.032221   0.003128
  226  O  5  Y   -0.000145   0.000177  -0.000188   0.032221   0.005698
  227  O  5  Z    0.000000  -0.000000   0.000000   0.000000  -0.000000
  228  O  5  X   -0.000097  -0.000235   0.000610   0.041126   0.004089
  229  O  5  Y    0.000252   0.000031   0.000610   0.041126   0.007162
  230  O  5  Z    0.000000  -0.000000   0.000000  -0.000000  -0.000000
  231  O  5  X   -0.000504  -0.002393   0.003641  -0.000958  -0.010611
  232  O  5  Y    0.002441  -0.000150   0.003641  -0.000958   0.010221
  233  O  5  Z    0.000000  -0.000000  -0.000000  -0.000000   0.000000
  234  O  5 XX   -0.000014   0.000014  -0.000002   0.001175  -0.000008
  235  O  5 YY   -0.000010   0.000017  -0.000002   0.001175   0.000333
  236  O  5 ZZ    0.000024  -0.000031   0.000003  -0.002350  -0.000325
  237  O  5 XY   -0.000038   0.000050  -0.000043   0.004005   0.000531
  238  O  5 XZ    0.000000  -0.000000   0.000000   0.000000  -0.000000
  239  O  5 YZ    0.000000  -0.000000   0.000000   0.000000  -0.000000
  240  O  5 XX    0.000072  -0.000148   0.000181   0.002398  -0.000143
  241  O  5 YY    0.000124  -0.000108   0.000181   0.002398   0.000801
  242  O  5 ZZ   -0.000196   0.000257  -0.000362  -0.004796  -0.000658
  243  O  5 XY    0.000268  -0.000352   0.000764   0.007992   0.001254
  244  O  5 XZ    0.000000  -0.000000   0.000000  -0.000000  -0.000000
  245  O  5 YZ    0.000000  -0.000000   0.000000  -0.000000   0.000000
  246  O  5 XXX   0.000002  -0.000018   0.000010  -0.000352  -0.000149
  247  O  5 YYY   0.000017  -0.000006   0.000010  -0.000352   0.000064
  248  O  5 ZZZ   0.000000  -0.000000   0.000000   0.000000  -0.000000
  249  O  5 XXY  -0.000066   0.000072  -0.000042   0.001431  -0.000017
  250  O  5 XXZ   0.000000  -0.000000   0.000000   0.000000  -0.000000
  251  O  5 YYX  -0.000052   0.000083  -0.000042   0.001431   0.000407
  252  O  5 YYZ   0.000000  -0.000000   0.000000   0.000000  -0.000000
  253  O  5 ZZX   0.000050  -0.000059   0.000029  -0.000959  -0.000207
  254  O  5 ZZY   0.000044  -0.000064   0.000029  -0.000959  -0.000069
  255  O  5 XYZ   0.000000  -0.000000   0.000000   0.000000  -0.000000
  256  O  5  S   -0.001351   0.001774  -0.006848   0.016189   0.006148
  257  O  5  X    0.000187   0.000047  -0.000493  -0.002474   0.006354
  258  O  5  Y   -0.000094  -0.000168  -0.000493  -0.002474  -0.006427
  259  O  5  Z   -0.000000  -0.000000  -0.000000   0.000000   0.000000
  260  O  5 XX   -0.000198  -0.000727   0.000573  -0.003256  -0.004239
  261  O  5 YY    0.000754  -0.000003   0.000573  -0.003256   0.003358
  262  O  5 ZZ   -0.000556   0.000730  -0.001147   0.006512   0.000881
  263  O  5 XY    0.000419  -0.000551   0.001803  -0.006097  -0.000758
  264  O  5 XZ    0.000000  -0.000000   0.000000  -0.000000   0.000000
  265  O  5 YZ    0.000000  -0.000000  -0.000000  -0.000000  -0.000000
  266  O  5 XXX   0.000077   0.000061  -0.000139  -0.000432  -0.000200
  267  O  5 YYY  -0.000079  -0.000058  -0.000139  -0.000432  -0.000025
  268  O  5 ZZZ   0.000000  -0.000000   0.000000   0.000000  -0.000000
  269  O  5 XXY   0.000245  -0.000158   0.000333   0.000724   0.000620
  270  O  5 XXZ   0.000000  -0.000000   0.000000  -0.000000   0.000000
  271  O  5 YYX   0.000088  -0.000279   0.000333   0.000724  -0.000300
  272  O  5 YYZ   0.000000  -0.000000   0.000000   0.000000  -0.000000
  273  O  5 ZZX  -0.000190   0.000197  -0.000146  -0.000144   0.000568
  274  O  5 ZZY  -0.000140   0.000236  -0.000146  -0.000144  -0.000587
  275  O  5 XYZ   0.000000  -0.000000   0.000000  -0.000000   0.000000
  276  O  6  S    0.000112   0.000085  -0.000141  -0.003566   0.005913
  277  O  6  S   -0.000442  -0.000337   0.000303   0.223816  -0.327134
  278  O  6  S   -0.000168  -0.000128   0.000217   0.057913  -0.084829
  279  O  6  S   -0.000694  -0.000528   0.000044   0.127168  -0.180656
  280  O  6  X    0.000177   0.000145  -0.000188  -0.032221   0.045974
  281  O  6  Y   -0.000187  -0.000132   0.000188   0.032221  -0.046220
  282  O  6  Z    0.000000  -0.000000   0.000000   0.000000  -0.000000
  283  O  6  X    0.000031  -0.000252   0.000610  -0.041126   0.058617
  284  O  6  Y    0.000235  -0.000097  -0.000610   0.041126  -0.058912
  285  O  6  Z    0.000000  -0.000000   0.000000   0.000000  -0.000000
  286  O  6  X   -0.000150  -0.002441   0.003641   0.000958  -0.003032
  287  O  6  Y    0.002393  -0.000504  -0.003641  -0.000958   0.001038
  288  O  6  Z   -0.000000   0.000000   0.000000   0.000000  -0.000000
  289  O  6 XX   -0.000017  -0.000010   0.000002   0.001175  -0.001683
  290  O  6 YY   -0.000014  -0.000014   0.000002   0.001175  -0.001716
  291  O  6 ZZ    0.000031   0.000024  -0.000003  -0.002350   0.003399
  292  O  6 XY    0.000050   0.000038  -0.000043  -0.004005   0.005544
  293  O  6 XZ    0.000000  -0.000000   0.000000   0.000000  -0.000000
  294  O  6 YZ    0.000000  -0.000000   0.000000   0.000000  -0.000000
  295  O  6 XX    0.000108   0.000124  -0.000181   0.002398  -0.003390
  296  O  6 YY    0.000148   0.000072  -0.000181   0.002398  -0.003481
  297  O  6 ZZ   -0.000257  -0.000196   0.000362  -0.004796   0.006871
  298  O  6 XY   -0.000352  -0.000268   0.000764  -0.007992   0.013101
  299  O  6 XZ    0.000000  -0.000000   0.000000   0.000000  -0.000000
  300  O  6 YZ    0.000000  -0.000000   0.000000   0.000000  -0.000000
[...]
            423  O  8  Y      0.01290     0.02774
            424  O  8  Z      0.02336     0.02271
            425  O  8 XX     -0.00149     0.03934
            426  O  8 YY      0.01043     0.03934
            427  O  8 ZZ     -0.00356     0.00809
            428  O  8 XY      0.00541     0.03468
            429  O  8 XZ      0.00541     0.01033
            430  O  8 YZ      0.00000     0.01033
            431  O  8 XXX     0.00040     0.12418
            432  O  8 YYY    -0.00002     0.12418
            433  O  8 ZZZ     0.00000     0.08986
            434  O  8 XXY     0.00056     0.06945
            435  O  8 XXZ     0.00000     0.05821
            436  O  8 YYX     0.00114     0.06945
            437  O  8 YYZ     0.00040     0.05821
            438  O  8 ZZX     0.00000     0.04663
            439  O  8 ZZY     0.00000     0.04663
            440  O  8 XYZ     0.00000     0.00826

          ----- MULLIKEN ATOMIC OVERLAP POPULATIONS -----
          (OFF-DIAGONAL ELEMENTS NEED TO BE MULTIPLIED BY 2)

             1           2           3           4           5

    1    5.1543872
    2    0.1230005   5.1543837
    3    0.1229954  -0.2451697   5.1543932
    4   -0.2451739   0.1230011   0.1229964   5.1543875
    5    0.3516674  -0.0171935  -0.0171931  -0.0164316   8.3143037
    6   -0.0171931   0.3516659  -0.0164318  -0.0171933  -0.0376030
    7   -0.0171934  -0.0164317   0.3516652  -0.0171934  -0.0376032
    8   -0.0164319  -0.0171937  -0.0171929   0.3516670   0.0039922

             6           7           8

    6    8.3143053
    7    0.0039922   8.3143068
    8   -0.0376033  -0.0376035   8.3143058

          TOTAL MULLIKEN AND LOWDIN ATOMIC POPULATIONS
       ATOM         MULL.POP.    CHARGE          LOW.POP.     CHARGE
    1 C             5.456058    0.543942         6.178398   -0.178398
    2 C             5.456063    0.543937         6.178398   -0.178398
    3 C             5.456063    0.543937         6.178398   -0.178398
    4 C             5.456060    0.543940         6.178398   -0.178398
    5 O             8.543939   -0.543939         7.821602    0.178398
    6 O             8.543939   -0.543939         7.821602    0.178398
    7 O             8.543939   -0.543939         7.821602    0.178398
    8 O             8.543940   -0.543940         7.821602    0.178398

          MULLIKEN SPHERICAL HARMONIC POPULATIONS
       ATOM           S       P       D      F      G      H      I    TOTAL
    1 C             3.26    2.07    0.10   0.02   0.00   0.00   0.00    5.46
    2 C             3.26    2.07    0.10   0.02   0.00   0.00   0.00    5.46
    3 C             3.26    2.07    0.10   0.02   0.00   0.00   0.00    5.46
    4 C             3.26    2.07    0.10   0.02   0.00   0.00   0.00    5.46
    5 O             4.00    4.48    0.06   0.00   0.00   0.00   0.00    8.54
    6 O             4.00    4.48    0.06   0.00   0.00   0.00   0.00    8.54
    7 O             4.00    4.48    0.06   0.00   0.00   0.00   0.00    8.54
    8 O             4.00    4.48    0.06   0.00   0.00   0.00   0.00    8.54

          -------------------------------
          BOND ORDER AND VALENCE ANALYSIS     BOND ORDER THRESHOLD=0.050
          -------------------------------

                   BOND                       BOND                       BOND
  ATOM PAIR DIST  ORDER      ATOM PAIR DIST  ORDER      ATOM PAIR DIST  ORDER
    1   2  1.567  0.794        1   3  1.567  0.794        1   4  2.217 -0.057
    1   5  1.151  1.574        2   3  2.217 -0.057        2   4  1.567  0.794
    2   6  1.151  1.574        3   4  1.567  0.794        3   7  1.151  1.574
    4   8  1.151  1.574

                       TOTAL       BONDED        FREE
      ATOM            VALENCE     VALENCE     VALENCE
    1 C                 3.254       3.211       0.043
    2 C                 3.254       3.211       0.043
    3 C                 3.254       3.211       0.043
    4 C                 3.254       3.211       0.043
    5 O                 1.733       1.711       0.022
    6 O                 1.733       1.711       0.022
    7 O                 1.733       1.711       0.022
    8 O                 1.733       1.711       0.022

          -----------------------------------------
          ATOMIC SPIN DENSITY AT THE NUCLEUS (A.U.)
          -----------------------------------------
                            SPIN DENS    ALPHA DENS     BETA DENS
    1  C            6.0     0.0000000      60.71816      60.71816
    2  C            6.0    -0.0000000      60.71816      60.71816
    3  C            6.0     0.0000000      60.71816      60.71816
    4  C            6.0    -0.0000000      60.71816      60.71816
    5  O            8.0    -0.0000000     149.49837     149.49837
    6  O            8.0     0.0000000     149.49837     149.49837
    7  O            8.0     0.0000000     149.49837     149.49837
    8  O            8.0     0.0000000     149.49837     149.49837

          ---------------------
          ELECTROSTATIC MOMENTS
          ---------------------

 POINT   1           X           Y           Z (BOHR)    CHARGE
                 0.000000    0.000000    0.000000       -0.00 (A.U.)
         DX          DY          DZ         /D/  (DEBYE)
    -0.000000    0.000000    0.000000    0.000000
 ...... END OF PROPERTY EVALUATION ......
 STEP CPU TIME =     1.30 TOTAL CPU TIME =     1353.9 (   22.6 MIN)
 TOTAL WALL CLOCK TIME=     1354.3 SECONDS, CPU UTILIZATION IS  99.97%

 -----------------------------   -------------------------------------------
 RMP2 (ROHF-MBPT2) CALCULATION   PROGRAM BY M.DUPUIS,S.MALUENDES,N.MATSUNAGA
 -----------------------------   -------------------------------------------
 NCORE=   8  NOCC ALPHA,BETA=   29   27  NMOS=  368  NAOS=  440

     ORBITALS AND ORBITAL ENERGIES ARE MODIFIED
     DEFINED UNIQUE ORBITAL ENERGIES ARE:
       ALPHA
       -20.655478  -20.655475  -20.655475  -20.655473  -11.421665
       -11.421145  -11.421145  -11.420579   -1.541945   -1.523268
        -1.523268   -1.510257   -1.192946   -0.898989   -0.898989
        -0.806469   -0.780157   -0.771659   -0.735565   -0.735565
        -0.735289   -0.659428   -0.659428   -0.630784   -0.625565
        -0.576264   -0.576264   -0.399087   -0.347282    0.040993
         0.057718    0.057718    0.057848    0.057848    0.070179
         0.073682    0.097227    0.097626    0.098540    0.098540
         0.122578    0.122578    0.123713    0.146468    0.163926
         0.163926    0.201914    0.203784    0.206265    0.211314
         0.211314    0.238100    0.238820    0.244841    0.244841
         0.248821    0.266031    0.282627    0.282627    0.295905
         0.300355    0.322023    0.324303    0.327416    0.327416
         0.346748    0.358100    0.358100    0.366806    0.366806
         0.406627    0.406627    0.425143    0.434915    0.443117
         0.455878    0.482485    0.482485    0.484188    0.491022
         0.499348    0.499348    0.505592    0.514509    0.517530
         0.525596    0.606357    0.606357    0.631987    0.632796
         0.674085    0.674085    0.674702    0.675825    0.715028
         0.715028    0.742655    0.753278    0.753278    0.754921
         0.800460    0.819438    0.820802    0.827801    0.827801
         0.829711    0.832297    0.832297    0.860978    0.894132
         0.908263    0.908263    0.910177    0.910177    0.923051
         0.939854    0.939854    0.976926    0.983703    0.993809
         0.997239    1.007010    1.023638    1.032351    1.032351
         1.034562    1.034562    1.051708    1.055605    1.125534
         1.127596    1.127596    1.168861    1.168861    1.169617
         1.194912    1.199815    1.224978    1.224978    1.242994
         1.253305    1.288445    1.310938    1.316483    1.316483
         1.335239    1.369490    1.369490    1.384252    1.399980
         1.399980    1.455508    1.486066    1.486066    1.511481
         1.518401    1.564965    1.586767    1.586767    1.596443
         1.624332    1.635355    1.635355    1.647361    1.654002
         1.661737    1.661737    1.723090    1.723091    1.795869
         1.812238    1.845149    1.867310    1.922777    1.922777
         1.926928    1.962739    1.965212    1.992083    1.992083
         2.016844    2.130450    2.130450    2.143694    2.213802
         2.213802    2.263769    2.279159    2.284825    2.285449
         2.305445    2.305445    2.331825    2.387398    2.387398
         2.411070    2.429178    2.429178    2.453814    2.456626
         2.456626    2.461686    2.471240    2.493761    2.554335
         2.554335    2.555092    2.560560    2.566866    2.566866
         2.587570    2.597402    2.621353    2.658631    2.683299
         2.716203    2.716203    2.785907    2.787532    2.787532
         2.821755    2.859356    2.910974    2.910974    2.918281
         2.933989    2.948136    2.948136    2.997058    3.022723
         3.022723    3.045215    3.068339    3.068339    3.080215
         3.083867    3.121063    3.130754    3.132522    3.132522
         3.192426    3.265667    3.293052    3.327571    3.339407
         3.339407    3.344175    3.427097    3.442415    3.442415
         3.457652    3.480673    3.527808    3.527808    3.587190
         3.614153    3.614153    3.697942    3.697942    3.734394
         3.734394    3.766947    3.832710    3.853253    3.853253
         3.972222    3.974536    4.031244    4.031681    4.031681
         4.051114    4.051114    4.090606    4.125476    4.150573
         4.203308    4.220174    4.259444    4.274334    4.274334
         4.296047    4.479125    4.479125    4.490966    4.490966
         4.628549    4.654537    4.787432    4.787672    4.805751
         4.833151    4.833151    5.009678    5.010079    5.010079
         5.019487    5.080943    5.285827    5.285827    5.425357
         5.552591    5.554280    5.554280    5.648188    5.706506
         5.741755    5.741755    6.031267    6.175757    6.175757
         6.362936    6.546141    6.553060    6.553060    6.557315
         6.560260    6.585765    6.585765    6.665010    6.704028
         6.840189    6.868351    6.883479    6.883479    6.984444
         6.987338    7.005670    7.005670    7.070532    7.099830
         7.158778    7.167313    7.167313    7.221070    7.221070
         7.282906    7.282906    7.302355    7.321038    7.340185
         7.421853    7.478096    7.539843    7.539843    7.562722
         7.562722    7.566673    7.585115    7.622546    7.622546
         7.632548    7.638093    7.747185    7.771142    7.771142
         7.867600    7.904767    7.904767    8.056172    8.166350
        13.810316   17.064900   17.485395   17.485395   17.571483
        17.885511   17.885511   19.377705    0.000000    0.000000
         0.000000    0.000000    0.000000    0.000000    0.000000
         0.000000    0.000000    0.000000    0.000000    0.000000
         0.000000    0.000000    0.000000    0.000000    0.000000
         0.000000    0.000000    0.000000    0.000000    0.000000
         0.000000    0.000000    0.000000    0.000000    0.000000
         0.000000    0.000000    0.000000    0.000000    0.000000
         0.000000    0.000000    0.000000    0.000000    0.000000
         0.000000    0.000000    0.000000    0.000000    0.000000
         0.000000    0.000000    0.000000    0.000000    0.000000
         0.000000    0.000000    0.000000    0.000000    0.000000
         0.000000    0.000000    0.000000    0.000000    0.000000
         0.000000    0.000000    0.000000    0.000000    0.000000
         0.000000    0.000000    0.000000    0.000000    0.000000
         0.000000    0.000000    0.000000    0.000000    0.000000
       BETA
       -20.647161  -20.647152  -20.647152  -20.647145  -11.416674
       -11.416315  -11.416315  -11.415940   -1.516348   -1.499102
        -1.499102   -1.486490   -1.132146   -0.846904   -0.846904
        -0.763135   -0.754860   -0.740528   -0.707253   -0.707253
        -0.677432   -0.613112   -0.613112   -0.577355   -0.567844
        -0.498079   -0.498079   -0.088215   -0.049519    0.043697
         0.058209    0.058209    0.072459    0.073867    0.097905
         0.097905    0.098556    0.101818    0.122834    0.122834
         0.123913    0.131928    0.131928    0.146573    0.165008
         0.165008    0.204114    0.205223    0.209818    0.212568
         0.212568    0.239005    0.239355    0.247747    0.247747
         0.251974    0.275129    0.283781    0.283781    0.303845
         0.309575    0.325850    0.345492    0.345492    0.356190
         0.361997    0.362123    0.362123    0.381271    0.381271
         0.426740    0.426740    0.435880    0.445953    0.448588
         0.458765    0.488746    0.488746    0.493042    0.497853
         0.501923    0.501923    0.512099    0.518899    0.537431
         0.549728    0.611646    0.611646    0.643834    0.646153
         0.676548    0.680544    0.682658    0.682658    0.720369
         0.720369    0.762100    0.763148    0.763148    0.773685
         0.815975    0.821950    0.830915    0.833709    0.833709
         0.835109    0.838763    0.838763    0.866234    0.905274
         0.914958    0.914958    0.916086    0.916086    0.927696
         0.944086    0.944086    0.981098    0.989100    0.998643
         1.001783    1.030222    1.031515    1.039045    1.039045
         1.041224    1.041224    1.054901    1.067302    1.132527
         1.132527    1.137735    1.176219    1.177346    1.177346
         1.201592    1.205524    1.232576    1.232576    1.248737
         1.258243    1.290372    1.317383    1.334800    1.334800
         1.342978    1.377144    1.377144    1.392911    1.406378
         1.406378    1.462326    1.496285    1.496285    1.520993
         1.526886    1.582813    1.593284    1.593284    1.610575
         1.627275    1.639577    1.639577    1.652293    1.667850
         1.673039    1.673039    1.733556    1.733556    1.806427
         1.824702    1.856627    1.872413    1.933903    1.937556
         1.937556    1.967531    1.974295    2.003260    2.003260
         2.027883    2.140940    2.140940    2.152950    2.223727
         2.223727    2.272227    2.294849    2.295935    2.298362
         2.313365    2.313365    2.341013    2.397545    2.397546
         2.416990    2.438754    2.438754    2.464854    2.464854
         2.467675    2.471239    2.482737    2.499764    2.562801
         2.562801    2.563765    2.568335    2.573862    2.573862
         2.593661    2.604387    2.629566    2.663187    2.691502
         2.721992    2.721992    2.792382    2.794443    2.794443
         2.833381    2.865332    2.918194    2.918194    2.922881
         2.940526    2.954325    2.954325    3.004765    3.030222
         3.030222    3.050555    3.075183    3.075183    3.087887
         3.087927    3.141254    3.141383    3.141383    3.145147
         3.204985    3.277235    3.305003    3.334783    3.354354
         3.354354    3.358548    3.441807    3.452119    3.452119
         3.466585    3.488325    3.538285    3.538285    3.598658
         3.628058    3.628058    3.708737    3.708737    3.742662
         3.742662    3.777356    3.841002    3.864777    3.864777
         3.980745    3.981888    4.040451    4.042425    4.042425
         4.061370    4.061370    4.098781    4.137790    4.160719
         4.213401    4.230132    4.267264    4.284410    4.284410
         4.303836    4.488378    4.488378    4.499013    4.499013
         4.640028    4.664576    4.797149    4.797149    4.814351
         4.842159    4.842159    5.018920    5.018920    5.019151
         5.032390    5.085076    5.298020    5.298020    5.439116
         5.558013    5.562047    5.562047    5.660963    5.716299
         5.752459    5.752459    6.037882    6.183446    6.183446
         6.372932    6.552728    6.564906    6.564906    6.569103
         6.571992    6.597443    6.597443    6.676600    6.715682
         6.848548    6.876444    6.892447    6.892447    6.992718
         6.993981    7.014236    7.014236    7.080977    7.119559
         7.175497    7.175497    7.178457    7.237182    7.237182
         7.299707    7.299707    7.321058    7.328594    7.345407
         7.435854    7.488148    7.549584    7.549584    7.570352
         7.570352    7.577745    7.593720    7.629391    7.629391
         7.639846    7.644993    7.752484    7.780382    7.780382
         7.877877    7.912775    7.912775    8.062698    8.173191
        13.816390   17.068345   17.489261   17.489261   17.576361
        17.891914   17.891914   19.384046    0.000000    0.000000
         0.000000    0.000000    0.000000    0.000000    0.000000
         0.000000    0.000000    0.000000    0.000000    0.000000
         0.000000    0.000000    0.000000    0.000000    0.000000
         0.000000    0.000000    0.000000    0.000000    0.000000
         0.000000    0.000000    0.000000    0.000000    0.000000
         0.000000    0.000000    0.000000    0.000000    0.000000
         0.000000    0.000000    0.000000    0.000000    0.000000
         0.000000    0.000000    0.000000    0.000000    0.000000
         0.000000    0.000000    0.000000    0.000000    0.000000
         0.000000    0.000000    0.000000    0.000000    0.000000
         0.000000    0.000000    0.000000    0.000000    0.000000
         0.000000    0.000000    0.000000    0.000000    0.000000
         0.000000    0.000000    0.000000    0.000000    0.000000
         0.000000    0.000000    0.000000    0.000000    0.000000

 **** EFFICIENCY NOTE ****
 THE DIRECT MP2 TRANSFORMATION WILL COMPUTE THE AO INTEGRALS ONCE EVERY PASS.
 INCREASING MEMORY TO DECREASE PASSES WILL OBVIOUSLY SAVE CPU TIME.

 MEMORY REQUIREMENTS FOR SEGMENTED MP2 TRANSFORMATION
   MINIMUM=       86245948 WORDS, USING 1 MOLECULAR ORBITAL PER PASS
   MAXIMUM=     1708420348 WORDS, MAKING ONLY 1 INTEGRAL PASS
 CHOOSING THE SEGMENTED MP2 TRANSFORMATION...
   NUMBER OF MOS/PASS =    5
   NUMBER OF PASSES   =    5
   MEMORY USED =       427756348 WORDS.
 DIRECT TRANSFORMATION SKIPS AO INTEGRAL STORAGE ON DISK.
 PASS #   1 TOOK      291.89 SECONDS.
 DIRECT TRANSFORMATION SKIPS AO INTEGRAL STORAGE ON DISK.
 PASS #   2 TOOK      291.71 SECONDS.
 DIRECT TRANSFORMATION SKIPS AO INTEGRAL STORAGE ON DISK.
 PASS #   3 TOOK      291.72 SECONDS.
 DIRECT TRANSFORMATION SKIPS AO INTEGRAL STORAGE ON DISK.
 PASS #   4 TOOK      279.61 SECONDS.
 DIRECT TRANSFORMATION SKIPS AO INTEGRAL STORAGE ON DISK.
 PASS #   5 TOOK      165.88 SECONDS.
 DONE WITH PARTIAL TRANSFORMATION (PQ|RS) TO (IA|JB)

     SINGLE EXCITATION CONTRIBUTION
         ALPHA        -0.0032424632
         BETA         -0.0032755065
     DOUBLE EXCITATION CONTRIBUTION
                      -1.5656589549

 RESULTS OF MOLLER-PLESSET 2ND ORDER CORRECTION ARE
               E(0)=      -450.9495601213
               E(1)=         0.0
               E(2)=        -1.5721769246
             E(MP2)=      -452.5217370459
 ..... DONE WITH MP2 ENERGY .....
 STEP CPU TIME =  1320.81 TOTAL CPU TIME =     2674.8 (   44.6 MIN)
 TOTAL WALL CLOCK TIME=     2675.7 SECONDS, CPU UTILIZATION IS  99.97%
            427800448  WORDS OF DYNAMIC MEMORY USED
 EXECUTION OF GAMESS TERMINATED NORMALLY Wed Aug  9 22:30:48 2017
 DDI: 263640 bytes (0.3 MB / 0 MWords) used by master data server.

 ----------------------------------------
 CPU timing information for all processes
 ========================================
 0: 2674.491 + 0.374 = 2674.866
 ----------------------------------------
 ddikick.x: exited gracefully.
unset echo
----- accounting info -----
Files used on the master node compute-0-1.local were:
-rw-rw-r-- 1 sarom sarom 5.1M Aug  9 21:46 /scratch/serial-rohf-rmp-c4o4.F05
-rw-rw-r-- 1 sarom sarom  24M Aug  9 22:30 /scratch/serial-rohf-rmp-c4o4.F10
rm: No match.
ls: No match.
ls: No match.
ls: No match.
Wed Aug  9 22:30:51 CDT 2017
0.259u 0.174s 44:39.83 0.0%	0+0k 10264+10616io 0pf+0w
/opt/gridengine/default/spool/compute-0-1/active_jobs/36115.1/pe_hostfile compute-0-1.local
