-catch_rsh /opt/gridengine/default/spool/compute-0-5/active_jobs/36123.1/pe_hostfile
compute-0-5
The primary node assigned by SGE to this run is compute-0-5
Warning: no access to tty (Bad file descriptor).
Thus no job control in this shell.
source /home/sarom/dir.git.branch.saromleang-travis-ci/install.info
setenv GMS_PATH /home/sarom/dir.git.branch.saromleang-travis-ci
setenv GMS_BUILD_DIR /home/sarom/dir.git.branch.saromleang-travis-ci
setenv GMS_TARGET linux64
setenv GMS_FORTRAN gfortran
setenv GMS_GFORTRAN_VERNO 4.4
setenv GMS_MATHLIB mkl-so
setenv GMS_MATHLIB none
setenv GMS_MATHLIB_PATH /share/apps/intel/compilers_and_libraries_2017.1.132/linux/mkl/lib/intel64
setenv GMS_MKL_VERNO 12
setenv GMS_DDI_COMM sockets
setenv GMS_LIBCCHEM false
setenv GMS_EIGEN_PATH
setenv GMS_PHI false
setenv GMS_SHMTYPE sysv
setenv GMS_OPENMP false
unset echo
serial-rohf-zapt-hco
/home/sarom/dir.git.branch.saromleang-travis-ci/tests/mp2
----- GAMESS execution script 'rungms' -----
This job is running on host compute-0-5.local
under operating system Linux at Wed Aug 9 21:48:11 CDT 2017
Available scratch disk space (Kbyte units) at beginning of the job is
Filesystem           1K-blocks      Used Available Use% Mounted on
/dev/sda1             16126920   3962036  11345684  26% /
GAMESS temporary binary files will be written to /scratch
GAMESS supplementary output files will be written to /home/sarom/restart
Copying input file serial-rohf-zapt-hco.inp to your run's scratch directory...
cp /home/sarom/dir.git.branch.saromleang-travis-ci/tests/mp2/serial-rohf-zapt-hco.inp /scratch/serial-rohf-zapt-hco.F05
unset echo
The generated host list is
compute-0-5.local
/home/sarom/dir.git.branch.saromleang-travis-ci/ddikick.x /home/sarom/dir.git.branch.saromleang-travis-ci/gamess.00.x serial-rohf-zapt-hco -ddi 1 1 compute-0-5.local -scr /scratch

 Distributed Data Interface kickoff program.
 Initiating 1 compute processes on 1 nodes to run the following command:
 /home/sarom/dir.git.branch.saromleang-travis-ci/gamess.00.x serial-rohf-zapt-hco 

          ******************************************************
          *         GAMESS VERSION = 20 APR 2017 (R1)          *
          *             FROM IOWA STATE UNIVERSITY             *
          * M.W.SCHMIDT, K.K.BALDRIDGE, J.A.BOATZ, S.T.ELBERT, *
          *   M.S.GORDON, J.H.JENSEN, S.KOSEKI, N.MATSUNAGA,   *
          *          K.A.NGUYEN, S.J.SU, T.L.WINDUS,           *
          *       TOGETHER WITH M.DUPUIS, J.A.MONTGOMERY       *
          *         J.COMPUT.CHEM.  14, 1347-1363(1993)        *
          **************** 64 BIT LINUX VERSION ****************

  SINCE 1993, STUDENTS AND POSTDOCS WORKING AT IOWA STATE UNIVERSITY
  AND ALSO IN THEIR VARIOUS JOBS AFTER LEAVING ISU HAVE MADE IMPORTANT
  CONTRIBUTIONS TO THE CODE:
     IVANA ADAMOVIC, CHRISTINE AIKENS, YURI ALEXEEV, POOJA ARORA,
     ANDREY ASADCHEV, ROB BELL, PRADIPTA BANDYOPADHYAY, JONATHAN BENTZ,
     BRETT BODE, KURT BRORSEN, CALEB CARLIN, GALINA CHABAN, WEI CHEN,
     CHEOL HO CHOI, PAUL DAY, ALBERT DEFUSCO, NUWAN DESILVA, TIM DUDLEY,
     DMITRI FEDOROV, GRAHAM FLETCHER, MARK FREITAG, KURT GLAESEMANN,
     DAN KEMP, GRANT MERRILL, NORIYUKI MINEZAWA, JONATHAN MULLIN,
     TAKESHI NAGATA, SEAN NEDD, HEATHER NETZLOFF, BOSILJKA NJEGIC, RYAN OLSON,
     MIKE PAK, SPENCER PRUITT, LUKE ROSKOP, JIM SHOEMAKER, LYUDMILA SLIPCHENKO,
     TONY SMITH, SAROM SOK LEANG, JIE SONG, TETSUYA TAKETSUGU, SIMON WEBB,
     PENG XU, SOOHAENG YOO, FEDERICO ZAHARIEV

  ADDITIONAL CODE HAS BEEN PROVIDED BY COLLABORATORS IN OTHER GROUPS:
     IOWA STATE UNIVERSITY:
          JOE IVANIC, AARON WEST, LAIMUTIS BYTAUTAS, KLAUS RUEDENBERG
     UNIVERSITY OF TOKYO: KIMIHIKO HIRAO, TAKAHITO NAKAJIMA,
          TAKAO TSUNEDA, MUNEAKI KAMIYA, SUSUMU YANAGISAWA,
          KIYOSHI YAGI, MAHITO CHIBA, SEIKEN TOKURA, NAOAKI KAWAKAMI
     UNIVERSITY OF AARHUS: FRANK JENSEN
     UNIVERSITY OF IOWA: VISVALDAS KAIRYS, HUI LI
     NATIONAL INST. OF STANDARDS AND TECHNOLOGY: WALT STEVENS, DAVID GARMER
     UNIVERSITY OF PISA: BENEDETTA MENNUCCI, JACOPO TOMASI
     UNIVERSITY OF MEMPHIS: HENRY KURTZ, PRAKASHAN KORAMBATH
     UNIVERSITY OF ALBERTA: TOBY ZENG, MARIUSZ KLOBUKOWSKI
     UNIVERSITY OF NEW ENGLAND: MARK SPACKMAN
     MIE UNIVERSITY: HIROAKI UMEDA
     NAT. INST. OF ADVANCED INDUSTRIAL SCIENCE AND TECHNOLOGY: KAZUO KITAURA
     MICHIGAN STATE UNIVERSITY:
          KAROL KOWALSKI, MARTA WLOCH, JEFFREY GOUR, JESSE LUTZ,
          WEI LI, PIOTR PIECUCH
     UNIVERSITY OF SILESIA: MONIKA MUSIAL, STANISLAW KUCHARSKI
     FACULTES UNIVERSITAIRES NOTRE-DAME DE LA PAIX:
          OLIVIER QUINET, BENOIT CHAMPAGNE
     UNIVERSITY OF CALIFORNIA - SANTA BARBARA: BERNARD KIRTMAN
     INSTITUTE FOR MOLECULAR SCIENCE:
          KAZUYA ISHIMURA, MICHIO KATOUDA, AND SHIGERU NAGASE
     UNIVERSITY OF NOTRE DAME: ANNA POMOGAEVA, DAN CHIPMAN
     KYUSHU UNIVERSITY:
          HARUYUKI NAKANO,
          FENG LONG GU, JACEK KORCHOWIEC, MARCIN MAKOWSKI, AND YURIKO AOKI,
          HIROTOSHI MORI AND EISAKU MIYOSHI
     PENNSYLVANIA STATE UNIVERSITY:
          TZVETELIN IORDANOV, CHET SWALINA, JONATHAN SKONE,
          SHARON HAMMES-SCHIFFER
     WASEDA UNIVERSITY:
          MASATO KOBAYASHI, TOMOKO AKAMA, TSUGUKI TOUMA,
          TAKESHI YOSHIKAWA, YASUHIRO IKABATA, JUNJI SEINO,
          YUYA NAKAJIMA, HIROMI NAKAI
     NANJING UNIVERSITY: SHUHUA LI
     UNIVERSITY OF NEBRASKA:
          PEIFENG SU, DEJUN SI, NANDUN THELLAMUREGE, YALI WANG, HUI LI
     UNIVERSITY OF ZURICH: ROBERTO PEVERATI, KIM BALDRIDGE
     N. COPERNICUS UNIVERSITY AND JACKSON STATE UNIVERSITY:
          MARIA BARYSZ
     UNIVERSITY OF COPENHAGEN: Jimmy Kromann, CASPER STEINMANN
     TOKYO INSTITUTE OF TECHNOLOGY: HIROYA NAKATA
     NAGOYA UNIVERSITY: YOSHIO NISHIMOTO, STEPHAN IRLE
     MOSCOW STATE UNIVERSITY: VLADIMIR MIRONOV

 EXECUTION OF GAMESS BEGUN Wed Aug  9 21:48:11 2017

            ECHO OF THE FIRST FEW INPUT CARDS -
 INPUT CARD>!  ZAPT test with 3 unpaired electrons                                          
 INPUT CARD>!  The electronic state is 4-A'' (oxygen n->pi* excitation)                     
 INPUT CARD>!  There are 135 AOs, 115 MOs, occupied= 9 alpha and 6 beta.                    
 INPUT CARD>!                                                                               
 INPUT CARD>!  FINAL E= -113.1091649405, E(MP2)=  -113.4074590698, RMS=0.165703093          
 INPUT CARD>!                                                                               
 INPUT CARD>!  This run takes 75 seconds on a 2.66 GHz Cloverton ( 1 Apr 2015)              
 INPUT CARD>!  results have been essentially unchanging since 2010                          
 INPUT CARD>!                                                                               
 INPUT CARD> $contrl scftyp=rohf mult=4 mplevl=2 runtyp=gradient                            
 INPUT CARD>         ispher=1 nzvar=3 coord=zmt $end                                        
 INPUT CARD> $system parall=.true. mwords=1 memddi=5 $end                                   
 INPUT CARD> $mp2    code=serial ospt=zapt $end                                             
 INPUT CARD> $basis  gbasis=acct $end                                                       
 INPUT CARD> $guess  guess=huckel $end                                                      
 INPUT CARD> $data                                                                          
 INPUT CARD>HC=O ... X-2-A' ROHF/6-31G(d) geometry, far from the 4-A'' geometry!            
 INPUT CARD>Cs                                                                              
 INPUT CARD>                                                                                
 INPUT CARD>H                                                                               
 INPUT CARD>C 1 rCH                                                                         
 INPUT CARD>O 2 rCO 1 aHCO                                                                  
 INPUT CARD>                                                                                
 INPUT CARD>rCH=1.1030586                                                                   
 INPUT CARD>rCO=1.1582328                                                                   
 INPUT CARD>aHCO=127.044197                                                                 
 INPUT CARD> $end                                                                           
    1000000 WORDS OF MEMORY AVAILABLE

     BASIS OPTIONS
     -------------
     GBASIS=ACCT         IGAUSS=       0      POLAR=NONE    
     NDFUNC=       0     NFFUNC=       0     DIFFSP=       F
     NPFUNC=       0      DIFFS=       F     BASNAM=        


     RUN TITLE
     ---------
 HC=O ... X-2-A' ROHF/6-31G(d) geometry, far from the 4-A'' geometry!            

 THE POINT GROUP OF THE MOLECULE IS CS      
 THE ORDER OF THE PRINCIPAL AXIS IS     0

 YOUR FULLY SUBSTITUTED Z-MATRIX IS
 H   
 C      1   1.1030586
 O      2   1.1582328  1  127.0442

 THE MOMENTS OF INERTIA ARE (AMU-ANGSTROM**2)
 IXX=     0.629   IYY=    11.034   IZZ=    11.663

 ATOM      ATOMIC                      COORDINATES (BOHR)
           CHARGE         X                   Y                   Z
 H           1.0    -2.5809465804        1.3305431896        0.0000000000
 C           6.0    -1.1500596148       -0.1852447635        0.0000000000
 O           8.0     1.0254423354        0.0551414464        0.0000000000

          INTERNUCLEAR DISTANCES (ANGS.)
          ------------------------------

                1 H          2 C          3 O     

   1 H       0.0000000    1.1030586 *  2.0242459 *
   2 C       1.1030586 *  0.0000000    1.1582328 *
   3 O       2.0242459 *  1.1582328 *  0.0000000  

  * ... LESS THAN  3.000


     ATOMIC BASIS SET
     ----------------
 THE CONTRACTED PRIMITIVE FUNCTIONS HAVE BEEN UNNORMALIZED
 THE CONTRACTED BASIS FUNCTIONS ARE NOW NORMALIZED TO UNITY

  SHELL TYPE  PRIMITIVE        EXPONENT          CONTRACTION COEFFICIENT(S)

 H         

      1   S       1            33.8700000    0.025494863235
      1   S       2             5.0950000    0.190362765893
      1   S       3             1.1590000    0.852162022245

      2   S       4             0.3258000    1.000000000000

      3   S       5             0.1027000    1.000000000000

      4   P       6             1.4070000    1.000000000000

      5   P       7             0.3880000    1.000000000000

      6   D       8             1.0570000    1.000000000000

      7   S       9             0.0252600    1.000000000000

      8   P      10             0.1020000    1.000000000000

      9   D      11             0.2470000    1.000000000000

 C         

     10   S      12          8236.0000000    0.000542430189
     10   S      13          1235.0000000    0.004196427901
     10   S      14           280.8000000    0.021540914108
     10   S      15            79.2700000    0.083614949614
     10   S      16            25.5900000    0.239871618922
     10   S      17             8.9970000    0.443751820060
     10   S      18             3.3190000    0.353579696469
     10   S      19             0.3643000   -0.009176366076

     11   S      20          8236.0000000   -0.000196392234
     11   S      21          1235.0000000   -0.001525950274
     11   S      22           280.8000000   -0.007890449028
     11   S      23            79.2700000   -0.031514870532
     11   S      24            25.5900000   -0.096910008320
     11   S      25             8.9970000   -0.220541526288
     11   S      26             3.3190000   -0.296069112937
     11   S      27             0.3643000    1.040503432950

     12   S      28             0.9059000    1.000000000000

     13   S      29             0.1285000    1.000000000000

     14   P      30            18.7100000    0.039426387165
     14   P      31             4.1330000    0.244088984924
     14   P      32             1.2000000    0.815492008943

     15   P      33             0.3827000    1.000000000000

     16   P      34             0.1209000    1.000000000000

     17   D      35             1.0970000    1.000000000000

     18   D      36             0.3180000    1.000000000000

     19   F      37             0.7610000    1.000000000000

     20   S      38             0.0440200    1.000000000000

     21   P      39             0.0356900    1.000000000000

     22   D      40             0.1000000    1.000000000000

     23   F      41             0.2680000    1.000000000000

 O         

     24   S      42         15330.0000000    0.000520198307
     24   S      43          2299.0000000    0.004023344781
     24   S      44           522.4000000    0.020729083329
     24   S      45           147.3000000    0.081082327080
     24   S      46            47.5500000    0.236226352118
     24   S      47            16.7600000    0.443518209420
     24   S      48             6.2070000    0.358670588689
     24   S      49             0.6882000   -0.008349797237

     25   S      50         15330.0000000   -0.000197236012
     25   S      51          2299.0000000   -0.001535010700
     25   S      52           522.4000000   -0.007951183914
     25   S      53           147.3000000   -0.032113452892
     25   S      54            47.5500000   -0.100269643049
     25   S      55            16.7600000   -0.234047111838
     25   S      56             6.2070000   -0.301410927756
     25   S      57             0.6882000    1.034919649508

     26   S      58             1.7520000    1.000000000000

     27   S      59             0.2384000    1.000000000000

     28   P      60            34.4600000    0.041163489568
     28   P      61             7.7490000    0.257762835858
     28   P      62             2.2800000    0.802419274427

     29   P      63             0.7156000    1.000000000000

     30   P      64             0.2140000    1.000000000000

     31   D      65             2.3140000    1.000000000000

     32   D      66             0.6450000    1.000000000000

     33   F      67             1.4280000    1.000000000000

     34   S      68             0.0737600    1.000000000000

     35   P      69             0.0597400    1.000000000000

     36   D      70             0.2140000    1.000000000000

     37   F      71             0.5000000    1.000000000000

 TOTAL NUMBER OF BASIS SET SHELLS             =   37
 NUMBER OF CARTESIAN GAUSSIAN BASIS FUNCTIONS =  135
 NOTE: THIS RUN WILL RESTRICT THE MO VARIATION SPACE TO SPHERICAL HARMONICS.
 THE NUMBER OF ORBITALS KEPT IN THE VARIATIONAL SPACE WILL BE PRINTED LATER.
 NUMBER OF ELECTRONS                          =   15
 CHARGE OF MOLECULE                           =    0
 SPIN MULTIPLICITY                            =    4
 NUMBER OF OCCUPIED ORBITALS (ALPHA)          =    9
 NUMBER OF OCCUPIED ORBITALS (BETA )          =    6
 TOTAL NUMBER OF ATOMS                        =    3
 THE NUCLEAR REPULSION ENERGY IS       26.9001728806

     $CONTRL OPTIONS
     ---------------
 SCFTYP=ROHF         RUNTYP=GRADIENT     EXETYP=RUN     
 MPLEVL=       2     CITYP =NONE         CCTYP =NONE         VBTYP =NONE    
 DFTTYP=NONE         TDDFT =NONE    
 MULT  =       4     ICHARG=       0     NZVAR =       3     COORD =ZMT     
 PP    =NONE         RELWFN=NONE         LOCAL =NONE         NUMGRD=       F
 ISPHER=       1     NOSYM =       0     MAXIT =      30     UNITS =ANGS    
 PLTORB=       F     MOLPLT=       F     AIMPAC=       F     FRIEND=        
 NPRINT=       7     IREST =       0     GEOM  =INPUT   
 NORMF =       0     NORMP =       0     ITOL  =      20     ICUT  =       9
 INTTYP=BEST         GRDTYP=BEST         QMTTOL= 1.0E-06

     $SYSTEM OPTIONS
     ---------------
  REPLICATED MEMORY=     1000000 WORDS (ON EVERY NODE).
 DISTRIBUTED MEMDDI=           5 MILLION WORDS IN AGGREGATE,
 MEMDDI DISTRIBUTED OVER   1 PROCESSORS IS     5000000 WORDS/PROCESSOR.
 TOTAL MEMORY REQUESTED ON EACH PROCESSOR=     6000000 WORDS.
 TIMLIM=      525600.00 MINUTES, OR     365.0 DAYS.
 PARALL= T  BALTYP=  DLB     KDIAG=    0  COREFL= F
 MXSEQ2=     300 MXSEQ3=     150  mem10=         0

          ----------------
          PROPERTIES INPUT
          ----------------

     MOMENTS            FIELD           POTENTIAL          DENSITY
 IEMOM =       1   IEFLD =       0   IEPOT =       0   IEDEN =       0
 WHERE =COMASS     WHERE =NUCLEI     WHERE =NUCLEI     WHERE =NUCLEI  
 OUTPUT=BOTH       OUTPUT=BOTH       OUTPUT=BOTH       OUTPUT=BOTH    
 IEMINT=       0   IEFINT=       0                     IEDINT=       0
                                                       MORB  =       0
          EXTRAPOLATION IN EFFECT
          SOSCF IN EFFECT
 ORBITAL PRINTING OPTION: NPREO=     1   135     2     1

     -------------------------------
     INTEGRAL TRANSFORMATION OPTIONS
     -------------------------------
     NWORD  =            0
     CUTOFF = 1.0E-09     MPTRAN =       0
     DIRTRF =       F     AOINTS =DUP     

          ----------------------
          INTEGRAL INPUT OPTIONS
          ----------------------
 NOPK  =       1 NORDER=       0 SCHWRZ=       F

          -----------------------
          MP2 CONTROL INFORMATION
          -----------------------
          NACORE =        2  NBCORE =        2
          LMOMP2 =        F  AOINTS = DUP     
          METHOD =        2  NWORD  =               0
          MP2PRP =        F  OSPT   = ZAPT    
          CUTOFF = 1.00E-09  CPHFBS = BASISAO 
          CODE   = SERIAL  

          NUMBER OF CORE -A-  ORBITALS =     2
          NUMBER OF CORE -B-  ORBITALS =     2
          NUMBER OF OCC. -A-  ORBITALS =     9
          NUMBER OF OCC. -B-  ORBITALS =     6
          NUMBER OF MOLECULAR ORBITALS =   135
          NUMBER OF   BASIS  FUNCTIONS =   135


   --- ENCODED Z MATRIX ---
 COORD  TYPE   I   J   K   L   M   N
    1      1    2   1
    2      1    3   2
    3      2    3   2   1

 THE DETERMINANT OF THE G MATRIX IS 10**(    -2)


                     --------------------
                     INTERNAL COORDINATES
                     --------------------

                 - - ATOMS - -         COORDINATE      COORDINATE
 NO.   TYPE    I  J  K  L  M  N        (BOHR,RAD)       (ANG,DEG)
 ----------------------------------------------------------------
   1 STRETCH   2  1                     2.0844785       1.1030586
   2 STRETCH   3  2                     2.1887426       1.1582328
   3 BEND      3  2  1                  2.2173395     127.0441970

     ------------------------------------------
     THE POINT GROUP IS CS , NAXIS= 0, ORDER= 2
     ------------------------------------------

 -- VARIATIONAL SPACE WILL BE RESTRICTED TO PURE SPHERICAL HARMONICS ONLY --
 AFTER EXCLUDING CONTAMINANT COMBINATIONS FROM THE CARTESIAN GAUSSIAN BASIS
 SET, THE NUMBER OF SPHERICAL HARMONICS KEPT IN THE VARIATION SPACE IS  115

     DIMENSIONS OF THE SYMMETRY SUBSPACES ARE
 A'  =   76     A'' =   39

 ..... DONE SETTING UP THE RUN .....
 CPU     0: STEP CPU TIME=     0.03 TOTAL CPU TIME=        0.0 (    0.0 MIN)
 TOTAL WALL CLOCK TIME=        0.0 SECONDS, CPU UTILIZATION IS  75.00%

                    --------------------------------
                    SINGLE POINT ENERGY AND GRADIENT
                    --------------------------------

          ********************
          1 ELECTRON INTEGRALS
          ********************
 ...... END OF ONE-ELECTRON INTEGRALS ......
 CPU     0: STEP CPU TIME=     0.00 TOTAL CPU TIME=        0.0 (    0.0 MIN)
 TOTAL WALL CLOCK TIME=        0.0 SECONDS, CPU UTILIZATION IS  75.00%

          -------------
          GUESS OPTIONS
          -------------
          GUESS =HUCKEL            NORB  =       0          NORDER=       0
          MIX   =       F          PRTMO =       F          PUNMO =       F
          TOLZ  = 1.0E-08          TOLE  = 1.0E-05
          SYMDEN=       F          PURIFY=       F

 INITIAL GUESS ORBITALS GENERATED BY HUCKEL   ROUTINE.
 HUCKEL GUESS REQUIRES    133344 WORDS.

 STATISTICS FOR GENERATION OF SYMMETRY ORBITAL -Q- MATRIX
 NUMBER OF CARTESIAN ATOMIC ORBITALS=        135
 NUMBER OF SPHERICAL CONTAMINANTS DROPPED=    20
 NUMBER OF LINEARLY DEPENDENT MOS DROPPED=     0
 TOTAL NUMBER OF MOS IN VARIATION SPACE=     115

 SYMMETRIES FOR INITIAL GUESS ORBITALS FOLLOW.  ALPHA SET(S).
     9 ORBITALS ARE OCCUPIED (    2 CORE ORBITALS).
     3=A'       4=A'       5=A'       6=A''      7=A'       8=A'       9=A'' 
    10=A'      11=A'      12=A'      13=A'      14=A'      15=A'      16=A'  
    17=A'      18=A'      19=A'  

 SYMMETRIES FOR INITIAL GUESS ORBITALS FOLLOW.   BETA SET(S).
     6 ORBITALS ARE OCCUPIED (    2 CORE ORBITALS).
     3=A'       4=A'       5=A'       6=A''      7=A'       8=A'       9=A'' 
    10=A'      11=A'      12=A'      13=A'      14=A'      15=A'      16=A'  
 ...... END OF INITIAL ORBITAL SELECTION ......
 CPU     0: STEP CPU TIME=     0.02 TOTAL CPU TIME=        0.0 (    0.0 MIN)
 TOTAL WALL CLOCK TIME=        0.1 SECONDS, CPU UTILIZATION IS  83.33%

                    ----------------------
                    AO INTEGRAL TECHNOLOGY
                    ----------------------
     S,P,L SHELL ROTATED AXIS INTEGRALS, REPROGRAMMED BY
        KAZUYA ISHIMURA (IMS) AND JOSE SIERRA (SYNSTAR).
     S,P,D,L SHELL ROTATED AXIS INTEGRALS PROGRAMMED BY
        KAZUYA ISHIMURA (INSTITUTE FOR MOLECULAR SCIENCE).
     S,P,D,F,G SHELL TO TOTAL QUARTET ANGULAR MOMENTUM SUM 5,
        ERIC PROGRAM BY GRAHAM FLETCHER (ELORET AND NASA ADVANCED
        SUPERCOMPUTING DIVISION, AMES RESEARCH CENTER).
     S,P,D,F,G,L SHELL GENERAL RYS QUADRATURE PROGRAMMED BY
        MICHEL DUPUIS (PACIFIC NORTHWEST NATIONAL LABORATORY).

          --------------------
          2 ELECTRON INTEGRALS
          --------------------

 THE -PK- OPTION IS OFF, THE INTEGRALS ARE NOT IN SUPERMATRIX FORM.
 STORING   15000 INTEGRALS/RECORD ON DISK, USING 12 BYTES/INTEGRAL.
 TWO ELECTRON INTEGRAL EVALUATION REQUIRES   99803 WORDS OF MEMORY.
 II,JST,KST,LST =  1  1  1  1 NREC =         1 INTLOC =    1
 II,JST,KST,LST =  2  1  1  1 NREC =         1 INTLOC =    2
 II,JST,KST,LST =  3  1  1  1 NREC =         1 INTLOC =    7
 II,JST,KST,LST =  4  1  1  1 NREC =         1 INTLOC =   22
 II,JST,KST,LST =  5  1  1  1 NREC =         1 INTLOC =   67
 II,JST,KST,LST =  6  1  1  1 NREC =         1 INTLOC =  214
 II,JST,KST,LST =  7  1  1  1 NREC =         1 INTLOC = 1189
 II,JST,KST,LST =  8  1  1  1 NREC =         1 INTLOC = 1589
 II,JST,KST,LST =  9  1  1  1 NREC =         1 INTLOC = 2864
 II,JST,KST,LST = 10  1  1  1 NREC =         1 INTLOC = 7967
 II,JST,KST,LST = 11  1  1  1 NREC =         1 INTLOC =12848
 II,JST,KST,LST = 12  1  1  1 NREC =         2 INTLOC = 3377
 II,JST,KST,LST = 13  1  1  1 NREC =         2 INTLOC = 9614
 II,JST,KST,LST = 14  1  1  1 NREC =         3 INTLOC = 1622
 II,JST,KST,LST = 15  1  1  1 NREC =         4 INTLOC =10060
 II,JST,KST,LST = 16  1  1  1 NREC =         6 INTLOC =10579
 II,JST,KST,LST = 17  1  1  1 NREC =         9 INTLOC = 4316
 II,JST,KST,LST = 18  1  1  1 NREC =        16 INTLOC = 6025
 II,JST,KST,LST = 19  1  1  1 NREC =        26 INTLOC = 9997
 II,JST,KST,LST = 20  1  1  1 NREC =        52 INTLOC = 3539
 II,JST,KST,LST = 21  1  1  1 NREC =        55 INTLOC =10538
 II,JST,KST,LST = 22  1  1  1 NREC =        66 INTLOC = 6939
 II,JST,KST,LST = 23  1  1  1 NREC =        92 INTLOC = 3362
 II,JST,KST,LST = 24  1  1  1 NREC =       148 INTLOC =14213
 II,JST,KST,LST = 25  1  1  1 NREC =       158 INTLOC = 4793
 II,JST,KST,LST = 26  1  1  1 NREC =       168 INTLOC = 1267
 II,JST,KST,LST = 27  1  1  1 NREC =       178 INTLOC = 3581
 II,JST,KST,LST = 28  1  1  1 NREC =       188 INTLOC =12050
 II,JST,KST,LST = 29  1  1  1 NREC =       221 INTLOC = 5112
 II,JST,KST,LST = 30  1  1  1 NREC =       257 INTLOC = 6119
 II,JST,KST,LST = 31  1  1  1 NREC =       297 INTLOC = 2936
 II,JST,KST,LST = 32  1  1  1 NREC =       388 INTLOC =11112
 II,JST,KST,LST = 33  1  1  1 NREC =       498 INTLOC =  279
 II,JST,KST,LST = 34  1  1  1 NREC =       722 INTLOC = 6385
 II,JST,KST,LST = 35  1  1  1 NREC =       749 INTLOC = 4846
 II,JST,KST,LST = 36  1  1  1 NREC =       831 INTLOC =  397
 II,JST,KST,LST = 37  1  1  1 NREC =      1012 INTLOC =10439
 TOTAL NUMBER OF NONZERO TWO-ELECTRON INTEGRALS =            20556730
       1371 INTEGRAL RECORDS WERE STORED ON DISK FILE  8.
  ...... END OF TWO-ELECTRON INTEGRALS .....
 CPU     0: STEP CPU TIME=     1.44 TOTAL CPU TIME=        1.5 (    0.0 MIN)
 TOTAL WALL CLOCK TIME=        1.5 SECONDS, CPU UTILIZATION IS  99.33%

          ---------------------------
                 ROHF SCF CALCULATION
          ---------------------------

     NUCLEAR ENERGY =        26.9001728806
     MAXIT = 30     NPUNCH=  2     MULT=  4
     EXTRAP=T  DAMP=F  SHIFT=F  RSTRCT=F  DIIS=F  SOSCF=T
     DENSITY MATRIX CONV=  1.00E-06
     ROHF CANONICALIZATION PARAMETERS
             C-C     O-O     V-V
     ALPHA -0.5000  0.5000  1.5000
     BETA   1.5000  0.5000 -0.5000
     SOSCF WILL OPTIMIZE     972 ORBITAL ROTATION ANGLES. SOGTOL= 2.500E-01
     MEMORY REQUIRED FOR UHF/ROHF ITERS=    201546 WORDS.

 ITER EX      TOTAL ENERGY        E CHANGE  DENSITY CHANGE    ORB. GRAD 
   1  0     -112.5730928595  -112.5730928595   0.818309015   0.000000000
   2  1     -112.6360660211    -0.0629731615   0.602620393   0.306588549
   3  2     -111.2500285360     1.3860374850   1.023811180   0.593495406
   4  3     -109.6578935393     1.5921349967   0.983493993   0.453649001
   5  4     -102.9166978229     6.7411957164   1.271183021   0.709963361
   6  0     -101.6120508650     1.3046469579   0.790544329   0.939173841
          ---------------START SECOND ORDER SCF---------------
   7  1     -112.3196963228   -10.7076454578   0.473025905   0.248564305
   8  2     -112.4256806564    -0.1059843336   0.285357830   0.240464272
   9  3     -112.9338431509    -0.5081624945   0.098023100   0.083511031
  10  4     -113.0029281277    -0.0690849768   0.077000444   0.078184683
  11  5     -113.0487793221    -0.0458511944   0.094354303   0.042992950
  12  6     -113.0680833369    -0.0193040148   0.062653913   0.061607857
  13  7     -113.0965474448    -0.0284641079   0.026028205   0.023199534
  14  8     -113.1066418121    -0.0100943673   0.012694798   0.010852740
  15  9     -113.1085477097    -0.0019058976   0.009347657   0.007486961
  16 10     -113.1089861185    -0.0004384088   0.005974311   0.002992616
  17 11     -113.1091437969    -0.0001576784   0.001839877   0.000893719
  18 12     -113.1091623047    -0.0000185078   0.000576090   0.000442110
  19 13     -113.1091647445    -0.0000024398   0.000137268   0.000116630
  20 14     -113.1091649244    -0.0000001799   0.000060790   0.000036628
  21 15     -113.1091649393    -0.0000000148   0.000033360   0.000006052
  22 16     -113.1091649404    -0.0000000011   0.000016611   0.000001710
  23 17     -113.1091649405    -0.0000000001   0.000002243   0.000000660
  24 18     -113.1091649405    -0.0000000000   0.000000871   0.000000137
  25 19     -113.1091649405    -0.0000000000   0.000000428   0.000000046

          -----------------
          DENSITY CONVERGED
          -----------------
     TIME TO FORM FOCK OPERATORS=       7.8 SECONDS (       0.3 SEC/ITER)
     TIME TO SOLVE SCF EQUATIONS=       0.1 SECONDS (       0.0 SEC/ITER)

 THE CONVERGED ORBITALS WILL UNDERGO GUEST/SAUNDERS
 CANONICALIZATION FOR ZAPT PERTURBATION THEORY.

 FINAL ROHF ENERGY IS     -113.1091649405 AFTER  25 ITERATIONS

          --------------------
          SPIN SZ   =    1.500
          S-SQUARED =    3.750
          --------------------

          ------------
          EIGENVECTORS
          ------------

                      1          2          3          4          5
                  -20.6579   -11.2834    -1.4927    -0.8239    -0.6948
                     A'         A'         A'         A'         A'  
    1  H  1  S    0.000035   0.000315   0.011054   0.096631   0.149870
    2  H  1  S    0.001028  -0.002896  -0.045602   0.093529   0.200847
    3  H  1  S    0.000516  -0.012971  -0.067891  -0.037217   0.004813
    4  H  1  X    0.000058  -0.000233  -0.000083   0.006286   0.010116
    5  H  1  Y   -0.000043   0.000258   0.000680  -0.005692  -0.010575
    6  H  1  Z   -0.000000  -0.000000  -0.000000  -0.000000  -0.000000
    7  H  1  X    0.000446  -0.001095  -0.019024  -0.005242   0.009299
    8  H  1  Y   -0.000364   0.000896   0.020926   0.005290  -0.008661
    9  H  1  Z   -0.000000  -0.000000  -0.000000  -0.000000  -0.000000
   10  H  1 XX   -0.000006  -0.000078  -0.000016   0.000660   0.001067
   11  H  1 YY   -0.000001  -0.000084  -0.000880   0.000380   0.000934
   12  H  1 ZZ    0.000007   0.000162   0.000896  -0.001040  -0.002001
   13  H  1 XY   -0.000050   0.000337   0.002547  -0.000732  -0.003924
   14  H  1 XZ   -0.000000  -0.000000  -0.000000  -0.000000  -0.000000
   15  H  1 YZ   -0.000000  -0.000000  -0.000000  -0.000000  -0.000000
   16  H  1  S   -0.000021  -0.000837  -0.004721  -0.004215  -0.003192
   17  H  1  X   -0.000020  -0.002646  -0.018741  -0.011947  -0.001282
   18  H  1  Y   -0.000314   0.002364   0.014197   0.018523   0.010527
   19  H  1  Z   -0.000000  -0.000000  -0.000000  -0.000000  -0.000000
   20  H  1 XX    0.000065  -0.000231  -0.002842  -0.002678   0.001798
   21  H  1 YY    0.000091   0.000080  -0.001487  -0.001337   0.000032
   22  H  1 ZZ   -0.000157   0.000151   0.004329   0.004015  -0.001830
   23  H  1 XY    0.000027   0.000135   0.006252   0.002019   0.001935
   24  H  1 XZ   -0.000000  -0.000000  -0.000000  -0.000000  -0.000000
   25  H  1 YZ   -0.000000  -0.000000  -0.000000  -0.000000  -0.000000
   26  C  2  S    0.000374   0.978458  -0.017328  -0.005978  -0.000053
   27  C  2  S    0.000935   0.001821   0.223295   0.347105   0.104766
   28  C  2  S    0.000212   0.042740   0.045389   0.074385   0.020638
   29  C  2  S   -0.000547   0.016116   0.097138   0.217692   0.154610
   30  C  2  X    0.000327   0.002202   0.108680   0.016847  -0.196138
   31  C  2  Y    0.000043   0.000434   0.015197   0.065380   0.100772
   32  C  2  Z   -0.000000  -0.000000  -0.000000  -0.000000  -0.000000
   33  C  2  X    0.002477   0.000105   0.076478   0.012138  -0.222483
   34  C  2  Y   -0.000250   0.002705   0.042522   0.098628   0.126482
   35  C  2  Z   -0.000000  -0.000000  -0.000000  -0.000000  -0.000000
   36  C  2  X    0.000368  -0.004511  -0.030462  -0.029057  -0.082301
   37  C  2  Y    0.000149   0.005363   0.022973   0.053565   0.070193
   38  C  2  Z   -0.000000  -0.000000  -0.000000  -0.000000  -0.000000
   39  C  2 XX    0.000374   0.001217   0.023566   0.011247  -0.016746
   40  C  2 YY   -0.000200  -0.000480  -0.010475  -0.001483   0.013632
   41  C  2 ZZ   -0.000175  -0.000737  -0.013091  -0.009764   0.003114
   42  C  2 XY    0.000097  -0.000158   0.002279  -0.004813  -0.008587
   43  C  2 XZ   -0.000000  -0.000000  -0.000000  -0.000000  -0.000000
   44  C  2 YZ   -0.000000  -0.000000  -0.000000  -0.000000  -0.000000
   45  C  2 XX    0.001118  -0.000645   0.020415   0.010011  -0.014590
   46  C  2 YY   -0.000741   0.000822  -0.002933   0.006521   0.015855
   47  C  2 ZZ   -0.000377  -0.000177  -0.017481  -0.016532  -0.001265
   48  C  2 XY    0.000695  -0.000196  -0.014398  -0.021739  -0.018599
   49  C  2 XZ   -0.000000  -0.000000  -0.000000  -0.000000  -0.000000
   50  C  2 YZ   -0.000000  -0.000000  -0.000000  -0.000000  -0.000000
   51  C  2 XXX  -0.000034   0.000629   0.009144   0.005902  -0.007095
   52  C  2 YYY   0.000026  -0.000193  -0.001866  -0.000934   0.000096
   53  C  2 ZZZ  -0.000000  -0.000000  -0.000000  -0.000000  -0.000000
   54  C  2 XXY  -0.000071   0.000517   0.004836   0.003887   0.001553
   55  C  2 XXZ  -0.000000  -0.000000  -0.000000  -0.000000  -0.000000
   56  C  2 YYX   0.000073  -0.000656  -0.007808  -0.005544   0.003452
   57  C  2 YYZ  -0.000000  -0.000000  -0.000000  -0.000000  -0.000000
   58  C  2 ZZX  -0.000028  -0.000188  -0.004460  -0.002375   0.006067
   59  C  2 ZZY   0.000036  -0.000259  -0.002332  -0.002633  -0.001681
   60  C  2 XYZ  -0.000000  -0.000000  -0.000000  -0.000000  -0.000000
   61  C  2  S    0.000246   0.003048   0.011054   0.015652   0.014694
   62  C  2  X    0.000069  -0.000287  -0.003535  -0.002723  -0.002465
   63  C  2  Y    0.000065   0.000425   0.001132   0.001926   0.001732
   64  C  2  Z   -0.000000  -0.000000  -0.000000  -0.000000  -0.000000
   65  C  2 XX   -0.000224  -0.000309  -0.010292   0.001556   0.006191
   66  C  2 YY    0.000144   0.000657   0.006841   0.000452  -0.000113
   67  C  2 ZZ    0.000081  -0.000348   0.003451  -0.002007  -0.006078
   68  C  2 XY    0.000057  -0.000726  -0.006444  -0.010383  -0.018269
   69  C  2 XZ   -0.000000  -0.000000  -0.000000  -0.000000  -0.000000
   70  C  2 YZ   -0.000000  -0.000000  -0.000000  -0.000000  -0.000000
   71  C  2 XXX   0.000518  -0.000494  -0.000073  -0.001586   0.005746
   72  C  2 YYY  -0.000213   0.000010   0.001322   0.003768  -0.000718
   73  C  2 ZZZ  -0.000000  -0.000000  -0.000000  -0.000000  -0.000000
   74  C  2 XXY   0.000275   0.000114  -0.000277  -0.002661   0.003179
   75  C  2 XXZ  -0.000000  -0.000000  -0.000000  -0.000000  -0.000000
   76  C  2 YYX  -0.000311   0.000286  -0.002610  -0.001703  -0.007349
   77  C  2 YYZ  -0.000000  -0.000000  -0.000000  -0.000000  -0.000000
   78  C  2 ZZX  -0.000385   0.000377   0.002708   0.003831  -0.000360
   79  C  2 ZZY   0.000011  -0.000128  -0.001496  -0.002394  -0.002216
   80  C  2 XYZ  -0.000000  -0.000000  -0.000000  -0.000000  -0.000000
   81  O  3  S    0.974759  -0.000095  -0.007097  -0.004728   0.002510
   82  O  3  S   -0.002413   0.000885   0.489353  -0.257699   0.069673
   83  O  3  S    0.043973   0.000402   0.126948  -0.072870   0.020661
   84  O  3  S    0.001937  -0.001445   0.235311  -0.299532   0.127529
   85  O  3  X   -0.002039  -0.000614  -0.088028  -0.227877   0.199392
   86  O  3  Y   -0.000242  -0.000139  -0.010678  -0.032229   0.075889
   87  O  3  Z   -0.000000  -0.000000  -0.000000  -0.000000  -0.000000
   88  O  3  X    0.002171   0.000310  -0.113662  -0.275014   0.244046
   89  O  3  Y    0.000280  -0.000219  -0.013510  -0.038739   0.095695
   90  O  3  Z   -0.000000  -0.000000  -0.000000  -0.000000  -0.000000
   91  O  3  X   -0.000132   0.002628  -0.004621  -0.120271   0.121640
   92  O  3  Y   -0.000385  -0.001270   0.003835  -0.018856   0.050601
   93  O  3  Z   -0.000000  -0.000000  -0.000000  -0.000000  -0.000000
   94  O  3 XX    0.000233   0.000156   0.008968   0.009942  -0.008058
   95  O  3 YY   -0.000211  -0.000089  -0.004831  -0.004889   0.003604
   96  O  3 ZZ   -0.000022  -0.000067  -0.004137  -0.005053   0.004455
   97  O  3 XY    0.000091   0.000003   0.001831   0.000622  -0.005419
   98  O  3 XZ   -0.000000  -0.000000  -0.000000  -0.000000  -0.000000
   99  O  3 YZ   -0.000000  -0.000000  -0.000000  -0.000000  -0.000000
  100  O  3 XX   -0.000651  -0.001062   0.022040   0.019221  -0.017232
  101  O  3 YY    0.000200   0.000566  -0.011298  -0.009912   0.008101
  102  O  3 ZZ    0.000451   0.000495  -0.010743  -0.009310   0.009132
  103  O  3 XY   -0.000063   0.000099   0.005119   0.000835  -0.013946
  104  O  3 XZ   -0.000000  -0.000000  -0.000000  -0.000000  -0.000000
  105  O  3 YZ   -0.000000  -0.000000  -0.000000  -0.000000  -0.000000
  106  O  3 XXX   0.000009  -0.000115  -0.004411  -0.003274   0.002407
  107  O  3 YYY  -0.000004   0.000005   0.000605  -0.000397  -0.000996
  108  O  3 ZZZ  -0.000000  -0.000000  -0.000000  -0.000000  -0.000000
  109  O  3 XXY   0.000006  -0.000013  -0.001152   0.000516   0.002496
  110  O  3 XXZ  -0.000000  -0.000000  -0.000000  -0.000000  -0.000000
  111  O  3 YYX   0.000014   0.000066   0.002417   0.001168  -0.000569
  112  O  3 YYZ  -0.000000  -0.000000  -0.000000  -0.000000  -0.000000
  113  O  3 ZZX  -0.000026   0.000087   0.003501   0.003224  -0.002661
  114  O  3 ZZY  -0.000000   0.000007   0.000340   0.000017  -0.001160
  115  O  3 XYZ  -0.000000  -0.000000  -0.000000  -0.000000  -0.000000
  116  O  3  S   -0.000593  -0.001518  -0.001418  -0.039839   0.030672
  117  O  3  X    0.000081   0.000461   0.007740   0.001845   0.000770
  118  O  3  Y   -0.000063   0.000023   0.002686  -0.000962   0.001653
  119  O  3  Z   -0.000000  -0.000000  -0.000000  -0.000000  -0.000000
  120  O  3 XX    0.000102  -0.001080  -0.008413   0.000458   0.000052
  121  O  3 YY    0.000002   0.000548   0.002290  -0.000444   0.000070
  122  O  3 ZZ   -0.000104   0.000531   0.006122  -0.000013  -0.000122
  123  O  3 XY    0.000189   0.000491  -0.003715  -0.005117  -0.004604
  124  O  3 XZ   -0.000000  -0.000000  -0.000000  -0.000000  -0.000000
  125  O  3 YZ   -0.000000  -0.000000  -0.000000  -0.000000  -0.000000
  126  O  3 XXX   0.000140   0.000780  -0.003036  -0.001402   0.002706
  127  O  3 YYY  -0.000007   0.000004   0.000632  -0.000493  -0.001024
  128  O  3 ZZZ  -0.000000  -0.000000  -0.000000  -0.000000  -0.000000
  129  O  3 XXY   0.000030  -0.000036  -0.001669   0.000151   0.002102
  130  O  3 XXZ  -0.000000  -0.000000  -0.000000  -0.000000  -0.000000
  131  O  3 YYX  -0.000106  -0.000558   0.001813   0.000629  -0.001313
  132  O  3 YYZ  -0.000000  -0.000000  -0.000000  -0.000000  -0.000000
  133  O  3 ZZX  -0.000082  -0.000489   0.002260   0.001252  -0.002318
  134  O  3 ZZY  -0.000021   0.000030   0.000821   0.000511  -0.000729
  135  O  3 XYZ  -0.000000  -0.000000  -0.000000  -0.000000  -0.000000

                      6          7          8          9         10
                   -0.6637    -0.3828    -0.0979    -0.0364     0.0330
                     A''        A'         A'         A''        A'  
    1  H  1  S   -0.000000  -0.013520   0.079127  -0.000000   0.013426
    2  H  1  S   -0.000000  -0.037784   0.122279  -0.000000  -0.306772
    3  H  1  S   -0.000000   0.032456   0.081365  -0.000000  -2.804637
    4  H  1  X   -0.000000   0.001339   0.004380  -0.000000   0.001817
    5  H  1  Y   -0.000000   0.002926   0.000657  -0.000000  -0.003258
    6  H  1  Z    0.001666   0.000000  -0.000000   0.008780  -0.000000
    7  H  1  X   -0.000000  -0.006614  -0.007316  -0.000000  -0.066472
    8  H  1  Y   -0.000000   0.017778   0.018504  -0.000000   0.087158
    9  H  1  Z    0.002449   0.000000  -0.000000   0.026267  -0.000000
   10  H  1 XX   -0.000000   0.002214   0.000877  -0.000000  -0.001262
   11  H  1 YY   -0.000000  -0.002190  -0.001092  -0.000000  -0.001425
   12  H  1 ZZ   -0.000000  -0.000024   0.000216  -0.000000   0.002687
   13  H  1 XY   -0.000000   0.000130   0.000758  -0.000000   0.003905
   14  H  1 XZ    0.000695   0.000000  -0.000000   0.002084  -0.000000
   15  H  1 YZ   -0.000149   0.000000  -0.000000  -0.002823  -0.000000
   16  H  1  S   -0.000000  -0.004413  -0.001398  -0.000000  -3.249052
   17  H  1  X   -0.000000   0.022533  -0.009937  -0.000000  -0.460167
   18  H  1  Y   -0.000000   0.001899   0.004556  -0.000000   0.481335
   19  H  1  Z   -0.009628   0.000000  -0.000000   0.013616  -0.000000
   20  H  1 XX   -0.000000  -0.001948   0.000260  -0.000000   0.011270
   21  H  1 YY   -0.000000  -0.002329  -0.002283  -0.000000  -0.012288
   22  H  1 ZZ   -0.000000   0.004276   0.002023  -0.000000   0.001018
   23  H  1 XY   -0.000000   0.003514   0.006459  -0.000000   0.005440
   24  H  1 XZ    0.000078   0.000000  -0.000000   0.001579  -0.000000
   25  H  1 YZ    0.002329   0.000000  -0.000000  -0.002469  -0.000000
   26  C  2  S   -0.000000  -0.004260  -0.006808  -0.000000   0.003957
   27  C  2  S   -0.000000  -0.158427  -0.248795  -0.000000   0.052391
   28  C  2  S   -0.000000  -0.039932  -0.060024  -0.000000   0.004049
   29  C  2  S   -0.000000  -0.149336  -0.267542  -0.000000   2.263378
   30  C  2  X   -0.000000   0.078992   0.075013  -0.000000  -0.023561
   31  C  2  Y   -0.000000   0.148278   0.228214  -0.000000   0.006176
   32  C  2  Z    0.122614   0.000000  -0.000000   0.320836  -0.000000
   33  C  2  X   -0.000000   0.082388   0.092407  -0.000000  -0.036074
   34  C  2  Y   -0.000000   0.198831   0.352728  -0.000000   0.095050
   35  C  2  Z    0.147587   0.000000  -0.000000   0.469644  -0.000000
   36  C  2  X   -0.000000   0.055732   0.042699  -0.000000  -0.603509
   37  C  2  Y   -0.000000   0.016003   0.238347  -0.000000   0.947301
   38  C  2  Z    0.035446   0.000000  -0.000000   0.390943  -0.000000
   39  C  2 XX   -0.000000   0.007025   0.017914  -0.000000   0.000168
   40  C  2 YY   -0.000000  -0.002947  -0.008227  -0.000000   0.000347
   41  C  2 ZZ   -0.000000  -0.004079  -0.009687  -0.000000  -0.000515
   42  C  2 XY   -0.000000   0.016974  -0.021460  -0.000000  -0.001648
   43  C  2 XZ    0.022998   0.000000  -0.000000  -0.013391  -0.000000
   44  C  2 YZ    0.002987   0.000000  -0.000000  -0.006105  -0.000000
   45  C  2 XX   -0.000000   0.017722   0.031401  -0.000000   0.054473
   46  C  2 YY   -0.000000  -0.007593  -0.012931  -0.000000   0.013498
   47  C  2 ZZ   -0.000000  -0.010129  -0.018470  -0.000000  -0.067971
   48  C  2 XY   -0.000000   0.002857  -0.055938  -0.000000  -0.058509
   49  C  2 XZ    0.027707   0.000000  -0.000000  -0.046747  -0.000000
   50  C  2 YZ    0.004820   0.000000  -0.000000  -0.017204  -0.000000
   51  C  2 XXX  -0.000000  -0.000928   0.002301  -0.000000   0.002927
   52  C  2 YYY  -0.000000  -0.003720   0.003399  -0.000000  -0.001113
   53  C  2 ZZZ  -0.006321   0.000000  -0.000000   0.000907  -0.000000
   54  C  2 XXY  -0.000000   0.007687  -0.003818  -0.000000   0.003177
   55  C  2 XXZ   0.009875   0.000000  -0.000000  -0.004068  -0.000000
   56  C  2 YYX  -0.000000   0.001788  -0.002698  -0.000000  -0.004569
   57  C  2 YYZ  -0.001394   0.000000  -0.000000   0.002850  -0.000000
   58  C  2 ZZX  -0.000000  -0.000543  -0.000388  -0.000000   0.000642
   59  C  2 ZZY  -0.000000  -0.002696  -0.000743  -0.000000  -0.001683
   60  C  2 XYZ   0.001085   0.000000  -0.000000   0.000428  -0.000000
   61  C  2  S   -0.000000   0.014839  -0.019086  -0.000000   3.927143
   62  C  2  X   -0.000000  -0.000414  -0.000971  -0.000000  -0.593426
   63  C  2  Y   -0.000000  -0.001055   0.022371  -0.000000   0.750467
   64  C  2  Z   -0.005959   0.000000  -0.000000   0.070138  -0.000000
   65  C  2 XX   -0.000000   0.021228   0.002585  -0.000000   0.055430
   66  C  2 YY   -0.000000  -0.016231   0.004419  -0.000000   0.098346
   67  C  2 ZZ   -0.000000  -0.004998  -0.007004  -0.000000  -0.153775
   68  C  2 XY   -0.000000  -0.017113  -0.022651  -0.000000  -0.205875
   69  C  2 XZ   -0.010246   0.000000  -0.000000  -0.040347  -0.000000
   70  C  2 YZ    0.003012   0.000000  -0.000000  -0.007513  -0.000000
   71  C  2 XXX  -0.000000  -0.002616   0.001780  -0.000000   0.006145
   72  C  2 YYY  -0.000000   0.000297   0.009491  -0.000000  -0.016581
   73  C  2 ZZZ  -0.004343   0.000000  -0.000000   0.006625  -0.000000
   74  C  2 XXY  -0.000000   0.000343  -0.015205  -0.000000   0.048375
   75  C  2 XXZ   0.006480   0.000000  -0.000000  -0.014586  -0.000000
   76  C  2 YYX  -0.000000   0.000536  -0.003707  -0.000000  -0.029300
   77  C  2 YYZ  -0.000653   0.000000  -0.000000   0.005698  -0.000000
   78  C  2 ZZX  -0.000000   0.002973   0.001319  -0.000000   0.021056
   79  C  2 ZZY  -0.000000  -0.000742   0.002472  -0.000000  -0.026129
   80  C  2 XYZ  -0.000205   0.000000  -0.000000  -0.001577  -0.000000
   81  O  3  S   -0.000000  -0.000406   0.002569  -0.000000   0.000495
   82  O  3  S   -0.000000   0.008910   0.055983  -0.000000   0.016124
   83  O  3  S   -0.000000   0.001598   0.016617  -0.000000   0.005395
   84  O  3  S   -0.000000  -0.013830   0.040742  -0.000000  -0.134232
   85  O  3  X   -0.000000  -0.095742  -0.012562  -0.000000   0.012701
   86  O  3  Y   -0.000000   0.299815  -0.233273  -0.000000  -0.000043
   87  O  3  Z    0.337744   0.000000  -0.000000  -0.175401  -0.000000
   88  O  3  X   -0.000000  -0.122657  -0.014236  -0.000000   0.023211
   89  O  3  Y   -0.000000   0.387641  -0.303637  -0.000000   0.001207
   90  O  3  Z    0.433934   0.000000  -0.000000  -0.228486  -0.000000
   91  O  3  X   -0.000000  -0.072776  -0.001401  -0.000000   0.184839
   92  O  3  Y   -0.000000   0.229074  -0.211477  -0.000000  -0.066142
   93  O  3  Z    0.278611   0.000000  -0.000000  -0.222202  -0.000000
   94  O  3 XX   -0.000000   0.004510   0.000696  -0.000000  -0.000035
   95  O  3 YY   -0.000000  -0.003479   0.000414  -0.000000  -0.000436
   96  O  3 ZZ   -0.000000  -0.001030  -0.001110  -0.000000   0.000471
   97  O  3 XY   -0.000000  -0.008753  -0.001462  -0.000000  -0.000173
   98  O  3 XZ   -0.010168   0.000000  -0.000000  -0.006083  -0.000000
   99  O  3 YZ   -0.001212   0.000000  -0.000000  -0.000465  -0.000000
  100  O  3 XX   -0.000000   0.012759   0.000727  -0.000000  -0.003648
  101  O  3 YY   -0.000000  -0.009355   0.001345  -0.000000   0.005227
  102  O  3 ZZ   -0.000000  -0.003404  -0.002072  -0.000000  -0.001578
  103  O  3 XY   -0.000000  -0.022948  -0.004798  -0.000000  -0.002609
  104  O  3 XZ   -0.026390   0.000000  -0.000000  -0.015964  -0.000000
  105  O  3 YZ   -0.002665   0.000000  -0.000000  -0.000647  -0.000000
  106  O  3 XXX  -0.000000  -0.000741  -0.001232  -0.000000  -0.000080
  107  O  3 YYY  -0.000000   0.001043  -0.003588  -0.000000  -0.000131
  108  O  3 ZZZ  -0.005264   0.000000  -0.000000  -0.000288  -0.000000
  109  O  3 XXY  -0.000000   0.003307   0.002594  -0.000000   0.000695
  110  O  3 XXZ   0.006562   0.000000  -0.000000   0.003134  -0.000000
  111  O  3 YYX  -0.000000  -0.000736   0.001456  -0.000000   0.000159
  112  O  3 YYZ   0.000499   0.000000  -0.000000  -0.002748  -0.000000
  113  O  3 ZZX  -0.000000   0.001730   0.000197  -0.000000  -0.000051
  114  O  3 ZZY  -0.000000  -0.004706   0.002220  -0.000000  -0.000519
  115  O  3 XYZ   0.000316   0.000000  -0.000000   0.001170  -0.000000
  116  O  3  S   -0.000000  -0.035817  -0.018941  -0.000000  -0.778350
  117  O  3  X   -0.000000   0.001843   0.004465  -0.000000   0.323617
  118  O  3  Y   -0.000000   0.011027  -0.035553  -0.000000  -0.081262
  119  O  3  Z    0.023161   0.000000  -0.000000  -0.082892  -0.000000
  120  O  3 XX   -0.000000   0.005552  -0.005606  -0.000000  -0.056206
  121  O  3 YY   -0.000000  -0.004505   0.000173  -0.000000   0.027736
  122  O  3 ZZ   -0.000000  -0.001047   0.005433  -0.000000   0.028470
  123  O  3 XY   -0.000000  -0.012038  -0.014102  -0.000000   0.042740
  124  O  3 XZ   -0.003418   0.000000  -0.000000  -0.018322  -0.000000
  125  O  3 YZ   -0.000607   0.000000  -0.000000  -0.001080  -0.000000
  126  O  3 XXX  -0.000000  -0.001985  -0.000679  -0.000000   0.004138
  127  O  3 YYY  -0.000000   0.001514  -0.003154  -0.000000   0.000608
  128  O  3 ZZZ  -0.003127   0.000000  -0.000000  -0.001186  -0.000000
  129  O  3 XXY  -0.000000   0.001931   0.002804  -0.000000  -0.004331
  130  O  3 XXZ   0.002585   0.000000  -0.000000   0.004080  -0.000000
  131  O  3 YYX  -0.000000   0.000415   0.001751  -0.000000  -0.004091
  132  O  3 YYZ   0.001610   0.000000  -0.000000  -0.002490  -0.000000
  133  O  3 ZZX  -0.000000   0.002249  -0.000840  -0.000000  -0.001461
  134  O  3 ZZY  -0.000000  -0.003963   0.001428  -0.000000   0.003515
  135  O  3 XYZ  -0.000529   0.000000  -0.000000   0.000928  -0.000000

                     11         12         13         14         15
                    0.0724     0.0843     0.0916     0.1420     0.1705
                     A'         A'         A''        A'         A'  
    1  H  1  S    0.003281  -0.017903  -0.000000  -0.006450  -0.011414
    2  H  1  S   -0.137103   0.255586  -0.000000  -0.968218   0.605370
    3  H  1  S   -1.510070  -0.127687  -0.000000  -7.572711   4.489131
    4  H  1  X   -0.003734   0.002963  -0.000000  -0.004403   0.004603
    5  H  1  Y   -0.000170  -0.002996  -0.000000   0.001917   0.001189
    6  H  1  Z   -0.000000  -0.000000  -0.004539   0.000000  -0.000000
    7  H  1  X   -0.034924   0.016242  -0.000000  -0.205439   0.122467
    8  H  1  Y    0.042958  -0.049615  -0.000000   0.272767  -0.260900
    9  H  1  Z   -0.000000  -0.000000   0.006981   0.000000  -0.000000
   10  H  1 XX   -0.003095  -0.000822  -0.000000  -0.004368   0.002200
   11  H  1 YY   -0.001681   0.001320  -0.000000  -0.003661   0.004370
   12  H  1 ZZ    0.004776  -0.000498  -0.000000   0.008029  -0.006570
   13  H  1 XY    0.003730  -0.001555  -0.000000   0.013076  -0.016300
   14  H  1 XZ   -0.000000  -0.000000   0.001204   0.000000  -0.000000
   15  H  1 YZ   -0.000000  -0.000000   0.000680   0.000000  -0.000000
   16  H  1  S    0.263185  -0.377595  -0.000000  -4.194296  -0.728279
   17  H  1  X   -0.262513  -0.274715  -0.000000  -0.798305   0.638096
   18  H  1  Y    0.164551  -0.516595  -0.000000   1.409501  -1.482472
   19  H  1  Z   -0.000000  -0.000000  -0.412997   0.000000  -0.000000
   20  H  1 XX    0.014954  -0.049351  -0.000000   0.067542  -0.028067
   21  H  1 YY   -0.002927   0.043700  -0.000000  -0.045826   0.099678
   22  H  1 ZZ   -0.012027   0.005651  -0.000000  -0.021716  -0.071611
   23  H  1 XY    0.002273  -0.033734  -0.000000  -0.002593  -0.055015
   24  H  1 XZ   -0.000000  -0.000000  -0.054711   0.000000  -0.000000
   25  H  1 YZ   -0.000000  -0.000000   0.013259   0.000000  -0.000000
   26  C  2  S   -0.010356   0.005848  -0.000000   0.004211   0.022711
   27  C  2  S   -0.035168   0.039325  -0.000000  -0.091273   0.078482
   28  C  2  S   -0.001091   0.027462  -0.000000  -0.051299   0.053779
   29  C  2  S   -1.040691  -0.501331  -0.000000   6.102467  -0.928648
   30  C  2  X    0.003774  -0.004500  -0.000000   0.045663   0.001631
   31  C  2  Y   -0.016169  -0.049198  -0.000000  -0.025672   0.007016
   32  C  2  Z   -0.000000  -0.000000  -0.069869   0.000000  -0.000000
   33  C  2  X   -0.194137   0.064930  -0.000000   0.092433   0.347123
   34  C  2  Y   -0.001621  -0.083834  -0.000000   0.137013  -0.146560
   35  C  2  Z   -0.000000  -0.000000  -0.090998   0.000000  -0.000000
   36  C  2  X   -1.739565   0.018184  -0.000000  -1.218343   2.175268
   37  C  2  Y    0.357783   0.108506  -0.000000   1.978758  -0.950095
   38  C  2  Z   -0.000000  -0.000000  -0.108705   0.000000  -0.000000
   39  C  2 XX   -0.000194   0.004575  -0.000000   0.001833   0.007047
   40  C  2 YY    0.000585  -0.002704  -0.000000  -0.002359  -0.007809
   41  C  2 ZZ   -0.000391  -0.001872  -0.000000   0.000526   0.000762
   42  C  2 XY   -0.002132   0.000934  -0.000000  -0.000073   0.009129
   43  C  2 XZ   -0.000000  -0.000000   0.001590   0.000000  -0.000000
   44  C  2 YZ   -0.000000  -0.000000  -0.000637   0.000000  -0.000000
   45  C  2 XX   -0.119411  -0.092056  -0.000000   0.210534   0.004779
   46  C  2 YY    0.075045   0.033109  -0.000000  -0.007038  -0.057032
   47  C  2 ZZ    0.044366   0.058947  -0.000000  -0.203496   0.052252
   48  C  2 XY   -0.032905   0.082521  -0.000000  -0.267936   0.164152
   49  C  2 XZ   -0.000000  -0.000000  -0.072870   0.000000  -0.000000
   50  C  2 YZ   -0.000000  -0.000000   0.009816   0.000000  -0.000000
   51  C  2 XXX  -0.005162  -0.001027  -0.000000   0.012202   0.002438
   52  C  2 YYY  -0.000194  -0.002334  -0.000000   0.000456   0.000631
   53  C  2 ZZZ  -0.000000  -0.000000   0.006758   0.000000  -0.000000
   54  C  2 XXY   0.000938  -0.002613  -0.000000   0.003367  -0.007067
   55  C  2 XXZ  -0.000000  -0.000000  -0.006733   0.000000  -0.000000
   56  C  2 YYX   0.002180   0.003088  -0.000000  -0.014760   0.007891
   57  C  2 YYZ  -0.000000  -0.000000  -0.002334   0.000000  -0.000000
   58  C  2 ZZX   0.004746  -0.001710  -0.000000  -0.001611  -0.011161
   59  C  2 ZZY  -0.000678   0.005744  -0.000000  -0.003979   0.006220
   60  C  2 XYZ  -0.000000  -0.000000  -0.000449   0.000000  -0.000000
   61  C  2  S   -2.912392   0.333229  -0.000000   9.876902   1.389605
   62  C  2  X   -1.804417   0.069450  -0.000000  -1.254628  -1.080888
   63  C  2  Y    0.041584   1.884256  -0.000000   1.057414   0.399868
   64  C  2  Z   -0.000000  -0.000000   1.658174   0.000000  -0.000000
   65  C  2 XX   -0.431496  -0.356536  -0.000000   0.471597  -0.501900
   66  C  2 YY    0.297794   0.370537  -0.000000   0.038539   0.224517
   67  C  2 ZZ    0.133701  -0.014002  -0.000000  -0.510136   0.277383
   68  C  2 XY   -0.200858   0.226206  -0.000000  -0.964365   0.271032
   69  C  2 XZ   -0.000000  -0.000000   0.023551   0.000000  -0.000000
   70  C  2 YZ   -0.000000  -0.000000   0.189603   0.000000  -0.000000
   71  C  2 XXX  -0.046350  -0.043246  -0.000000   0.048377   0.020761
   72  C  2 YYY  -0.002955   0.029489  -0.000000  -0.029802   0.043900
   73  C  2 ZZZ  -0.000000  -0.000000  -0.000381   0.000000  -0.000000
   74  C  2 XXY   0.011584  -0.031649  -0.000000   0.096854  -0.087853
   75  C  2 XXZ  -0.000000  -0.000000  -0.028255   0.000000  -0.000000
   76  C  2 YYX   0.021432   0.063446  -0.000000  -0.121763   0.015533
   77  C  2 YYZ  -0.000000  -0.000000   0.028766   0.000000  -0.000000
   78  C  2 ZZX   0.040753  -0.005425  -0.000000   0.056859  -0.043387
   79  C  2 ZZY  -0.007620  -0.007914  -0.000000  -0.056870   0.028955
   80  C  2 XYZ  -0.000000  -0.000000   0.004795   0.000000  -0.000000
   81  O  3  S   -0.001121   0.004323  -0.000000  -0.001012   0.015026
   82  O  3  S    0.052532  -0.000951  -0.000000  -0.021267   0.018885
   83  O  3  S    0.012925   0.001173  -0.000000  -0.004466   0.004259
   84  O  3  S    1.038854   0.233090  -0.000000  -0.745489  -0.492928
   85  O  3  X    0.015782   0.004984  -0.000000  -0.020314  -0.036568
   86  O  3  Y    0.006149  -0.003175  -0.000000  -0.014215  -0.003534
   87  O  3  Z   -0.000000  -0.000000  -0.000698   0.000000  -0.000000
   88  O  3  X   -0.026098  -0.009982  -0.000000   0.009632  -0.023380
   89  O  3  Y    0.002954  -0.002235  -0.000000  -0.010108   0.006426
   90  O  3  Z   -0.000000  -0.000000   0.004518   0.000000  -0.000000
   91  O  3  X   -0.423377   0.069806  -0.000000   0.529948   0.429335
   92  O  3  Y   -0.115555  -0.123563  -0.000000   0.138391   0.095811
   93  O  3  Z   -0.000000  -0.000000   0.132095   0.000000  -0.000000
   94  O  3 XX   -0.001958   0.000923  -0.000000  -0.000494   0.001928
   95  O  3 YY    0.000652  -0.000499  -0.000000  -0.000978  -0.000976
   96  O  3 ZZ    0.001306  -0.000424  -0.000000   0.001472  -0.000952
   97  O  3 XY   -0.000094   0.001569  -0.000000   0.002446   0.000738
   98  O  3 XZ   -0.000000  -0.000000   0.004479   0.000000  -0.000000
   99  O  3 YZ   -0.000000  -0.000000  -0.000051   0.000000  -0.000000
  100  O  3 XX    0.029957  -0.010736  -0.000000  -0.018625   0.005772
  101  O  3 YY   -0.010919   0.006400  -0.000000   0.018898  -0.004875
  102  O  3 ZZ   -0.019038   0.004335  -0.000000  -0.000273  -0.000897
  103  O  3 XY    0.009481   0.007849  -0.000000  -0.016102  -0.003994
  104  O  3 XZ   -0.000000  -0.000000  -0.011130   0.000000  -0.000000
  105  O  3 YZ   -0.000000  -0.000000   0.002715   0.000000  -0.000000
  106  O  3 XXX  -0.002588   0.000666  -0.000000   0.000549  -0.001924
  107  O  3 YYY   0.000192  -0.000546  -0.000000   0.001326  -0.000719
  108  O  3 ZZZ  -0.000000  -0.000000   0.000982   0.000000  -0.000000
  109  O  3 XXY  -0.000251   0.000196  -0.000000  -0.001116   0.000686
  110  O  3 XXZ  -0.000000  -0.000000  -0.001554   0.000000  -0.000000
  111  O  3 YYX   0.001665  -0.001243  -0.000000  -0.000447   0.001062
  112  O  3 YYZ  -0.000000  -0.000000   0.000237   0.000000  -0.000000
  113  O  3 ZZX   0.001806   0.000349  -0.000000  -0.000289   0.001519
  114  O  3 ZZY  -0.000007   0.000536  -0.000000  -0.000663   0.000279
  115  O  3 XYZ  -0.000000  -0.000000  -0.001237   0.000000  -0.000000
  116  O  3  S    4.546623   0.081878  -0.000000  -3.550049  -3.249037
  117  O  3  X   -0.632481   0.003192  -0.000000   0.968058   3.215704
  118  O  3  Y   -0.109400  -0.771079  -0.000000   0.759715  -0.061659
  119  O  3  Z   -0.000000  -0.000000  -0.563850   0.000000  -0.000000
  120  O  3 XX   -0.005402  -0.035020  -0.000000  -0.151262  -0.230979
  121  O  3 YY   -0.003867  -0.013948  -0.000000   0.063603   0.092510
  122  O  3 ZZ    0.009270   0.048968  -0.000000   0.087659   0.138469
  123  O  3 XY    0.049755   0.067766  -0.000000  -0.057827  -0.043853
  124  O  3 XZ   -0.000000  -0.000000  -0.016789   0.000000  -0.000000
  125  O  3 YZ   -0.000000  -0.000000  -0.042449   0.000000  -0.000000
  126  O  3 XXX   0.001769   0.007546  -0.000000   0.008446   0.020687
  127  O  3 YYY   0.003697   0.006930  -0.000000  -0.013228   0.000481
  128  O  3 ZZZ  -0.000000  -0.000000  -0.005025   0.000000  -0.000000
  129  O  3 XXY  -0.007401  -0.008831  -0.000000   0.014350   0.003536
  130  O  3 XXZ  -0.000000  -0.000000   0.008433   0.000000  -0.000000
  131  O  3 YYX  -0.001969   0.000202  -0.000000  -0.007412  -0.009143
  132  O  3 YYZ  -0.000000  -0.000000  -0.001691   0.000000  -0.000000
  133  O  3 ZZX  -0.000405  -0.010326  -0.000000  -0.003920  -0.018612
  134  O  3 ZZY   0.002440  -0.000466  -0.000000   0.003397  -0.004182
  135  O  3 XYZ  -0.000000  -0.000000   0.007459   0.000000  -0.000000

                     16         17         18         19         20
                    0.1848     0.1913     0.2545     0.2616     0.2795
                     A'         A''        A'         A'         A'' 
    1  H  1  S   -0.003643   0.000000  -0.031071   0.040512   0.000000
    2  H  1  S    0.077970   0.000000  -0.006450  -0.534711   0.000000
    3  H  1  S    2.225549   0.000000  -1.919775  -3.925703   0.000000
    4  H  1  X    0.001134   0.000000   0.006327  -0.008487   0.000000
    5  H  1  Y   -0.004259   0.000000  -0.004929   0.009676   0.000000
    6  H  1  Z    0.000000   0.000568  -0.000000   0.000000   0.004622
    7  H  1  X    0.005033   0.000000   0.113598  -0.031842   0.000000
    8  H  1  Y   -0.038805   0.000000  -0.046767   0.189264   0.000000
    9  H  1  Z    0.000000  -0.037802  -0.000000   0.000000   0.182100
   10  H  1 XX   -0.001601   0.000000  -0.005900  -0.000294   0.000000
   11  H  1 YY    0.005232   0.000000  -0.001090  -0.003330   0.000000
   12  H  1 ZZ   -0.003630   0.000000   0.006990   0.003624   0.000000
   13  H  1 XY   -0.001421   0.000000  -0.002657   0.005769   0.000000
   14  H  1 XZ    0.000000  -0.003080  -0.000000   0.000000   0.004218
   15  H  1 YZ    0.000000  -0.002763  -0.000000   0.000000   0.001114
   16  H  1  S    1.274102   0.000000  -0.313600   0.247009   0.000000
   17  H  1  X    1.415193   0.000000   0.925156  -1.092055   0.000000
   18  H  1  Y   -0.464984   0.000000  -0.683965   2.072910   0.000000
   19  H  1  Z    0.000000  -0.568840  -0.000000   0.000000   2.060197
   20  H  1 XX    0.039267   0.000000   0.104380   0.091374   0.000000
   21  H  1 YY   -0.004206   0.000000   0.016121  -0.152166   0.000000
   22  H  1 ZZ   -0.035061   0.000000  -0.120501   0.060792   0.000000
   23  H  1 XY   -0.020406   0.000000  -0.141198   0.091810   0.000000
   24  H  1 XZ    0.000000  -0.019700  -0.000000   0.000000   0.162063
   25  H  1 YZ    0.000000   0.071099  -0.000000   0.000000  -0.251968
   26  C  2  S   -0.002174   0.000000  -0.015784   0.003703   0.000000
   27  C  2  S    0.045176   0.000000   0.017275   0.012309   0.000000
   28  C  2  S    0.016065   0.000000   0.025260   0.019726   0.000000
   29  C  2  S   -1.891121   0.000000  -3.286958   1.798444   0.000000
   30  C  2  X   -0.019996   0.000000  -0.003703   0.038832   0.000000
   31  C  2  Y    0.012215   0.000000   0.084316  -0.057746   0.000000
   32  C  2  Z    0.000000   0.002270  -0.000000   0.000000  -0.032221
   33  C  2  X   -0.033529   0.000000  -0.109182  -0.267111   0.000000
   34  C  2  Y   -0.204351   0.000000   0.017643   0.003181   0.000000
   35  C  2  Z    0.000000  -0.129672  -0.000000   0.000000  -0.145124
   36  C  2  X    0.292952   0.000000  -2.953557  -3.414293   0.000000
   37  C  2  Y   -2.366689   0.000000   0.893164   0.507829   0.000000
   38  C  2  Z    0.000000  -0.907579  -0.000000   0.000000  -1.477911
   39  C  2 XX   -0.000511   0.000000  -0.016469  -0.017738   0.000000
   40  C  2 YY    0.001114   0.000000   0.000222   0.026739   0.000000
   41  C  2 ZZ   -0.000603   0.000000   0.016247  -0.009001   0.000000
   42  C  2 XY    0.000504   0.000000   0.000686  -0.007986   0.000000
   43  C  2 XZ    0.000000  -0.001178  -0.000000   0.000000  -0.009176
   44  C  2 YZ    0.000000  -0.001154  -0.000000   0.000000   0.032384
   45  C  2 XX    0.009525   0.000000  -0.265002  -0.082649   0.000000
   46  C  2 YY   -0.046133   0.000000   0.132356   0.026442   0.000000
   47  C  2 ZZ    0.036608   0.000000   0.132646   0.056207   0.000000
   48  C  2 XY   -0.303474   0.000000   0.078371  -0.169642   0.000000
   49  C  2 XZ    0.000000  -0.250713  -0.000000   0.000000   0.120641
   50  C  2 YZ    0.000000  -0.007227  -0.000000   0.000000  -0.172773
   51  C  2 XXX  -0.000993   0.000000  -0.011059  -0.004590   0.000000
   52  C  2 YYY   0.009613   0.000000   0.003544  -0.001507   0.000000
   53  C  2 ZZZ   0.000000   0.003558  -0.000000   0.000000  -0.002852
   54  C  2 XXY  -0.014486   0.000000  -0.008732   0.004418   0.000000
   55  C  2 XXZ   0.000000  -0.005541  -0.000000   0.000000   0.008253
   56  C  2 YYX   0.000593   0.000000   0.014142  -0.005936   0.000000
   57  C  2 YYZ   0.000000   0.000767  -0.000000   0.000000  -0.004427
   58  C  2 ZZX   0.000739   0.000000   0.000695   0.012094   0.000000
   59  C  2 ZZY   0.001589   0.000000   0.003977  -0.002397   0.000000
   60  C  2 XYZ   0.000000   0.000285  -0.000000   0.000000  -0.003944
   61  C  2  S   -2.077684   0.000000  -1.516145  -3.469437   0.000000
   62  C  2  X    0.221186   0.000000  -1.944258  -1.015659   0.000000
   63  C  2  Y   -1.799212   0.000000   0.722236  -0.837647   0.000000
   64  C  2  Z    0.000000  -1.488475  -0.000000   0.000000  -0.537852
   65  C  2 XX    0.491970   0.000000  -0.942133  -0.656353   0.000000
   66  C  2 YY   -0.454587   0.000000   0.557934   0.672812   0.000000
   67  C  2 ZZ   -0.037383   0.000000   0.384198  -0.016459   0.000000
   68  C  2 XY   -0.953210   0.000000  -0.587016  -0.349883   0.000000
   69  C  2 XZ    0.000000  -0.959328  -0.000000   0.000000   0.410440
   70  C  2 YZ    0.000000   0.090706  -0.000000   0.000000   0.187735
   71  C  2 XXX   0.059998   0.000000  -0.124907  -0.106098   0.000000
   72  C  2 YYY   0.087988   0.000000  -0.031405  -0.025828   0.000000
   73  C  2 ZZZ   0.000000   0.052056  -0.000000   0.000000   0.081371
   74  C  2 XXY  -0.172813   0.000000   0.060203   0.051998   0.000000
   75  C  2 XXZ   0.000000  -0.107255  -0.000000   0.000000  -0.091793
   76  C  2 YYX  -0.070912   0.000000   0.062231   0.054036   0.000000
   77  C  2 YYZ   0.000000   0.037415  -0.000000   0.000000  -0.017378
   78  C  2 ZZX  -0.009584   0.000000   0.105349   0.088310   0.000000
   79  C  2 ZZY   0.054765   0.000000  -0.018068  -0.017346   0.000000
   80  C  2 XYZ   0.000000  -0.052878  -0.000000   0.000000   0.135893
   81  O  3  S    0.000525   0.000000  -0.009886  -0.007134   0.000000
   82  O  3  S    0.004204   0.000000  -0.128695  -0.085918   0.000000
   83  O  3  S    0.000099   0.000000  -0.041652  -0.032098   0.000000
   84  O  3  S    0.138655   0.000000   1.477555   1.138922   0.000000
   85  O  3  X    0.014246   0.000000   0.011697  -0.008873   0.000000
   86  O  3  Y   -0.055542   0.000000  -0.015522   0.010923   0.000000
   87  O  3  Z    0.000000  -0.070256  -0.000000   0.000000   0.001257
   88  O  3  X    0.004750   0.000000  -0.049129  -0.065834   0.000000
   89  O  3  Y   -0.062945   0.000000  -0.039826   0.013936   0.000000
   90  O  3  Z    0.000000  -0.070472  -0.000000   0.000000   0.004651
   91  O  3  X   -0.216793   0.000000  -0.520975  -0.529751   0.000000
   92  O  3  Y    0.835983   0.000000  -0.383231  -0.082839   0.000000
   93  O  3  Z    0.000000   0.492558  -0.000000   0.000000   0.061841
   94  O  3 XX   -0.000625   0.000000  -0.001846  -0.003755   0.000000
   95  O  3 YY    0.000201   0.000000  -0.001037   0.002534   0.000000
   96  O  3 ZZ    0.000423   0.000000   0.002883   0.001222   0.000000
   97  O  3 XY    0.003997   0.000000  -0.003740   0.001781   0.000000
   98  O  3 XZ    0.000000   0.002470  -0.000000   0.000000   0.000843
   99  O  3 YZ    0.000000  -0.000714  -0.000000   0.000000   0.002727
  100  O  3 XX    0.013336   0.000000   0.036943   0.058659   0.000000
  101  O  3 YY   -0.004514   0.000000  -0.014603  -0.014629   0.000000
  102  O  3 ZZ   -0.008823   0.000000  -0.022341  -0.044030   0.000000
  103  O  3 XY   -0.025872   0.000000   0.002604   0.012983   0.000000
  104  O  3 XZ    0.000000  -0.001765  -0.000000   0.000000   0.013109
  105  O  3 YZ    0.000000   0.007423  -0.000000   0.000000   0.010518
  106  O  3 XXX   0.000757   0.000000  -0.006342  -0.004630   0.000000
  107  O  3 YYY   0.003798   0.000000  -0.001707   0.002178   0.000000
  108  O  3 ZZZ   0.000000   0.005046  -0.000000   0.000000   0.001036
  109  O  3 XXY  -0.007439   0.000000   0.003257  -0.002882   0.000000
  110  O  3 XXZ   0.000000  -0.008417  -0.000000   0.000000  -0.000424
  111  O  3 YYX  -0.001533   0.000000   0.005509   0.001980   0.000000
  112  O  3 YYZ   0.000000   0.001647  -0.000000   0.000000  -0.000966
  113  O  3 ZZX   0.000518   0.000000   0.002999   0.004232   0.000000
  114  O  3 ZZY   0.002344   0.000000  -0.000967  -0.000040   0.000000
  115  O  3 XYZ   0.000000  -0.000606  -0.000000   0.000000  -0.003533
  116  O  3  S    0.105804   0.000000   5.834890   6.016081   0.000000
  117  O  3  X   -0.250782   0.000000  -0.007122  -0.284576   0.000000
  118  O  3  Y    2.878603   0.000000  -0.687508   0.497567   0.000000
  119  O  3  Z    0.000000   2.985777  -0.000000   0.000000   0.240268
  120  O  3 XX    0.118744   0.000000  -0.165454  -0.127676   0.000000
  121  O  3 YY   -0.123923   0.000000   0.083076   0.063395   0.000000
  122  O  3 ZZ    0.005179   0.000000   0.082378   0.064281   0.000000
  123  O  3 XY   -0.528884   0.000000   0.168970  -0.011328   0.000000
  124  O  3 XZ    0.000000  -0.445937  -0.000000   0.000000  -0.024433
  125  O  3 YZ    0.000000  -0.060844  -0.000000   0.000000  -0.064464
  126  O  3 XXX  -0.016206   0.000000   0.023090   0.004181   0.000000
  127  O  3 YYY  -0.040690   0.000000   0.006798  -0.005675   0.000000
  128  O  3 ZZZ   0.000000  -0.033964  -0.000000   0.000000  -0.000292
  129  O  3 XXY   0.073886   0.000000  -0.013954   0.003946   0.000000
  130  O  3 XXZ   0.000000   0.061655  -0.000000   0.000000  -0.007799
  131  O  3 YYX   0.021862   0.000000  -0.017984  -0.008528   0.000000
  132  O  3 YYZ   0.000000  -0.016087  -0.000000   0.000000   0.008191
  133  O  3 ZZX  -0.000119   0.000000  -0.012995   0.002918   0.000000
  134  O  3 ZZY  -0.019294   0.000000   0.004833   0.003668   0.000000
  135  O  3 XYZ   0.000000   0.006148  -0.000000   0.000000   0.008019

                     21         22         23         24         25
                    0.3193     0.3324     0.3438     0.3947     0.4210
                     A'         A'         A''        A'         A'  
    1  H  1  S    0.025129  -0.034094   0.000000  -0.028678  -0.000642
    2  H  1  S   -0.552500   0.659387   0.000000   1.846699   1.811461
    3  H  1  S   -3.280550   4.637391   0.000000  17.496032  11.302389
    4  H  1  X    0.002183  -0.003947   0.000000  -0.006630   0.008312
    5  H  1  Y    0.009855  -0.002534   0.000000   0.014246   0.015169
    6  H  1  Z    0.000000  -0.000000  -0.012878  -0.000000   0.000000
    7  H  1  X   -0.497340   0.213559   0.000000   0.424229   0.439402
    8  H  1  Y    0.045437  -0.003140   0.000000  -0.477410  -0.764587
    9  H  1  Z    0.000000  -0.000000   0.204419  -0.000000   0.000000
   10  H  1 XX   -0.006776   0.000360   0.000000   0.010255   0.001586
   11  H  1 YY   -0.006407   0.003094   0.000000   0.001686   0.017660
   12  H  1 ZZ    0.013183  -0.003454   0.000000  -0.011941  -0.019245
   13  H  1 XY    0.013917  -0.016046   0.000000  -0.014807  -0.043951
   14  H  1 XZ    0.000000  -0.000000  -0.010462  -0.000000   0.000000
   15  H  1 YZ    0.000000  -0.000000   0.002579  -0.000000   0.000000
   16  H  1  S    1.199124   0.622067   0.000000   3.001113   0.707213
   17  H  1  X   -3.743843   1.507743   0.000000   2.921091   1.578976
   18  H  1  Y   -0.370708   2.191774   0.000000  -3.294379  -4.290568
   19  H  1  Z    0.000000  -0.000000   3.490989  -0.000000   0.000000
   20  H  1 XX   -0.396374   0.202924   0.000000  -0.076874  -0.094446
   21  H  1 YY    0.328823  -0.238018   0.000000   0.069508   0.254844
   22  H  1 ZZ    0.067551   0.035094   0.000000   0.007366  -0.160398
   23  H  1 XY    0.254121   0.181629   0.000000  -0.052171  -0.291251
   24  H  1 XZ    0.000000  -0.000000   0.313055  -0.000000   0.000000
   25  H  1 YZ    0.000000  -0.000000  -0.217244  -0.000000   0.000000
   26  C  2  S   -0.008548   0.025238   0.000000  -0.053276   0.052546
   27  C  2  S   -0.047777   0.070206   0.000000  -0.274905  -0.008391
   28  C  2  S   -0.011029   0.035914   0.000000  -0.051957   0.109469
   29  C  2  S   -0.203381  -1.007266   0.000000 -15.963367  -7.669023
   30  C  2  X    0.033276   0.008915   0.000000   0.066307   0.030876
   31  C  2  Y   -0.021311  -0.059215   0.000000  -0.036521   0.011793
   32  C  2  Z    0.000000  -0.000000  -0.079721  -0.000000   0.000000
   33  C  2  X   -0.548108  -0.063885   0.000000  -0.059447   0.936742
   34  C  2  Y    0.221724  -0.238957   0.000000  -0.372297  -0.616157
   35  C  2  Z    0.000000  -0.000000  -0.258858  -0.000000   0.000000
   36  C  2  X   -1.356750   0.878275   0.000000   3.957539   3.568643
   37  C  2  Y    1.209762  -2.818368   0.000000  -4.381063  -2.899198
   38  C  2  Z    0.000000  -0.000000  -2.483965  -0.000000   0.000000
   39  C  2 XX   -0.004199  -0.024005   0.000000  -0.003056   0.005505
   40  C  2 YY   -0.009141  -0.002714   0.000000   0.004199  -0.011419
   41  C  2 ZZ    0.013340   0.026719   0.000000  -0.001144   0.005914
   42  C  2 XY   -0.012153  -0.002852   0.000000  -0.001704   0.017384
   43  C  2 XZ    0.000000  -0.000000  -0.010338  -0.000000   0.000000
   44  C  2 YZ    0.000000  -0.000000  -0.012259  -0.000000   0.000000
   45  C  2 XX   -0.401812   0.101852   0.000000  -0.314336  -0.315464
   46  C  2 YY    0.412784  -0.169683   0.000000  -0.060450   0.008081
   47  C  2 ZZ   -0.010971   0.067832   0.000000   0.374786   0.307383
   48  C  2 XY   -0.334440   0.147382   0.000000   0.640005   0.368704
   49  C  2 XZ    0.000000  -0.000000   0.100603  -0.000000   0.000000
   50  C  2 YZ    0.000000  -0.000000  -0.109917  -0.000000   0.000000
   51  C  2 XXX  -0.024847  -0.002921   0.000000  -0.022462   0.001678
   52  C  2 YYY  -0.000594   0.009357   0.000000  -0.001100   0.004326
   53  C  2 ZZZ   0.000000  -0.000000  -0.013475  -0.000000   0.000000
   54  C  2 XXY   0.014077  -0.005577   0.000000  -0.009633  -0.027809
   55  C  2 XXZ   0.000000  -0.000000   0.007015  -0.000000   0.000000
   56  C  2 YYX   0.006971   0.006933   0.000000   0.028786   0.026506
   57  C  2 YYZ   0.000000  -0.000000   0.011064  -0.000000   0.000000
   58  C  2 ZZX   0.026364  -0.003014   0.000000   0.001349  -0.028758
   59  C  2 ZZY  -0.013280  -0.006977   0.000000   0.011109   0.022006
   60  C  2 XYZ   0.000000  -0.000000  -0.001439  -0.000000   0.000000
   61  C  2  S   -5.339164  -2.094815   0.000000  -9.733149  -1.991917
   62  C  2  X    0.454505   0.104818   0.000000   1.120220  -0.145847
   63  C  2  Y   -1.067157  -1.324170   0.000000  -0.927859   0.012950
   64  C  2  Z    0.000000  -0.000000  -1.095066  -0.000000   0.000000
   65  C  2 XX   -1.375827   0.631264   0.000000   0.009212  -2.392139
   66  C  2 YY    0.689641  -1.940736   0.000000  -0.495726   1.504081
   67  C  2 ZZ    0.686187   1.309472   0.000000   0.486514   0.888058
   68  C  2 XY   -0.491182   0.688398   0.000000   2.317372  -0.315277
   69  C  2 XZ    0.000000  -0.000000   0.551089  -0.000000   0.000000
   70  C  2 YZ    0.000000  -0.000000  -1.923480  -0.000000   0.000000
   71  C  2 XXX   0.145432  -0.057952   0.000000  -0.035808  -0.124181
   72  C  2 YYY   0.189141  -0.103612   0.000000  -0.022221   0.210219
   73  C  2 ZZZ   0.000000  -0.000000   0.141606  -0.000000   0.000000
   74  C  2 XXY  -0.266116  -0.000985   0.000000  -0.051074  -0.359507
   75  C  2 XXZ   0.000000  -0.000000  -0.064276  -0.000000   0.000000
   76  C  2 YYX  -0.163628   0.107778   0.000000   0.206916   0.160643
   77  C  2 YYZ   0.000000  -0.000000  -0.125709  -0.000000   0.000000
   78  C  2 ZZX  -0.031489  -0.030027   0.000000  -0.158875   0.005964
   79  C  2 ZZY   0.012357   0.139995   0.000000   0.080887   0.077468
   80  C  2 XYZ   0.000000  -0.000000   0.076878  -0.000000   0.000000
   81  O  3  S   -0.010578  -0.005616   0.000000  -0.003413   0.016845
   82  O  3  S   -0.066990  -0.016298   0.000000  -0.046969   0.074336
   83  O  3  S   -0.028197  -0.006629   0.000000  -0.023626   0.036629
   84  O  3  S    1.307103  -0.047391   0.000000   0.519866   1.050632
   85  O  3  X   -0.015362   0.022563   0.000000  -0.038174   0.053688
   86  O  3  Y    0.003198   0.007427   0.000000  -0.030654   0.027121
   87  O  3  Z    0.000000  -0.000000   0.021632  -0.000000   0.000000
   88  O  3  X   -0.132812   0.028334   0.000000  -0.049439  -0.003237
   89  O  3  Y    0.037280  -0.028228   0.000000  -0.055263   0.038904
   90  O  3  Z    0.000000  -0.000000   0.003889  -0.000000   0.000000
   91  O  3  X   -1.158573  -0.122717   0.000000  -1.479293   1.095370
   92  O  3  Y    0.318876   0.236543   0.000000  -0.735064   0.615868
   93  O  3  Z    0.000000  -0.000000   0.299767  -0.000000   0.000000
   94  O  3 XX   -0.003310  -0.001888   0.000000  -0.003680   0.003499
   95  O  3 YY    0.002292   0.001452   0.000000   0.002893   0.000439
   96  O  3 ZZ    0.001017   0.000436   0.000000   0.000787  -0.003939
   97  O  3 XY    0.001471   0.002019   0.000000  -0.003639   0.003724
   98  O  3 XZ    0.000000  -0.000000   0.003426  -0.000000   0.000000
   99  O  3 YZ    0.000000  -0.000000   0.001069  -0.000000   0.000000
  100  O  3 XX    0.067176   0.023391   0.000000   0.029342  -0.065460
  101  O  3 YY   -0.054624  -0.041235   0.000000  -0.020083   0.028946
  102  O  3 ZZ   -0.012553   0.017843   0.000000  -0.009259   0.036514
  103  O  3 XY    0.016271   0.013268   0.000000   0.065827  -0.036248
  104  O  3 XZ    0.000000  -0.000000   0.021420  -0.000000   0.000000
  105  O  3 YZ    0.000000  -0.000000  -0.038430  -0.000000   0.000000
  106  O  3 XXX  -0.002646  -0.000306   0.000000  -0.000048   0.000509
  107  O  3 YYY   0.002071  -0.000185   0.000000  -0.002294  -0.001383
  108  O  3 ZZZ   0.000000  -0.000000   0.002679  -0.000000   0.000000
  109  O  3 XXY  -0.003845  -0.001871   0.000000   0.000922   0.002166
  110  O  3 XXZ   0.000000  -0.000000  -0.002524  -0.000000   0.000000
  111  O  3 YYX   0.000907   0.002469   0.000000   0.000081  -0.000879
  112  O  3 YYZ   0.000000  -0.000000  -0.001071  -0.000000   0.000000
  113  O  3 ZZX   0.002642  -0.002058   0.000000  -0.000017   0.000197
  114  O  3 ZZY   0.001066   0.002119   0.000000   0.002157  -0.000310
  115  O  3 XYZ   0.000000  -0.000000   0.002072  -0.000000   0.000000
  116  O  3  S    7.679102  -1.255066   0.000000   4.407067  -3.213081
  117  O  3  X   -2.141377   0.752478   0.000000  -1.237524   2.236807
  118  O  3  Y    1.211202   0.323574   0.000000  -1.021114   0.358011
  119  O  3  Z    0.000000  -0.000000   0.589767  -0.000000   0.000000
  120  O  3 XX    0.256664   0.059640   0.000000   0.423866  -0.390519
  121  O  3 YY   -0.118354   0.081638   0.000000  -0.201195   0.115867
  122  O  3 ZZ   -0.138310  -0.141279   0.000000  -0.222671   0.274652
  123  O  3 XY   -0.196702  -0.068640   0.000000   0.240236  -0.188299
  124  O  3 XZ    0.000000  -0.000000  -0.096539  -0.000000   0.000000
  125  O  3 YZ    0.000000  -0.000000   0.131950  -0.000000   0.000000
  126  O  3 XXX  -0.014517  -0.016297   0.000000  -0.028584   0.054484
  127  O  3 YYY   0.002223   0.008677   0.000000   0.035839  -0.014722
  128  O  3 ZZZ   0.000000  -0.000000  -0.011175  -0.000000   0.000000
  129  O  3 XXY  -0.005054   0.001994   0.000000  -0.045638   0.032703
  130  O  3 XXZ   0.000000  -0.000000   0.002044  -0.000000   0.000000
  131  O  3 YYX   0.018803   0.004902   0.000000   0.016397  -0.018887
  132  O  3 YYZ   0.000000  -0.000000   0.012948  -0.000000   0.000000
  133  O  3 ZZX   0.000673   0.016963   0.000000   0.021952  -0.054210
  134  O  3 ZZY   0.002072  -0.013635   0.000000  -0.002445  -0.012951
  135  O  3 XYZ   0.000000  -0.000000  -0.006564  -0.000000   0.000000

                     26         27         28         29         30
                    0.4255     0.4558     0.5239     0.5374     0.5896
                     A''        A'         A'         A''        A'  
    1  H  1  S    0.000000   0.027190  -0.038799  -0.000000  -0.072011
    2  H  1  S    0.000000  -1.594838  -1.323050  -0.000000   1.050941
    3  H  1  S    0.000000   2.199255  -1.413807  -0.000000  12.203227
    4  H  1  X    0.000000  -0.024699   0.012770  -0.000000   0.021467
    5  H  1  Y    0.000000   0.023136   0.028778  -0.000000  -0.002981
    6  H  1  Z   -0.015528  -0.000000  -0.000000   0.040413  -0.000000
    7  H  1  X    0.000000  -0.176356  -0.206094  -0.000000  -0.197443
    8  H  1  Y    0.000000   0.063443  -0.016529  -0.000000  -0.134080
    9  H  1  Z    0.189391  -0.000000  -0.000000  -0.451375  -0.000000
   10  H  1 XX    0.000000  -0.008733   0.008920  -0.000000   0.004881
   11  H  1 YY    0.000000   0.003376  -0.013002  -0.000000   0.008714
   12  H  1 ZZ    0.000000   0.005357   0.004082  -0.000000  -0.013595
   13  H  1 XY    0.000000   0.014924   0.006768  -0.000000  -0.007198
   14  H  1 XZ    0.005349  -0.000000  -0.000000  -0.000191  -0.000000
   15  H  1 YZ    0.004943  -0.000000  -0.000000  -0.001702  -0.000000
   16  H  1  S    0.000000  -0.282466  -0.943695  -0.000000   0.801180
   17  H  1  X    0.000000   3.813445  -2.005969  -0.000000   2.865903
   18  H  1  Y    0.000000  -0.903113  -1.209320  -0.000000  -0.156584
   19  H  1  Z    2.076218  -0.000000  -0.000000  -2.260491  -0.000000
   20  H  1 XX    0.000000   0.192798  -0.240964  -0.000000  -0.182476
   21  H  1 YY    0.000000   0.057027   0.295873  -0.000000   0.037258
   22  H  1 ZZ    0.000000  -0.249825  -0.054909  -0.000000   0.145218
   23  H  1 XY    0.000000  -0.188664   0.005363  -0.000000   0.467314
   24  H  1 XZ    0.168510  -0.000000  -0.000000  -0.165268  -0.000000
   25  H  1 YZ   -0.157934  -0.000000  -0.000000   0.367316  -0.000000
   26  C  2  S    0.000000  -0.055963  -0.007122  -0.000000   0.008309
   27  C  2  S    0.000000  -0.129078   0.104597  -0.000000   0.005954
   28  C  2  S    0.000000  -0.132138  -0.089984  -0.000000  -0.008821
   29  C  2  S    0.000000  -1.077804   8.619263  -0.000000  -3.972295
   30  C  2  X    0.000000   0.013594  -0.047074  -0.000000  -0.009903
   31  C  2  Y    0.000000  -0.125164  -0.068326  -0.000000   0.158976
   32  C  2  Z   -0.017586  -0.000000  -0.000000  -0.216219  -0.000000
   33  C  2  X    0.000000   0.008173   0.377060  -0.000000  -0.151132
   34  C  2  Y    0.000000  -0.267859   0.339646  -0.000000  -0.028303
   35  C  2  Z    0.264319  -0.000000  -0.000000   0.050802  -0.000000
   36  C  2  X    0.000000   0.611724   5.313656  -0.000000   8.017289
   37  C  2  Y    0.000000  -1.371882   4.614155  -0.000000  -8.586695
   38  C  2  Z    0.953079  -0.000000  -0.000000   4.922090  -0.000000
   39  C  2 XX    0.000000   0.001084  -0.027321  -0.000000  -0.032709
   40  C  2 YY    0.000000  -0.003269   0.006551  -0.000000   0.028460
   41  C  2 ZZ    0.000000   0.002184   0.020770  -0.000000   0.004249
   42  C  2 XY    0.000000  -0.000031  -0.003524  -0.000000   0.014823
   43  C  2 XZ    0.003848  -0.000000  -0.000000  -0.023718  -0.000000
[...]

                   BOND                       BOND                       BOND
  ATOM PAIR DIST  ORDER      ATOM PAIR DIST  ORDER      ATOM PAIR DIST  ORDER
    1   2  1.103  0.722        2   3  1.158  1.211

                       TOTAL       BONDED        FREE
      ATOM            VALENCE     VALENCE     VALENCE
    1 H                 0.711       0.708       0.003
    2 C                 3.589       1.933       1.655
    3 O                 2.122       1.197       0.925

          -----------------------------------------
          ATOMIC SPIN DENSITY AT THE NUCLEUS (A.U.)
          -----------------------------------------
                            SPIN DENS    ALPHA DENS     BETA DENS
    1  H            1.0     0.0337184       0.21701       0.18329
    2  C            6.0     0.6060755      60.89326      60.28718
    3  O            8.0     0.0556985     149.61386     149.55816

          ---------------------
          ELECTROSTATIC MOMENTS
          ---------------------

 POINT   1           X           Y           Z (BOHR)    CHARGE
                -0.000000   -0.000000    0.000000       -0.00 (A.U.)
         DX          DY          DZ         /D/  (DEBYE)
    -0.357074    0.360014    0.000000    0.507062
 ...... END OF PROPERTY EVALUATION ......
 CPU     0: STEP CPU TIME=     0.05 TOTAL CPU TIME=        9.5 (    0.2 MIN)
 TOTAL WALL CLOCK TIME=        9.5 SECONDS, CPU UTILIZATION IS 100.00%



 -------------------------------     ----------------------------
 DISTRIBUTED DATA ZAPT2 GRADIENT     PROGRAM WRITTEN BY C. AIKENS
 -------------------------------     ----------------------------

 DDI: Creating Array [0] - 18225 x 45 = 820125 words.
 DDI: Creating Array [1] - 106 x 405 = 42930 words.
 DDI: Creating Array [2] - 45 x 45 = 2025 words.
 DDI: Creating Array [3] - 9180 x 45 = 413100 words.
    THIS CALCULATION IS RUNNING WITH MWORDS=    1, MEMDDI=       5, AND P=    1
 MEMORY USAGE PER CPU IS 8*(MWORDS + MEMDDI/P)/1024 =    0.0 GBYTES.

 MINIMAL REQUIREMENT FOR THIS RUN IS MWORDS=    1, MEMDDI=       1.
 FOR P=    1, THE MEMORY USAGE PER CPU(CORE) WOULD BE    0.0 GBYTES.


      DIRECT 4-INDEX TRANSFORMATION 
      SCHWARZ INEQUALITY TEST SKIPPED          0 INTEGRAL BLOCKS

      COMPUTING CONTRIBUTIONS TO THE 1-PARTICLE DENSITY MATRICES
                     E(SCF)=      -113.1091649405
                  ZAPT E(2)=        -0.2982941293
                     E(MP2)=      -113.4074590698

      COMPUTING THREE-VIRTUAL CONTRIBUTIONS TO THE LAGRANGIAN
      FORMING BACK-TRANSFORMED INTEGRALS
      COMPUTING (VV|VO) INTEGRAL CLASS 
      SCHWARZ INEQUALITY TEST SKIPPED          0 INTEGRAL BLOCKS
      RESTORING (VO|VO) INTEGRAL CLASS

      SOLVING FOR Z-VECTOR
 DDI: Creating Array [4] - 568 x 50 = 28400 words.

      ITERATION         TESTER  EXPANSION VECTOR NORM
      ===============================================

                                 0.000615276923958
         2        0.0013801177
                                 0.000223147993679
         3        0.0007604957
                                 0.000067686043763
         4        0.0004314204
                                 0.000029342730035
         5        0.0003145303
                                 0.000012604816763
         6        0.0002648305
                                 0.000002358174062
         7        0.0000654720
                                 0.000000448380769
         8        0.0000159877
                                 0.000000083951923
         9        0.0000046236
                                 0.000000016733446
        10        0.0000011665
                                 0.000000003891236
        11        0.0000003719
                                 0.000000000952733
        12        0.0000001483
                                 0.000000000169787
        13        0.0000000387
                                 0.000000000026828
        14        0.0000000091
                                 0.000000000003673
        15        0.0000000016
                                 0.000000000000434
        16        0.0000000003
                                 0.000000000000070

      CONVERGED - NEW EXPANSION VECTOR NEGLIGIBLE


      COMPUTING LAST CONTRIBUTIONS TO THE 1-PARTICLE DENSITY

 MP2 NATURAL ORBITAL OCCUPATION NUMBERS ARE
  2.0000 2.0000 1.9839 1.9754 1.9727 1.9716 0.9946 0.9922 0.9893 0.0170
  0.0132 0.0123 0.0096 0.0070 0.0063 0.0060 0.0054 0.0050 0.0050 0.0047
  0.0036 0.0034 0.0034 0.0026 0.0018 0.0014 0.0012 0.0009 0.0008 0.0007
  0.0006 0.0005 0.0005 0.0005 0.0004 0.0004 0.0004 0.0004 0.0004 0.0004
  0.0003 0.0003 0.0003 0.0003 0.0003 0.0003 0.0002 0.0002 0.0002 0.0002
  0.0002 0.0002 0.0001 0.0001 0.0001 0.0001 0.0001 0.0001 0.0001 0.0001
  0.0001 0.0001 0.0001 0.0001 0.0001 0.0000 0.0000 0.0000 0.0000 0.0000
  0.0000 0.0000 0.0000 0.0000 0.0000 0.0000 0.0000 0.0000 0.0000 0.0000
  0.0000 0.0000 0.0000 0.0000 0.0000 0.0000 0.0000 0.0000 0.0000 0.0000
  0.0000 0.0000 0.0000 0.0000 0.0000 0.0000 0.0000 0.0000 0.0000 0.0000
  0.0000 0.0000 0.0000 0.0000 0.0000 0.0000 0.0000 0.0000 0.0000-0.0000
 -0.0000-0.0000-0.0000-0.0001-0.0003
 THERE ARE    14.8797 ELECTRONS IN PRINCIPAL MP2 NATURAL ORBITALS.
 THERE ARE     0.1203 ELECTRONS IN SECONDARY MP2 NATURAL ORBITALS.
 THE MP2 NATURAL ORBITALS HAVE BEEN PUNCHED.
 ..... DONE WITH MP2 ENERGY .....
 CPU     0: STEP CPU TIME=    18.52 TOTAL CPU TIME=       28.0 (    0.5 MIN)
 TOTAL WALL CLOCK TIME=       28.0 SECONDS, CPU UTILIZATION IS  99.93%

     -------------------------------------------------
     MP2 PROPERTIES...FOR THE FIRST ORDER WAVEFUNCTION
          USING THE RESPONSE (OR RELAXED) DENSITY
     -------------------------------------------------

          -----------------
          ENERGY COMPONENTS
          -----------------

         WAVEFUNCTION NORMALIZATION =       1.0000000000

                ONE ELECTRON ENERGY =    -206.9395257088
                TWO ELECTRON ENERGY =      66.6318937584
           NUCLEAR REPULSION ENERGY =      26.9001728806
                                      ------------------
                       TOTAL ENERGY =    -113.4074590698

 ELECTRON-ELECTRON POTENTIAL ENERGY =      66.6318937584
  NUCLEUS-ELECTRON POTENTIAL ENERGY =    -320.9654358396
   NUCLEUS-NUCLEUS POTENTIAL ENERGY =      26.9001728806
                                      ------------------
             TOTAL POTENTIAL ENERGY =    -227.4333692006
               TOTAL KINETIC ENERGY =     114.0259101308
                 VIRIAL RATIO (V/T) =       1.9945762234

          ---------------------------------------
          MULLIKEN AND LOWDIN POPULATION ANALYSES
          ---------------------------------------

          MULLIKEN SPHERICAL HARMONIC POPULATIONS
       ATOM           S       P       D      F      G      H      I    TOTAL
    1 H             0.28    0.01   -0.00   0.00   0.00   0.00   0.00    0.28
    2 C             1.74    1.37    0.07   0.01   0.00   0.00   0.00    3.20
    3 O             1.93    2.03    0.04   0.00   0.00   0.00   0.00    4.02

          MULLIKEN SPHERICAL HARMONIC POPULATIONS
       ATOM           S       P       D      F      G      H      I    TOTAL
    1 H             0.28    0.01   -0.00   0.00   0.00   0.00   0.00    0.28
    2 C             1.74    1.37    0.07   0.01   0.00   0.00   0.00    3.20
    3 O             1.93    2.03    0.04   0.00   0.00   0.00   0.00    4.02

     ATOMIC SPIN POPULATION (ALPHA MINUS BETA)
       ATOM         MULL.POP.                    LOW.POP.
    1 H             0.000000                     0.000000
    2 C             0.000000                     0.000000
    3 O             0.000000                     0.000000

               ----- POPULATIONS IN EACH AO -----
                             MULLIKEN      LOWDIN
              1  H  1  S      0.24794     0.17819
              2  H  1  S      0.37450     0.18529
              3  H  1  S     -0.06380     0.08536
              4  H  1  X      0.00411     0.00594
              5  H  1  Y      0.00429     0.00599
              6  H  1  Z      0.00235     0.00331
              7  H  1  X     -0.00860     0.02766
              8  H  1  Y      0.00609     0.04211
              9  H  1  Z      0.01504     0.03584
             10  H  1 XX      0.00031     0.08015
             11  H  1 YY      0.00058     0.07872
             12  H  1 ZZ      0.00060     0.05445
             13  H  1 XY      0.00047     0.00641
             14  H  1 XZ      0.00054     0.00220
             15  H  1 YZ      0.00000     0.00268
             16  H  1  S     -0.00493     0.01520
             17  H  1  X     -0.01383     0.02603
             18  H  1  Y     -0.00380     0.05104
             19  H  1  Z      0.01115     0.05430
             20  H  1 XX     -0.00174     0.04435
             21  H  1 YY     -0.00013     0.05228
             22  H  1 ZZ     -0.00203     0.02123
             23  H  1 XY      0.00052     0.02796
             24  H  1 XZ      0.00001     0.01855
             25  H  1 YZ      0.00000     0.02335
             26  C  2  S      1.95590     1.53281
             27  C  2  S      0.80898     0.41838
             28  C  2  S      0.17794     0.25213
             29  C  2  S      0.51751     0.12073
             30  C  2  X      0.29596     0.23705
             31  C  2  Y      0.24035     0.19987
             32  C  2  Z      0.29823     0.25348
             33  C  2  X      0.36315     0.20698
             34  C  2  Y      0.45953     0.17281
             35  C  2  Z      0.53018     0.19425
             36  C  2  X      0.04255     0.08635
             37  C  2  Y      0.18254     0.08453
             38  C  2  Z      0.28667     0.10709
             39  C  2 XX      0.00584     0.11835
             40  C  2 YY      0.01288     0.07909
             41  C  2 ZZ      0.00956     0.06882
             42  C  2 XY      0.01243     0.01242
             43  C  2 XZ      0.00155     0.01426
             44  C  2 YZ      0.00000     0.00159
             45  C  2 XX      0.00778     0.14498
             46  C  2 YY      0.00761     0.06626
             47  C  2 ZZ      0.03239     0.04002
             48  C  2 XY      0.04096     0.08016
             49  C  2 XZ      0.00263     0.08845
             50  C  2 YZ      0.00000     0.00310
             51  C  2 XXX     0.00296     0.18438
             52  C  2 YYY     0.00329     0.10705
             53  C  2 ZZZ     0.00165     0.11672
             54  C  2 XXY     0.00239     0.07010
             55  C  2 XXZ     0.00068     0.08013
             56  C  2 YYX     0.00046     0.05761
             57  C  2 YYZ     0.00297     0.05299
             58  C  2 ZZX     0.00000     0.04248
             59  C  2 ZZY     0.00000     0.04272
             60  C  2 XYZ     0.00000     0.00096
             61  C  2  S      0.02955     0.04055
             62  C  2  X     -0.00030     0.01100
             63  C  2  Y      0.00680     0.01150
             64  C  2  Z      0.02601     0.02121
             65  C  2 XX      0.00090     0.05716
             66  C  2 YY     -0.00378     0.00968
             67  C  2 ZZ      0.00869     0.00458
             68  C  2 XY      0.00743     0.04004
             69  C  2 XZ      0.00043     0.05277
             70  C  2 YZ      0.00000     0.00114
             71  C  2 XXX     0.00260     0.12804
             72  C  2 YYY     0.00397     0.05976
             73  C  2 ZZZ     0.00072     0.06387
             74  C  2 XXY     0.00269     0.06221
             75  C  2 XXZ     0.00058     0.07814
             76  C  2 YYX     0.00016     0.03127
             77  C  2 YYZ     0.00365     0.02976
             78  C  2 ZZX     0.00000     0.01494
             79  C  2 ZZY     0.00000     0.02111
             80  C  2 XYZ     0.00000     0.00150
             81  O  3  S      1.94807     1.55897
             82  O  3  S      1.04312     0.53451
             83  O  3  S      0.25092     0.35816
             84  O  3  S      0.58662     0.18935
             85  O  3  X      0.43981     0.38774
             86  O  3  Y      0.31740     0.29097
             87  O  3  Z      0.50792     0.46165
             88  O  3  X      0.69313     0.32637
             89  O  3  Y      0.49522     0.20765
             90  O  3  Z      0.79970     0.33497
             91  O  3  X      0.19910     0.16150
             92  O  3  Y      0.21620     0.08185
             93  O  3  Z      0.40421     0.15634
             94  O  3 XX      0.00232     0.13447
             95  O  3 YY      0.00350     0.12980
             96  O  3 ZZ      0.00240     0.12919
             97  O  3 XY      0.00320     0.00225
             98  O  3 XZ      0.00156     0.00288
             99  O  3 YZ      0.00000     0.00165
            100  O  3 XX      0.00560     0.12093
            101  O  3 YY      0.01046     0.09095
            102  O  3 ZZ      0.01200     0.09035
            103  O  3 XY      0.01767     0.01781
            104  O  3 XZ      0.00313     0.02500
            105  O  3 YZ      0.00000     0.00279
            106  O  3 XXX     0.00065     0.22298
            107  O  3 YYY     0.00091     0.13137
            108  O  3 ZZZ     0.00077     0.20442
            109  O  3 XXY     0.00073     0.06012
            110  O  3 XXZ     0.00036     0.09866
            111  O  3 YYX     0.00036     0.08234
            112  O  3 YYZ     0.00084     0.09358
            113  O  3 ZZX     0.00000     0.07942
            114  O  3 ZZY     0.00000     0.05524
            115  O  3 XYZ     0.00000     0.00036
            116  O  3  S      0.03876     0.06033
            117  O  3  X     -0.00220     0.04109
            118  O  3  Y     -0.00000     0.01422
            119  O  3  Z     -0.00169     0.02609
            120  O  3 XX     -0.00008     0.08572
            121  O  3 YY     -0.00118     0.01353
            122  O  3 ZZ      0.01300     0.01173
            123  O  3 XY      0.01390     0.05312
            124  O  3 XZ      0.00038     0.06724
            125  O  3 YZ      0.00000     0.00146
            126  O  3 XXX    -0.00013     0.14693
            127  O  3 YYY     0.00126     0.05632
            128  O  3 ZZZ    -0.00002     0.09892
            129  O  3 XXY     0.00083     0.04956
            130  O  3 XXZ     0.00024     0.08003
            131  O  3 YYX     0.00021     0.04675
            132  O  3 YYZ     0.00157     0.04485
            133  O  3 ZZX     0.00000     0.04373
            134  O  3 ZZY     0.00000     0.02253
            135  O  3 XYZ     0.00000     0.00133

          ----- MULLIKEN ATOMIC OVERLAP POPULATIONS -----
          (OFF-DIAGONAL ELEMENTS NEED TO BE MULTIPLIED BY 2)

             1           2           3

    1    0.4541699
    2    0.1861813   6.1333695
    3   -0.0706924   0.0780688   8.0253451

          TOTAL MULLIKEN AND LOWDIN ATOMIC POPULATIONS
       ATOM         MULL.POP.    CHARGE          LOW.POP.     CHARGE
    1 H             0.569659    0.430341         1.128597   -0.128597
    2 C             6.397620   -0.397620         6.079349   -0.079349
    3 O             8.032722   -0.032722         7.792054    0.207946

          MULLIKEN SPHERICAL HARMONIC POPULATIONS
       ATOM           S       P       D      F      G      H      I    TOTAL
    1 H             0.55    0.02   -0.00   0.00   0.00   0.00   0.00    0.57
    2 C             3.49    2.73    0.15   0.03   0.00   0.00   0.00    6.40
    3 O             3.87    4.07    0.09   0.01   0.00   0.00   0.00    8.03

          -------------------------------
          BOND ORDER AND VALENCE ANALYSIS     BOND ORDER THRESHOLD=0.050
          -------------------------------

                   BOND                       BOND                       BOND
  ATOM PAIR DIST  ORDER      ATOM PAIR DIST  ORDER      ATOM PAIR DIST  ORDER
    1   2  1.103  0.638        2   3  1.158  1.073

                       TOTAL       BONDED        FREE
      ATOM            VALENCE     VALENCE     VALENCE
    1 H                 0.738       0.596       0.142
    2 C                 3.639       1.710       1.929
    3 O                 2.390       1.032       1.359

          ---------------------
          ELECTROSTATIC MOMENTS
          ---------------------

 POINT   1           X           Y           Z (BOHR)    CHARGE
                -0.000000   -0.000000    0.000000       -0.00 (A.U.)
         DX          DY          DZ         /D/  (DEBYE)
    -0.195671    0.384927    0.000000    0.431806
 ...... END OF PROPERTY EVALUATION ......
 CPU     0: STEP CPU TIME=     0.04 TOTAL CPU TIME=       28.1 (    0.5 MIN)
 TOTAL WALL CLOCK TIME=       28.1 SECONDS, CPU UTILIZATION IS  99.96%

 BEGINNING ONE ELECTRON GRADIENT...
 ..... END OF 1-ELECTRON GRADIENT ......
 CPU     0: STEP CPU TIME=     0.01 TOTAL CPU TIME=       28.1 (    0.5 MIN)
 TOTAL WALL CLOCK TIME=       28.1 SECONDS, CPU UTILIZATION IS  99.96%

      COMPUTING 2-PARTICLE GRADIENT
      FORMING BACK-TRANSFORMED AMPLITUDES

      BACK-TRANSFORMING CHI, Z-VECTOR, AND OTHER MATRICES TO AO BASIS
 THE COARSE/FINE SCHWARZ SCREENINGS SKIPPED          0/         0 BLOCKS.
 THE NUMBER OF GRADIENT INTEGRAL BLOCKS COMPUTED WAS    917602
 ..... DONE WITH MP2 GRADIENT .....
 CPU     0: STEP CPU TIME=    18.84 TOTAL CPU TIME=       46.9 (    0.8 MIN)
 TOTAL WALL CLOCK TIME=       46.9 SECONDS, CPU UTILIZATION IS  99.96%

                         ----------------------
                         GRADIENT OF THE ENERGY
                         ----------------------

 UNITS ARE HARTREE/BOHR    E'X               E'Y               E'Z 
    1 H               -0.019260266      -0.003035428       0.000000000
    2 C                0.356531204       0.055677995       0.000000000
    3 O               -0.337270938      -0.052642566       0.000000000

                   MAXIMUM GRADIENT =    0.356531204
                       RMS GRADIENT =    0.165703093


                     --------------------
                     INTERNAL COORDINATES
                     --------------------

                 - - ATOMS - -         COORDINATE        GRADIENT
 NO.   TYPE    I  J  K  L  M  N         (ANG,DEG)     (H/B,H/RAD)
 ----------------------------------------------------------------
   1 STRETCH   2  1                     1.1030586       0.0110160
   2 STRETCH   3  2                     1.1582328      -0.3410143
   3 BEND      3  2  1                127.0441970       0.0335255

                   MAXIMUM GRADIENT =    0.341014267
                       RMS GRADIENT =    0.197936052
  $VIB   
          IVIB=   0 IATOM=   0 ICOORD=   0 E=     -113.4074590698
 -1.926026566E-02-3.035428347E-03 0.000000000E+00 3.565312038E-01 5.567799479E-02
  0.000000000E+00-3.372709382E-01-5.264256645E-02 0.000000000E+00
 -1.956711075E-01 3.849272949E-01 0.000000000E+00

..... END OF SINGLE POINT GRADIENT .....
 CPU     0: STEP CPU TIME=     0.00 TOTAL CPU TIME=       46.9 (    0.8 MIN)
 TOTAL WALL CLOCK TIME=       46.9 SECONDS, CPU UTILIZATION IS  99.96%
               808303  WORDS OF DYNAMIC MEMORY USED
 EXECUTION OF GAMESS TERMINATED NORMALLY Wed Aug  9 21:48:58 2017
 DDI: 10716280 bytes (10.2 MB / 1 MWords) used by master data server.

 ----------------------------------------
 CPU timing information for all processes
 ========================================
 0: 46.110 + 0.794 = 46.905
 ----------------------------------------
 ddikick.x: exited gracefully.
unset echo
----- accounting info -----
Files used on the master node compute-0-5.local were:
-rw-rw-r-- 1 sarom sarom  744 Aug  9 21:48 /scratch/serial-rohf-zapt-hco.F05
-rw-rw-r-- 1 sarom sarom 236M Aug  9 21:48 /scratch/serial-rohf-zapt-hco.F08
-rw-rw-r-- 1 sarom sarom 4.1M Aug  9 21:48 /scratch/serial-rohf-zapt-hco.F10
rm: No match.
ls: No match.
ls: No match.
ls: No match.
Wed Aug  9 21:49:01 CDT 2017
0.252u 0.220s 0:50.48 0.9%	0+0k 8+360io 0pf+0w
/opt/gridengine/default/spool/compute-0-5/active_jobs/36123.1/pe_hostfile compute-0-5.local
