-catch_rsh /opt/gridengine/default/spool/compute-0-5/active_jobs/35920.1/pe_hostfile
compute-0-5
The primary node assigned by SGE to this run is compute-0-5
Warning: no access to tty (Bad file descriptor).
Thus no job control in this shell.
source /home/sarom/dir.git.branch.saromleang-travis-ci/install.info
setenv GMS_PATH /home/sarom/dir.git.branch.saromleang-travis-ci
setenv GMS_BUILD_DIR /home/sarom/dir.git.branch.saromleang-travis-ci
setenv GMS_TARGET linux64
setenv GMS_FORTRAN gfortran
setenv GMS_GFORTRAN_VERNO 4.4
setenv GMS_MATHLIB mkl-so
setenv GMS_MATHLIB none
setenv GMS_MATHLIB_PATH /share/apps/intel/compilers_and_libraries_2017.1.132/linux/mkl/lib/intel64
setenv GMS_MKL_VERNO 12
setenv GMS_DDI_COMM sockets
setenv GMS_LIBCCHEM false
setenv GMS_EIGEN_PATH
setenv GMS_PHI false
setenv GMS_SHMTYPE sysv
setenv GMS_OPENMP false
unset echo
mc-nacme-nh2ch2
/home/sarom/dir.git.branch.saromleang-travis-ci/tests/mcscf/nacme/parallel
----- GAMESS execution script 'rungms' -----
This job is running on host compute-0-5.local
under operating system Linux at Wed Aug 9 20:39:41 CDT 2017
Available scratch disk space (Kbyte units) at beginning of the job is
Filesystem           1K-blocks      Used Available Use% Mounted on
/dev/sda1             16126920   3962036  11345684  26% /
GAMESS temporary binary files will be written to /scratch
GAMESS supplementary output files will be written to /home/sarom/restart
Copying input file mc-nacme-nh2ch2.inp to your run's scratch directory...
cp /home/sarom/dir.git.branch.saromleang-travis-ci/tests/mcscf/nacme/parallel/mc-nacme-nh2ch2.inp /scratch/mc-nacme-nh2ch2.F05
unset echo
The generated host list is
compute-0-5.local
/home/sarom/dir.git.branch.saromleang-travis-ci/ddikick.x /home/sarom/dir.git.branch.saromleang-travis-ci/gamess.00.x mc-nacme-nh2ch2 -ddi 1 1 compute-0-5.local -scr /scratch

 Distributed Data Interface kickoff program.
 Initiating 1 compute processes on 1 nodes to run the following command:
 /home/sarom/dir.git.branch.saromleang-travis-ci/gamess.00.x mc-nacme-nh2ch2 

          ******************************************************
          *         GAMESS VERSION = 20 APR 2017 (R1)          *
          *             FROM IOWA STATE UNIVERSITY             *
          * M.W.SCHMIDT, K.K.BALDRIDGE, J.A.BOATZ, S.T.ELBERT, *
          *   M.S.GORDON, J.H.JENSEN, S.KOSEKI, N.MATSUNAGA,   *
          *          K.A.NGUYEN, S.J.SU, T.L.WINDUS,           *
          *       TOGETHER WITH M.DUPUIS, J.A.MONTGOMERY       *
          *         J.COMPUT.CHEM.  14, 1347-1363(1993)        *
          **************** 64 BIT LINUX VERSION ****************

  SINCE 1993, STUDENTS AND POSTDOCS WORKING AT IOWA STATE UNIVERSITY
  AND ALSO IN THEIR VARIOUS JOBS AFTER LEAVING ISU HAVE MADE IMPORTANT
  CONTRIBUTIONS TO THE CODE:
     IVANA ADAMOVIC, CHRISTINE AIKENS, YURI ALEXEEV, POOJA ARORA,
     ANDREY ASADCHEV, ROB BELL, PRADIPTA BANDYOPADHYAY, JONATHAN BENTZ,
     BRETT BODE, KURT BRORSEN, CALEB CARLIN, GALINA CHABAN, WEI CHEN,
     CHEOL HO CHOI, PAUL DAY, ALBERT DEFUSCO, NUWAN DESILVA, TIM DUDLEY,
     DMITRI FEDOROV, GRAHAM FLETCHER, MARK FREITAG, KURT GLAESEMANN,
     DAN KEMP, GRANT MERRILL, NORIYUKI MINEZAWA, JONATHAN MULLIN,
     TAKESHI NAGATA, SEAN NEDD, HEATHER NETZLOFF, BOSILJKA NJEGIC, RYAN OLSON,
     MIKE PAK, SPENCER PRUITT, LUKE ROSKOP, JIM SHOEMAKER, LYUDMILA SLIPCHENKO,
     TONY SMITH, SAROM SOK LEANG, JIE SONG, TETSUYA TAKETSUGU, SIMON WEBB,
     PENG XU, SOOHAENG YOO, FEDERICO ZAHARIEV

  ADDITIONAL CODE HAS BEEN PROVIDED BY COLLABORATORS IN OTHER GROUPS:
     IOWA STATE UNIVERSITY:
          JOE IVANIC, AARON WEST, LAIMUTIS BYTAUTAS, KLAUS RUEDENBERG
     UNIVERSITY OF TOKYO: KIMIHIKO HIRAO, TAKAHITO NAKAJIMA,
          TAKAO TSUNEDA, MUNEAKI KAMIYA, SUSUMU YANAGISAWA,
          KIYOSHI YAGI, MAHITO CHIBA, SEIKEN TOKURA, NAOAKI KAWAKAMI
     UNIVERSITY OF AARHUS: FRANK JENSEN
     UNIVERSITY OF IOWA: VISVALDAS KAIRYS, HUI LI
     NATIONAL INST. OF STANDARDS AND TECHNOLOGY: WALT STEVENS, DAVID GARMER
     UNIVERSITY OF PISA: BENEDETTA MENNUCCI, JACOPO TOMASI
     UNIVERSITY OF MEMPHIS: HENRY KURTZ, PRAKASHAN KORAMBATH
     UNIVERSITY OF ALBERTA: TOBY ZENG, MARIUSZ KLOBUKOWSKI
     UNIVERSITY OF NEW ENGLAND: MARK SPACKMAN
     MIE UNIVERSITY: HIROAKI UMEDA
     NAT. INST. OF ADVANCED INDUSTRIAL SCIENCE AND TECHNOLOGY: KAZUO KITAURA
     MICHIGAN STATE UNIVERSITY:
          KAROL KOWALSKI, MARTA WLOCH, JEFFREY GOUR, JESSE LUTZ,
          WEI LI, PIOTR PIECUCH
     UNIVERSITY OF SILESIA: MONIKA MUSIAL, STANISLAW KUCHARSKI
     FACULTES UNIVERSITAIRES NOTRE-DAME DE LA PAIX:
          OLIVIER QUINET, BENOIT CHAMPAGNE
     UNIVERSITY OF CALIFORNIA - SANTA BARBARA: BERNARD KIRTMAN
     INSTITUTE FOR MOLECULAR SCIENCE:
          KAZUYA ISHIMURA, MICHIO KATOUDA, AND SHIGERU NAGASE
     UNIVERSITY OF NOTRE DAME: ANNA POMOGAEVA, DAN CHIPMAN
     KYUSHU UNIVERSITY:
          HARUYUKI NAKANO,
          FENG LONG GU, JACEK KORCHOWIEC, MARCIN MAKOWSKI, AND YURIKO AOKI,
          HIROTOSHI MORI AND EISAKU MIYOSHI
     PENNSYLVANIA STATE UNIVERSITY:
          TZVETELIN IORDANOV, CHET SWALINA, JONATHAN SKONE,
          SHARON HAMMES-SCHIFFER
     WASEDA UNIVERSITY:
          MASATO KOBAYASHI, TOMOKO AKAMA, TSUGUKI TOUMA,
          TAKESHI YOSHIKAWA, YASUHIRO IKABATA, JUNJI SEINO,
          YUYA NAKAJIMA, HIROMI NAKAI
     NANJING UNIVERSITY: SHUHUA LI
     UNIVERSITY OF NEBRASKA:
          PEIFENG SU, DEJUN SI, NANDUN THELLAMUREGE, YALI WANG, HUI LI
     UNIVERSITY OF ZURICH: ROBERTO PEVERATI, KIM BALDRIDGE
     N. COPERNICUS UNIVERSITY AND JACKSON STATE UNIVERSITY:
          MARIA BARYSZ
     UNIVERSITY OF COPENHAGEN: Jimmy Kromann, CASPER STEINMANN
     TOKYO INSTITUTE OF TECHNOLOGY: HIROYA NAKATA
     NAGOYA UNIVERSITY: YOSHIO NISHIMOTO, STEPHAN IRLE
     MOSCOW STATE UNIVERSITY: VLADIMIR MIRONOV

 EXECUTION OF GAMESS BEGUN Wed Aug  9 20:39:41 2017

            ECHO OF THE FIRST FEW INPUT CARDS -
 INPUT CARD>!   this is a CH2NH2+ test case used in Columbus...from Aaron (4/2012)          
 INPUT CARD>!   1st orbital space is CH2 and NH2 sigma bonds, without any antibonds,        
 INPUT CARD>!                        so the first ORMAS subspace is doubly occupied.        
 INPUT CARD>!   2nd orbital space is CN's pi/pi*                                            
 INPUT CARD>!   3rd orbital space is CN's sigma/sigma*                                      
 INPUT CARD>!                                                                               
 INPUT CARD>!   The MCSCF ran for 7 iterations, the CP-MCHF for 6 iterations                
 INPUT CARD>!                                                                               
 INPUT CARD>!       STATE-SPECIFIC GRADIENT OF STATE   3 (OVERALL STATE   4)                
 INPUT CARD>!       ENERGY=      -93.6015651803 SPIN=  0.00 WEIGHT= 0.050000                
 INPUT CARD>!       UNITS ARE HARTREE/BOHR    E'X               E'Y               E'Z       
 INPUT CARD>!          1 N               -0.019019704       0.241648308      -0.324393030   
 INPUT CARD>!          2 C               -0.003448944      -0.043306500       0.435314522   
 INPUT CARD>!          3 H                0.052049827      -0.251571533      -0.145386912   
 INPUT CARD>!          4 H               -0.010836398       0.020811318      -0.026896958   
 INPUT CARD>!          5 H               -0.009617242      -0.021237165       0.011410981   
 INPUT CARD>!          6 H               -0.009127539       0.053655572       0.049951397   
 INPUT CARD>!                                                                               
 INPUT CARD>!       NONADIABATIC COUPLING MATRIX ELEMENT (NACME), IN ONE/BOHR               
 INPUT CARD>!       <STATE  2, WEIGHT=   0.05000 | D/DQ | STATE  1, WEIGHT=   0.90000>      
 INPUT CARD>!         ATOM               D/DX           D/DY           D/DZ                 
 INPUT CARD>!          1 N               0.0429180     -0.0002847      0.2372465            
 INPUT CARD>!          2 C               0.0413341     -0.0175498      0.1764592            
 INPUT CARD>!          3 H              -0.0048181     -0.0409116     -0.0021023            
 INPUT CARD>!          4 H              -0.0131474      0.0289883     -0.0199986            
 INPUT CARD>!          5 H              -0.0089250      0.0072620     -0.0148161            
 INPUT CARD>!          6 H              -0.0180977     -0.0091622     -0.0164083            
 INPUT CARD>!                                                                               
 INPUT CARD>!   This run takes 33 seconds on 2.66 GHz Cloverton (27 Apr 2015)               
 INPUT CARD>!                                                                               
 INPUT CARD> $contrl icharg=+1 mult=1 scftyp=mcscf runtyp=nacme ispher=1 $end               
 INPUT CARD> $system mwords=100 memddi=30 $end                                              
 INPUT CARD> $guess  guess=moread norb=36 $end                                              
 INPUT CARD> $basis  GBASIS=N31 NGAUSS=6 NDFUNC=1 $end                                      
 INPUT CARD> $statpt opttol=1.0d-6 $end                                                     
 INPUT CARD> $MCSCF  cistep=ormas fullnr=.t. $end                                           
 INPUT CARD> $det    iroot=1 nstate=18 clobbr=.false. WSTATE(1)=90,5,5 mxxpan=50 $end       
 INPUT CARD> $CPMCHF cptol=1E-06 maxit=140 gcrodr=.t. micit=80 kicit=10 $END                
 INPUT CARD>!            this is scenario "a"                                               
 INPUT CARD> $cpmchf prcchg=.true. $end                                                     
 INPUT CARD> $det    ncore=2 nact=8 nels=12 $end                                            
 INPUT CARD> $ORMAS  nspace=3 mstart(1)=3,7,9 mine(1)=8,2,2 maxe(1)=8,2,2 $end              
 INPUT CARD>!            this is scenario "b"                                               
 INPUT CARD>x$cpmchf prcchg=.false. $end                                                    
 INPUT CARD>x$det    ncore=6 nact=4 nels=4 $end                                             
 INPUT CARD>x$ormas  nspace=2 mstart(1)=7,9   mine(1)=2,2   maxe(1)=2,2 $end                
 INPUT CARD>                                                                                
 INPUT CARD> $DATA                                                                          
 INPUT CARD>GAMESS input generated by Newton-X                                              
 INPUT CARD>C1                                                                              
  100000000 WORDS OF MEMORY AVAILABLE

     BASIS OPTIONS
     -------------
     GBASIS=N31          IGAUSS=       6      POLAR=POPN31  
     NDFUNC=       1     NFFUNC=       0     DIFFSP=       F
     NPFUNC=       0      DIFFS=       F     BASNAM=        


     RUN TITLE
     ---------
 GAMESS input generated by Newton-X                                              

 THE POINT GROUP OF THE MOLECULE IS C1      
 THE ORDER OF THE PRINCIPAL AXIS IS     0

 ATOM      ATOMIC                      COORDINATES (BOHR)
           CHARGE         X                   Y                   Z
 N           7.0     0.1349345236       -0.2302860340        1.1864918624
 C           6.0     0.1780914998       -0.0067007227       -1.2313169565
 H           1.0    -0.1822912836        1.2379421469        1.7158668883
 H           1.0    -0.0283501606       -1.8850340060        2.0594358536
 H           1.0     0.3121234714        1.8018664283       -1.9456799805
 H           1.0     0.4371980283       -1.6496485275       -2.0853094338

          INTERNUCLEAR DISTANCES (ANGS.)
          ------------------------------

                1 N          2 C          3 H          4 H          5 H     

   1 N       0.0000000    1.2851113 *  0.8427991 *  0.9937949 *  1.9779864 *
   2 C       1.2851113 *  0.0000000    1.7036635 *  2.0080731 *  1.0314470 *
   3 H       0.8427991 *  1.7036635 *  0.0000000    1.6645731 *  1.9778336 *
   4 H       0.9937949 *  2.0080731 *  1.6645731 *  0.0000000    2.8863265 *
   5 H       1.9779864 *  1.0314470 *  1.9778336 *  2.8863265 *  0.0000000  
   6 H       1.8940286 *  0.9893940 *  2.5472555 *  2.2106094 *  1.8291550 *

                6 H     

   1 N       1.8940286 *
   2 C       0.9893940 *
   3 H       2.5472555 *
   4 H       2.2106094 *
   5 H       1.8291550 *
   6 H       0.0000000  

  * ... LESS THAN  3.000


     ATOMIC BASIS SET
     ----------------
 THE CONTRACTED PRIMITIVE FUNCTIONS HAVE BEEN UNNORMALIZED
 THE CONTRACTED BASIS FUNCTIONS ARE NOW NORMALIZED TO UNITY

  SHELL TYPE  PRIMITIVE        EXPONENT          CONTRACTION COEFFICIENT(S)

 N         

      1   S       1          4173.5114600    0.001834772160
      1   S       2           627.4579110    0.013994627002
      1   S       3           142.9020930    0.068586551812
      1   S       4            40.2343293    0.232240873040
      1   S       5            12.8202129    0.469069948082
      1   S       6             4.3904370    0.360455199063

      2   L       7            11.6263619   -0.114961181702    0.067579743878
      2   L       8             2.7162798   -0.169117478561    0.323907295893
      2   L       9             0.7722184    1.145851947027    0.740895139755

      3   L      10             0.2120315    1.000000000000    1.000000000000

      4   D      11             0.8000000    1.000000000000

 C         

      5   S      12          3047.5248800    0.001834737132
      5   S      13           457.3695180    0.014037322813
      5   S      14           103.9486850    0.068842622264
      5   S      15            29.2101553    0.232184443216
      5   S      16             9.2866630    0.467941348435
      5   S      17             3.1639270    0.362311985337

      6   L      18             7.8682723   -0.119332419775    0.068999066591
      6   L      19             1.8812885   -0.160854151696    0.316423960957
      6   L      20             0.5442493    1.143456437840    0.744308290898

      7   L      21             0.1687145    1.000000000000    1.000000000000

      8   D      22             0.8000000    1.000000000000

 H         

      9   S      23            18.7311370    0.033494604338
      9   S      24             2.8253944    0.234726953484
      9   S      25             0.6401217    0.813757326146

     10   S      26             0.1612778    1.000000000000

 H         

     11   S      27            18.7311370    0.033494604338
     11   S      28             2.8253944    0.234726953484
     11   S      29             0.6401217    0.813757326146

     12   S      30             0.1612778    1.000000000000

 H         

     13   S      31            18.7311370    0.033494604338
     13   S      32             2.8253944    0.234726953484
     13   S      33             0.6401217    0.813757326146

     14   S      34             0.1612778    1.000000000000

 H         

     15   S      35            18.7311370    0.033494604338
     15   S      36             2.8253944    0.234726953484
     15   S      37             0.6401217    0.813757326146

     16   S      38             0.1612778    1.000000000000

 TOTAL NUMBER OF BASIS SET SHELLS             =   16
 NUMBER OF CARTESIAN GAUSSIAN BASIS FUNCTIONS =   38
 NOTE: THIS RUN WILL RESTRICT THE MO VARIATION SPACE TO SPHERICAL HARMONICS.
 THE NUMBER OF ORBITALS KEPT IN THE VARIATIONAL SPACE WILL BE PRINTED LATER.
 NUMBER OF ELECTRONS                          =   16
 CHARGE OF MOLECULE                           =    1
 SPIN MULTIPLICITY                            =    1
 NUMBER OF OCCUPIED ORBITALS (ALPHA)          =    8
 NUMBER OF OCCUPIED ORBITALS (BETA )          =    8
 TOTAL NUMBER OF ATOMS                        =    6
 THE NUCLEAR REPULSION ENERGY IS       40.4829849545

     $CONTRL OPTIONS
     ---------------
 SCFTYP=MCSCF        RUNTYP=NACME        EXETYP=RUN     
 MPLEVL=       0     CITYP =NONE         CCTYP =NONE         VBTYP =NONE    
 DFTTYP=NONE         TDDFT =NONE    
 MULT  =       1     ICHARG=       1     NZVAR =       0     COORD =UNIQUE  
 PP    =NONE         RELWFN=NONE         LOCAL =NONE         NUMGRD=       F
 ISPHER=       1     NOSYM =       0     MAXIT =      30     UNITS =ANGS    
 PLTORB=       F     MOLPLT=       F     AIMPAC=       F     FRIEND=        
 NPRINT=       7     IREST =       0     GEOM  =INPUT   
 NORMF =       0     NORMP =       0     ITOL  =      20     ICUT  =       9
 INTTYP=BEST         GRDTYP=BEST         QMTTOL= 1.0E-06

     $SYSTEM OPTIONS
     ---------------
  REPLICATED MEMORY=   100000000 WORDS (ON EVERY NODE).
 DISTRIBUTED MEMDDI=          30 MILLION WORDS IN AGGREGATE,
 MEMDDI DISTRIBUTED OVER   1 PROCESSORS IS    30000000 WORDS/PROCESSOR.
 TOTAL MEMORY REQUESTED ON EACH PROCESSOR=   130000000 WORDS.
 TIMLIM=      525600.00 MINUTES, OR     365.0 DAYS.
 PARALL= F  BALTYP=  DLB     KDIAG=    0  COREFL= F
 MXSEQ2=     300 MXSEQ3=     150  mem10=         0

          ----------------
          PROPERTIES INPUT
          ----------------

     MOMENTS            FIELD           POTENTIAL          DENSITY
 IEMOM =       1   IEFLD =       0   IEPOT =       0   IEDEN =       0
 WHERE =COMASS     WHERE =NUCLEI     WHERE =NUCLEI     WHERE =NUCLEI  
 OUTPUT=BOTH       OUTPUT=BOTH       OUTPUT=BOTH       OUTPUT=BOTH    
 IEMINT=       0   IEFINT=       0                     IEDINT=       0
                                                       MORB  =       0

     -------------------------------
     INTEGRAL TRANSFORMATION OPTIONS
     -------------------------------
     NWORD  =            0
     CUTOFF = 1.0E-09     MPTRAN =       0
     DIRTRF =       F     AOINTS =DUP     

          ----------------------
          MCSCF INPUT PARAMETERS
          ----------------------
 CONVERGER SELECTION: FOCAS = F  SOSCF = F  FULLNR = T  QUD = F  JACOBI = F
 SECULAR EQUATION METHOD CISTEP = ORMAS   
 --- GENERAL INPUT OPTIONS:
 MAXIT =      30  MICIT =       1  ACURCY= 1.000E-05
 DAMP  =   0.000  CANONC=       T  ENGTOL= 1.000E-10
 EKT   =       F  NPUNCH=       2  NWORD =         0
 REGENERATE CI AFTER CONVERGENCE = NONE    
 DIABATIZATION AFTER CONVERGENCE =        F
 --- INPUT FOR FULLNR CONVERGER:
 METHOD=DM2       FORS  =       F  DROPC =       T
 LINSER=       F  FCORE =       F  NORB  =      38

          ----------------------
          INTEGRAL INPUT OPTIONS
          ----------------------
 NOPK  =       1 NORDER=       0 SCHWRZ=       T

     ------------------------------------------
     THE POINT GROUP IS C1 , NAXIS= 0, ORDER= 1
     ------------------------------------------

 -- VARIATIONAL SPACE WILL BE RESTRICTED TO PURE SPHERICAL HARMONICS ONLY --
 AFTER EXCLUDING CONTAMINANT COMBINATIONS FROM THE CARTESIAN GAUSSIAN BASIS
 SET, THE NUMBER OF SPHERICAL HARMONICS KEPT IN THE VARIATION SPACE IS   36

     DIMENSIONS OF THE SYMMETRY SUBSPACES ARE
 A   =   36

 ..... DONE SETTING UP THE RUN .....
 STEP CPU TIME =     0.04 TOTAL CPU TIME =        0.0 (    0.0 MIN)
 TOTAL WALL CLOCK TIME=        0.0 SECONDS, CPU UTILIZATION IS 100.00%

     ------------------------------
     CPHF RESPONSE SOLUTION OPTIONS
     ------------------------------
     POLAR  =       F     NWORD  =       0
     CPHF   =MO      

          ********************
          1 ELECTRON INTEGRALS
          ********************
 TIME TO DO   DIPOLE INTEGRALS=      0.00
 ...... END OF ONE-ELECTRON INTEGRALS ......
 STEP CPU TIME =     0.00 TOTAL CPU TIME =        0.0 (    0.0 MIN)
 TOTAL WALL CLOCK TIME=        0.0 SECONDS, CPU UTILIZATION IS  80.00%

          -------------
          GUESS OPTIONS
          -------------
          GUESS =MOREAD            NORB  =      36          NORDER=       0
          MIX   =       F          PRTMO =       F          PUNMO =       F
          TOLZ  = 1.0E-08          TOLE  = 1.0E-05
          SYMDEN=       F          PURIFY=       F

 INITIAL GUESS ORBITALS GENERATED BY MOREAD   ROUTINE.

 STATISTICS FOR GENERATION OF SYMMETRY ORBITAL -Q- MATRIX
 NUMBER OF CARTESIAN ATOMIC ORBITALS=         38
 NUMBER OF SPHERICAL CONTAMINANTS DROPPED=     2
 NUMBER OF LINEARLY DEPENDENT MOS DROPPED=     0
 TOTAL NUMBER OF MOS IN VARIATION SPACE=      36

 SYMMETRIES FOR INITIAL GUESS ORBITALS FOLLOW.   BOTH SET(S).
     8 ORBITALS ARE OCCUPIED (    2 CORE ORBITALS).
     1=A        2=A        3=A        4=A        5=A        6=A        7=A   
     8=A        9=A       10=A       11=A       12=A       13=A       14=A   
    15=A       16=A       17=A       18=A       19=A       20=A       21=A   
    22=A       23=A       24=A       25=A       26=A       27=A       28=A   
    29=A       30=A       31=A       32=A       33=A       34=A       35=A   
    36=A   
 ...... END OF INITIAL ORBITAL SELECTION ......
 STEP CPU TIME =     0.00 TOTAL CPU TIME =        0.0 (    0.0 MIN)
 TOTAL WALL CLOCK TIME=        0.0 SECONDS, CPU UTILIZATION IS  80.00%

                    ----------------------
                    AO INTEGRAL TECHNOLOGY
                    ----------------------
     S,P,L SHELL ROTATED AXIS INTEGRALS, REPROGRAMMED BY
        KAZUYA ISHIMURA (IMS) AND JOSE SIERRA (SYNSTAR).
     S,P,D,L SHELL ROTATED AXIS INTEGRALS PROGRAMMED BY
        KAZUYA ISHIMURA (INSTITUTE FOR MOLECULAR SCIENCE).
     S,P,D,F,G SHELL TO TOTAL QUARTET ANGULAR MOMENTUM SUM 5,
        ERIC PROGRAM BY GRAHAM FLETCHER (ELORET AND NASA ADVANCED
        SUPERCOMPUTING DIVISION, AMES RESEARCH CENTER).
     S,P,D,F,G,L SHELL GENERAL RYS QUADRATURE PROGRAMMED BY
        MICHEL DUPUIS (PACIFIC NORTHWEST NATIONAL LABORATORY).

          --------------------
          2 ELECTRON INTEGRALS
          --------------------

 THE -PK- OPTION IS OFF, THE INTEGRALS ARE NOT IN SUPERMATRIX FORM.
 STORING   15000 INTEGRALS/RECORD ON DISK, USING 12 BYTES/INTEGRAL.
 TWO ELECTRON INTEGRAL EVALUATION REQUIRES   90532 WORDS OF MEMORY.
 SCHWARZ INEQUALITY OVERHEAD:       741 INTEGRALS, T=        0.00
 II,JST,KST,LST =  1  1  1  1 NREC =         1 INTLOC =    1
 II,JST,KST,LST =  2  1  1  1 NREC =         1 INTLOC =    2
 II,JST,KST,LST =  3  1  1  1 NREC =         1 INTLOC =   34
 II,JST,KST,LST =  4  1  1  1 NREC =         1 INTLOC =  214
 II,JST,KST,LST =  5  1  1  1 NREC =         1 INTLOC = 1189
 II,JST,KST,LST =  6  1  1  1 NREC =         1 INTLOC = 3226
 II,JST,KST,LST =  7  1  1  1 NREC =         2 INTLOC =  977
 II,JST,KST,LST =  8  1  1  1 NREC =         3 INTLOC = 8233
 II,JST,KST,LST =  9  1  1  1 NREC =         7 INTLOC = 6163
 II,JST,KST,LST = 10  1  1  1 NREC =         8 INTLOC = 6074
 II,JST,KST,LST = 11  1  1  1 NREC =         9 INTLOC = 7474
 II,JST,KST,LST = 12  1  1  1 NREC =        10 INTLOC =10442
 II,JST,KST,LST = 13  1  1  1 NREC =        12 INTLOC =  111
 II,JST,KST,LST = 14  1  1  1 NREC =        13 INTLOC = 6548
 II,JST,KST,LST = 15  1  1  1 NREC =        14 INTLOC =14894
 II,JST,KST,LST = 16  1  1  1 NREC =        16 INTLOC =10236
 SCHWARZ INEQUALITY TEST SKIPPED           5 INTEGRAL BLOCKS.
 TOTAL NUMBER OF NONZERO TWO-ELECTRON INTEGRALS =              262689
         18 INTEGRAL RECORDS WERE STORED ON DISK FILE  8.
  ...... END OF TWO-ELECTRON INTEGRALS .....
 STEP CPU TIME =     0.04 TOTAL CPU TIME =        0.1 (    0.0 MIN)
 TOTAL WALL CLOCK TIME=        0.1 SECONDS, CPU UTILIZATION IS  88.89%

          -----------------
          MCSCF CALCULATION
          -----------------

 ----- NUCLEAR ENERGY ----- =        40.4829849545

     ------------------------------------------------------------
       DIRECT DETERMINANT ORMAS-CI INPUT SORTER
       PROGRAM WRITTEN BY JOE IVANIC AND MIKE SCHMIDT
       ORMAS = OCCUPATION RESTRICTED MULTIPLE ACTIVE SPACE
     ------------------------------------------------------------

 RUNTYP=NACME    INVOLVING AN ANALYTIC NUCLEAR GRADIENT
 HAS BEEN REQUESTED FOR A RUN AVERAGING OVER   3 STATES.
 THIS REQUIRES SOLUTION OF THE MULTI-REFERENCE RESPONSE EQUATIONS,
 REQUIRING MORE COMPUTER TIME THAN SINGLE STATE GRADIENTS.
 PROVIDING $CPMCHF INPUT MAY HELP RESPONSE SOLVING.

 THE POINT GROUP                  =   C1      
 THE STATE SYMMETRY               =   A       
 NUMBER OF CORE ORBITALS          =    2
 NUMBER OF ACTIVE ORBITALS        =    8
 NUMBER OF ALPHA ELECTRONS        =    8 (   6 ACTIVE)
 NUMBER OF BETA ELECTRONS         =    8 (   6 ACTIVE)
 NUMBER OF OCCUPIED ORBITALS      =   10

 NUMBER OF CI STATES REQUESTED    =   18
 NUMBER OF CI STARTING VECTORS    =   18
 MAX. NO. OF CI EXPANSION VECTORS =   50
 SIZE OF INITIAL CI GUESS MATRIX  =  300

 MAX. NO. OF CI ITERS/STATE       =  100
 CI DIAGONALIZATION CRITERION     = 1.00E-06
 PURE SPIN STATE AVERAGED 1E- AND 2E- DENSITY MATRIX OPTION=.T.
 STATE=   1 DM2 WEIGHT=   0.90000     STATE=   2 DM2 WEIGHT=   0.05000
 STATE=   3 DM2 WEIGHT=   0.05000
 STATE-AVERAGED MCSCF USING IROOT=  1 AS ITS STATE-SPECIFIC E

 CORRELATION ENERGY ANALYSIS      =    F

 FULLY DIRECT OPTION              =    F

 CALC. OF DAVIDSON Q CORRECTION   =    F

 BLOCK SPACE MIXING IN NO DIAG    =    F

 SYMMETRIES FOR THE   2 CORE,   8 ACTIVE ARE

     CORE= A     A   

   ACTIVE= A     A     A     A     A     A     A     A   

 THE NUMBER OF SPACES             =   3
 EACH SPACE STARTS AT ORBITAL     =   3   7   9
 NO OF ORBITALS IN EACH SPACE     =   4   2   2
 MIN NO OF ELECS IN EACH SPACE    =   8   2   2
 MAX NO OF ELECS IN EACH SPACE    =   8   2   2

 SPACE SPECIFICATIONS HAVE PASSED PRELIMINARY CHECKS

 ALL VALID DETERMINANTS WILL BE EXPRESSED AS PAIRS OF ALPHA AND BETA STRINGS.

 MIN NO OF ALPHA ELECS =    4   0   0
 MAX NO OF ALPHA ELECS =    4   2   2

 MIN NO OF BETA  ELECS =    4   0   0
 MAX NO OF BETA  ELECS =    4   2   2

     --------------------------------------------
     PARTIAL TWO ELECTRON INTEGRAL TRANSFORMATION
     --------------------------------------------

 NUMBER OF CORE MOLECULAR ORBITALS     =    2
 NUMBER OF OCCUPIED MOLECULAR ORBITALS =   10
 TOTAL NUMBER OF MOLECULAR ORBITALS    =   36
 TOTAL NUMBER OF ATOMIC ORBITALS       =   38
 THRESHOLD FOR KEEPING TRANSFORMED 2E- INTEGRALS = 1.000E-09
 AO INTEGRALS WILL BE READ IN FROM DISK...

 PLAN A: REQUIREMENTS FOR FULLY IN-MEMORY TRANSFORMATION:
 # OF WORDS AVAILABLE =            100000000
 # OF WORDS NEEDED    =               348878

 CHOOSING IN MEMORY PARTIAL TRANSFORMATION...
 TOTAL NUMBER OF TRANSFORMED 2E- INTEGRALS KEPT =        68865
 ----- FROZEN CORE ENERGY =       -92.5697919006
 ... END OF INTEGRAL TRANSFORMATION ...
 STEP CPU TIME =     0.03 TOTAL CPU TIME =        0.1 (    0.0 MIN)
 TOTAL WALL CLOCK TIME=        0.1 SECONDS, CPU UTILIZATION IS  91.67%

     --------------------------------------------------
                 DIRECT DETERMINANT ORMAS-CI 
                PROGRAM WRITTEN BY JOE IVANIC
     --------------------------------------------------

 STORAGE OF BINOMIAL COEFFICIENTS REQUIRES          43 WORDS

 TOTAL NUMBER OF ALPHA GROUPS  =            3
 TOTAL NUMBER OF BETA  GROUPS  =            3

 TOTAL NUMBER OF ALPHA STRINGS =            6
 TOTAL NUMBER OF BETA  STRINGS =            6

 STORAGE OF TABLES REQUIRES                       246 WORDS

 TOTAL NUMBER OF ALPHA-BETA GROUP COMBINATIONS =            9
 OF THESE THE ALLOWED NUMBER OF COMBINATIONS   =            3

 TOTAL NUMBER OF (B -> B`) WHERE  (B` > B)  =           12

 TIME FOR SETTING UP TABLE SET 1 :          0.0

 THE NUMBER OF DETERMINANTS HAVING SPACE SYMMETRY A  
 IN POINT GROUP C1   WITH SZ=  0.0 IS             18

 INTEGRAL STORAGE REQUIRES                   30739 WORDS
 EXTRA ORMAS STORAGE REQUIRES               186299 WORDS
 (EXTRA ORMAS STORAGE INCLUDES THAT FOR MXXPAN = 50)
 TOTAL ORMAS CALCULATION REQUIRES           217327 WORDS

 FULLY DIRECT WOULD REQUIRE                 217246 WORDS
 SMALL CI MATRIX, JUST USING INCORE DIAGONALIZATION...

 INITIAL ORMAS VECTOR GUESS TIME :          0.0

 CI EIGENVECTORS WILL BE LABELED IN GROUP=C1      
 PRINTING ALL NON-ZERO CI COEFFICIENTS

 STATE   1  ENERGY=       -94.3550444159  S=  0.00  SZ=  0.00  SPACE SYM=A   

         ALPHA           |          BETA           | CI COEFFICIENT
 1           2     3     | 1           2     3     |
-------------------------|-------------------------|---------------
  1  2  3  4  5     7    |  1  2  3  4  5     7    |   0.9683275307
  1  2  3  4  6     7    |  1  2  3  4  6     7    |  -0.1254498005
  1  2  3  4  5     7    |  1  2  3  4  6     7    |   0.1212930880
  1  2  3  4  6     7    |  1  2  3  4  5     7    |   0.1212930880
  1  2  3  4  5     8    |  1  2  3  4  5     8    |  -0.0602880758
  1  2  3  4  5     7    |  1  2  3  4  5     8    |  -0.0553999786
  1  2  3  4  5     8    |  1  2  3  4  5     7    |  -0.0553999786
  1  2  3  4  5     8    |  1  2  3  4  6     7    |   0.0466190441
  1  2  3  4  6     7    |  1  2  3  4  5     8    |   0.0466190441
  1  2  3  4  5     7    |  1  2  3  4  6     8    |   0.0337047741
  1  2  3  4  6     8    |  1  2  3  4  5     7    |   0.0337047741
  1  2  3  4  6     8    |  1  2  3  4  6     8    |   0.0141761907
  1  2  3  4        7  8 |  1  2  3  4  5  6       |  -0.0129142699
  1  2  3  4  5  6       |  1  2  3  4        7  8 |  -0.0129142699
  1  2  3  4  6     8    |  1  2  3  4  5     8    |  -0.0103347538
  1  2  3  4  5     8    |  1  2  3  4  6     8    |  -0.0103347538
  1  2  3  4  6     7    |  1  2  3  4  6     8    |   0.0044898489
  1  2  3  4  6     8    |  1  2  3  4  6     7    |   0.0044898489

 STATE   2  ENERGY=       -94.1355396584  S=  1.00  SZ=  0.00  SPACE SYM=A   

         ALPHA           |          BETA           | CI COEFFICIENT
 1           2     3     | 1           2     3     |
-------------------------|-------------------------|---------------
  1  2  3  4  5     7    |  1  2  3  4  6     7    |   0.7047960235
  1  2  3  4  6     7    |  1  2  3  4  5     7    |  -0.7047960235
  1  2  3  4  5     8    |  1  2  3  4  6     8    |  -0.0497834219
  1  2  3  4  6     8    |  1  2  3  4  5     8    |   0.0497834219
  1  2  3  4  5     8    |  1  2  3  4  5     7    |   0.0248985322
  1  2  3  4  5     7    |  1  2  3  4  5     8    |  -0.0248985322
  1  2  3  4  6     8    |  1  2  3  4  5     7    |   0.0090068571
  1  2  3  4  5     7    |  1  2  3  4  6     8    |  -0.0090068571
  1  2  3  4  6     7    |  1  2  3  4  6     8    |   0.0083246030
  1  2  3  4  6     8    |  1  2  3  4  6     7    |  -0.0083246030
  1  2  3  4  5     8    |  1  2  3  4  6     7    |   0.0036648466
  1  2  3  4  6     7    |  1  2  3  4  5     8    |  -0.0036648466
  1  2  3  4        7  8 |  1  2  3  4  5  6       |  -0.0006210607
  1  2  3  4  5  6       |  1  2  3  4        7  8 |   0.0006210607
  1  2  3  4  5     7    |  1  2  3  4  5     7    |  -0.0000000000
  1  2  3  4  6     7    |  1  2  3  4  6     7    |   0.0000000000
  1  2  3  4  5     8    |  1  2  3  4  5     8    |   0.0000000000
  1  2  3  4  6     8    |  1  2  3  4  6     8    |   0.0000000000

 STATE   3  ENERGY=       -93.9840714066  S=  0.00  SZ=  0.00  SPACE SYM=A   

         ALPHA           |          BETA           | CI COEFFICIENT
 1           2     3     | 1           2     3     |
-------------------------|-------------------------|---------------
  1  2  3  4  6     7    |  1  2  3  4  5     7    |   0.6752014188
  1  2  3  4  5     7    |  1  2  3  4  6     7    |   0.6752014188
  1  2  3  4  5     7    |  1  2  3  4  5     7    |  -0.1712096859
  1  2  3  4  6     7    |  1  2  3  4  6     7    |  -0.1349030441
  1  2  3  4  5     8    |  1  2  3  4  5     7    |   0.1212491830
  1  2  3  4  5     7    |  1  2  3  4  5     8    |   0.1212491830
  1  2  3  4  6     7    |  1  2  3  4  6     8    |   0.0560718854
  1  2  3  4  6     8    |  1  2  3  4  6     7    |   0.0560718854
  1  2  3  4  6     8    |  1  2  3  4  5     8    |  -0.0348861986
  1  2  3  4  5     8    |  1  2  3  4  6     8    |  -0.0348861986
  1  2  3  4  6     8    |  1  2  3  4  5     7    |  -0.0282276680
  1  2  3  4  5     7    |  1  2  3  4  6     8    |  -0.0282276680
  1  2  3  4  5  6       |  1  2  3  4        7  8 |  -0.0142977806
  1  2  3  4        7  8 |  1  2  3  4  5  6       |  -0.0142977806
  1  2  3  4  5     8    |  1  2  3  4  6     7    |  -0.0139298875
  1  2  3  4  6     7    |  1  2  3  4  5     8    |  -0.0139298875
  1  2  3  4  6     8    |  1  2  3  4  6     8    |   0.0133178463
  1  2  3  4  5     8    |  1  2  3  4  5     8    |   0.0012888026

 STATE   4  ENERGY=       -93.6531754527  S=  0.00  SZ=  0.00  SPACE SYM=A   

         ALPHA           |          BETA           | CI COEFFICIENT
 1           2     3     | 1           2     3     |
-------------------------|-------------------------|---------------
  1  2  3  4  6     7    |  1  2  3  4  6     7    |   0.9626341312
  1  2  3  4  6     7    |  1  2  3  4  5     7    |   0.1065150588
  1  2  3  4  5     7    |  1  2  3  4  6     7    |   0.1065150588
  1  2  3  4  5     7    |  1  2  3  4  6     8    |   0.1004491360
  1  2  3  4  6     8    |  1  2  3  4  5     7    |   0.1004491360
  1  2  3  4  5     7    |  1  2  3  4  5     7    |   0.0886096128
  1  2  3  4  6     8    |  1  2  3  4  6     7    |   0.0691183218
  1  2  3  4  6     7    |  1  2  3  4  6     8    |   0.0691183218
  1  2  3  4  6     7    |  1  2  3  4  5     8    |   0.0589955521
  1  2  3  4  5     8    |  1  2  3  4  6     7    |   0.0589955521
  1  2  3  4  6     8    |  1  2  3  4  6     8    |  -0.0473516691
  1  2  3  4  5  6       |  1  2  3  4        7  8 |   0.0414535839
  1  2  3  4        7  8 |  1  2  3  4  5  6       |   0.0414535839
  1  2  3  4  5     7    |  1  2  3  4  5     8    |   0.0115727927
  1  2  3  4  5     8    |  1  2  3  4  5     7    |   0.0115727927
  1  2  3  4  5     8    |  1  2  3  4  5     8    |   0.0111994138
  1  2  3  4  5     8    |  1  2  3  4  6     8    |   0.0035349533
  1  2  3  4  6     8    |  1  2  3  4  5     8    |   0.0035349533

 STATE   5  ENERGY=       -93.3937601858  S=  1.00  SZ=  0.00  SPACE SYM=A   

         ALPHA           |          BETA           | CI COEFFICIENT
 1           2     3     | 1           2     3     |
-------------------------|-------------------------|---------------
  1  2  3  4  5     8    |  1  2  3  4  5     7    |   0.6920250830
  1  2  3  4  5     7    |  1  2  3  4  5     8    |  -0.6920250830
  1  2  3  4  6     7    |  1  2  3  4  6     8    |   0.1009776941
  1  2  3  4  6     8    |  1  2  3  4  6     7    |  -0.1009776941
  1  2  3  4  5     7    |  1  2  3  4  6     8    |  -0.0747223970
  1  2  3  4  6     8    |  1  2  3  4  5     7    |   0.0747223970
  1  2  3  4  5     8    |  1  2  3  4  6     7    |   0.0673775295
  1  2  3  4  6     7    |  1  2  3  4  5     8    |  -0.0673775295
  1  2  3  4  5     7    |  1  2  3  4  6     7    |  -0.0272819042
  1  2  3  4  6     7    |  1  2  3  4  5     7    |   0.0272819042
  1  2  3  4  6     8    |  1  2  3  4  5     8    |   0.0047167551
  1  2  3  4  5     8    |  1  2  3  4  6     8    |  -0.0047167551
  1  2  3  4  5  6       |  1  2  3  4        7  8 |   0.0038822226
  1  2  3  4        7  8 |  1  2  3  4  5  6       |  -0.0038822226
  1  2  3  4  6     7    |  1  2  3  4  6     7    |   0.0000000000
  1  2  3  4  6     8    |  1  2  3  4  6     8    |  -0.0000000000
  1  2  3  4  5     7    |  1  2  3  4  5     7    |   0.0000000000
  1  2  3  4  5     8    |  1  2  3  4  5     8    |   0.0000000000

 STATE   6  ENERGY=       -93.2319558678  S=  2.00  SZ=  0.00  SPACE SYM=A   

         ALPHA           |          BETA           | CI COEFFICIENT
 1           2     3     | 1           2     3     |
-------------------------|-------------------------|---------------
  1  2  3  4  5     8    |  1  2  3  4  6     7    |   0.4082482905
  1  2  3  4  5     7    |  1  2  3  4  6     8    |  -0.4082482905
  1  2  3  4  6     7    |  1  2  3  4  5     8    |   0.4082482905
  1  2  3  4  5  6       |  1  2  3  4        7  8 |   0.4082482905
  1  2  3  4  6     8    |  1  2  3  4  5     7    |  -0.4082482905
  1  2  3  4        7  8 |  1  2  3  4  5  6       |   0.4082482905
  1  2  3  4  5     8    |  1  2  3  4  5     7    |  -0.0000000000
  1  2  3  4  6     7    |  1  2  3  4  5     7    |  -0.0000000000
  1  2  3  4  5     8    |  1  2  3  4  5     8    |   0.0000000000
  1  2  3  4  5     7    |  1  2  3  4  5     7    |  -0.0000000000
  1  2  3  4  6     8    |  1  2  3  4  5     8    |  -0.0000000000
  1  2  3  4  6     7    |  1  2  3  4  6     7    |  -0.0000000000
  1  2  3  4  5     7    |  1  2  3  4  5     8    |   0.0000000000
  1  2  3  4  5     7    |  1  2  3  4  6     7    |  -0.0000000000
  1  2  3  4  6     8    |  1  2  3  4  6     8    |   0.0000000000
  1  2  3  4  5     8    |  1  2  3  4  6     8    |  -0.0000000000
  1  2  3  4  6     7    |  1  2  3  4  6     8    |  -0.0000000000
  1  2  3  4  6     8    |  1  2  3  4  6     7    |   0.0000000000

 STATE   7  ENERGY=       -93.1300259100  S=  1.00  SZ=  0.00  SPACE SYM=A   

         ALPHA           |          BETA           | CI COEFFICIENT
 1           2     3     | 1           2     3     |
-------------------------|-------------------------|---------------
  1  2  3  4  5  6       |  1  2  3  4        7  8 |   0.7013320281
  1  2  3  4        7  8 |  1  2  3  4  5  6       |  -0.7013320281
  1  2  3  4  5     7    |  1  2  3  4  6     8    |   0.0748141454
  1  2  3  4  6     8    |  1  2  3  4  5     7    |  -0.0748141454
  1  2  3  4  5     8    |  1  2  3  4  6     7    |  -0.0479562042
  1  2  3  4  6     7    |  1  2  3  4  5     8    |   0.0479562042
  1  2  3  4  6     7    |  1  2  3  4  6     8    |  -0.0112027718
  1  2  3  4  6     8    |  1  2  3  4  6     7    |   0.0112027718
  1  2  3  4  5     8    |  1  2  3  4  5     7    |   0.0104714104
  1  2  3  4  5     7    |  1  2  3  4  5     8    |  -0.0104714104
  1  2  3  4  5     8    |  1  2  3  4  6     8    |   0.0010489150
  1  2  3  4  6     8    |  1  2  3  4  5     8    |  -0.0010489150
  1  2  3  4  5     7    |  1  2  3  4  6     7    |   0.0004239200
  1  2  3  4  6     7    |  1  2  3  4  5     7    |  -0.0004239200
  1  2  3  4  6     7    |  1  2  3  4  6     7    |  -0.0000000000
  1  2  3  4  5     8    |  1  2  3  4  5     8    |   0.0000000000
  1  2  3  4  5     7    |  1  2  3  4  5     7    |   0.0000000000
  1  2  3  4  6     8    |  1  2  3  4  6     8    |  -0.0000000000

 STATE   8  ENERGY=       -93.0806569784  S=  0.00  SZ=  0.00  SPACE SYM=A   

         ALPHA           |          BETA           | CI COEFFICIENT
 1           2     3     | 1           2     3     |
-------------------------|-------------------------|---------------
  1  2  3  4        7  8 |  1  2  3  4  5  6       |   0.4531991362
  1  2  3  4  5  6       |  1  2  3  4        7  8 |   0.4531991362
  1  2  3  4  5     8    |  1  2  3  4  5     7    |   0.4082744111
  1  2  3  4  5     7    |  1  2  3  4  5     8    |   0.4082744111
  1  2  3  4  5     7    |  1  2  3  4  6     8    |   0.2958105621
  1  2  3  4  6     8    |  1  2  3  4  5     7    |   0.2958105621
  1  2  3  4  5     8    |  1  2  3  4  6     7    |  -0.1573885742
  1  2  3  4  6     7    |  1  2  3  4  5     8    |  -0.1573885742
  1  2  3  4  6     7    |  1  2  3  4  6     7    |  -0.0762828701
  1  2  3  4  6     7    |  1  2  3  4  6     8    |  -0.0749266736
  1  2  3  4  6     8    |  1  2  3  4  6     7    |  -0.0749266736
  1  2  3  4  6     8    |  1  2  3  4  5     8    |   0.0583413719
  1  2  3  4  5     8    |  1  2  3  4  6     8    |   0.0583413719
  1  2  3  4  5     7    |  1  2  3  4  5     7    |   0.0567765775
  1  2  3  4  6     7    |  1  2  3  4  5     7    |  -0.0457320387
  1  2  3  4  5     7    |  1  2  3  4  6     7    |  -0.0457320387
  1  2  3  4  6     8    |  1  2  3  4  6     8    |  -0.0050802800
  1  2  3  4  5     8    |  1  2  3  4  5     8    |  -0.0028712868

 STATE   9  ENERGY=       -93.0671014945  S=  0.00  SZ=  0.00  SPACE SYM=A   

         ALPHA           |          BETA           | CI COEFFICIENT
 1           2     3     | 1           2     3     |
-------------------------|-------------------------|---------------
  1  2  3  4  5     8    |  1  2  3  4  5     7    |   0.5358899733
  1  2  3  4  5     7    |  1  2  3  4  5     8    |   0.5358899733
  1  2  3  4        7  8 |  1  2  3  4  5  6       |  -0.3512886312
  1  2  3  4  5  6       |  1  2  3  4        7  8 |  -0.3512886312
  1  2  3  4  6     7    |  1  2  3  4  5     8    |   0.2222621365
  1  2  3  4  5     8    |  1  2  3  4  6     7    |   0.2222621365
  1  2  3  4  6     8    |  1  2  3  4  5     7    |  -0.1290264947
  1  2  3  4  5     7    |  1  2  3  4  6     8    |  -0.1290264947
  1  2  3  4  5     8    |  1  2  3  4  5     8    |  -0.0874425172
  1  2  3  4  6     7    |  1  2  3  4  5     7    |  -0.0827323407
  1  2  3  4  5     7    |  1  2  3  4  6     7    |  -0.0827323407
  1  2  3  4  6     7    |  1  2  3  4  6     8    |  -0.0767327992
  1  2  3  4  6     8    |  1  2  3  4  6     7    |  -0.0767327992
  1  2  3  4  5     8    |  1  2  3  4  6     8    |   0.0634899237
  1  2  3  4  6     8    |  1  2  3  4  5     8    |   0.0634899237
  1  2  3  4  5     7    |  1  2  3  4  5     7    |   0.0622262553
  1  2  3  4  6     7    |  1  2  3  4  6     7    |   0.0411482111
  1  2  3  4  6     8    |  1  2  3  4  6     8    |  -0.0011570534

 STATE  10  ENERGY=       -93.0072052276  S=  1.00  SZ=  0.00  SPACE SYM=A   

         ALPHA           |          BETA           | CI COEFFICIENT
 1           2     3     | 1           2     3     |
-------------------------|-------------------------|---------------
  1  2  3  4  6     8    |  1  2  3  4  5     7    |   0.5208597926
  1  2  3  4  5     7    |  1  2  3  4  6     8    |  -0.5208597926
  1  2  3  4  5     8    |  1  2  3  4  6     7    |   0.4255224189
  1  2  3  4  6     7    |  1  2  3  4  5     8    |  -0.4255224189
  1  2  3  4  6     8    |  1  2  3  4  6     7    |  -0.1574423961
  1  2  3  4  6     7    |  1  2  3  4  6     8    |   0.1574423961
  1  2  3  4  5     7    |  1  2  3  4  5     8    |   0.1215009352
  1  2  3  4  5     8    |  1  2  3  4  5     7    |  -0.1215009352
  1  2  3  4        7  8 |  1  2  3  4  5  6       |  -0.0890081663
  1  2  3  4  5  6       |  1  2  3  4        7  8 |   0.0890081663
  1  2  3  4  6     8    |  1  2  3  4  5     8    |   0.0104910994
  1  2  3  4  5     8    |  1  2  3  4  6     8    |  -0.0104910994
  1  2  3  4  5     7    |  1  2  3  4  6     7    |  -0.0072557119
  1  2  3  4  6     7    |  1  2  3  4  5     7    |   0.0072557119
  1  2  3  4  5     8    |  1  2  3  4  5     8    |  -0.0000000000
  1  2  3  4  5     7    |  1  2  3  4  5     7    |   0.0000000000
  1  2  3  4  6     7    |  1  2  3  4  6     7    |   0.0000000000
  1  2  3  4  6     8    |  1  2  3  4  6     8    |  -0.0000000000

 STATE  11  ENERGY=       -92.8618906255  S=  1.00  SZ=  0.00  SPACE SYM=A   

         ALPHA           |          BETA           | CI COEFFICIENT
 1           2     3     | 1           2     3     |
-------------------------|-------------------------|---------------
  1  2  3  4  5     8    |  1  2  3  4  6     7    |   0.5441628467
  1  2  3  4  6     7    |  1  2  3  4  5     8    |  -0.5441628467
  1  2  3  4  5     7    |  1  2  3  4  6     8    |   0.4497525786
  1  2  3  4  6     8    |  1  2  3  4  5     7    |  -0.4497525786
  1  2  3  4  6     8    |  1  2  3  4  5     8    |  -0.0319743229
  1  2  3  4  5     8    |  1  2  3  4  6     8    |   0.0319743229
  1  2  3  4  6     8    |  1  2  3  4  6     7    |  -0.0201199971
  1  2  3  4  6     7    |  1  2  3  4  6     8    |   0.0201199971
  1  2  3  4  5  6       |  1  2  3  4        7  8 |  -0.0103948396
  1  2  3  4        7  8 |  1  2  3  4  5  6       |   0.0103948396
  1  2  3  4  5     7    |  1  2  3  4  5     8    |   0.0068735116
  1  2  3  4  5     8    |  1  2  3  4  5     7    |  -0.0068735116
  1  2  3  4  5     7    |  1  2  3  4  6     7    |   0.0051908355
  1  2  3  4  6     7    |  1  2  3  4  5     7    |  -0.0051908355
  1  2  3  4  5     8    |  1  2  3  4  5     8    |   0.0000000000
  1  2  3  4  5     7    |  1  2  3  4  5     7    |  -0.0000000000
  1  2  3  4  6     7    |  1  2  3  4  6     7    |   0.0000000000
  1  2  3  4  6     8    |  1  2  3  4  6     8    |  -0.0000000000

 STATE  12  ENERGY=       -92.7074371387  S=  0.00  SZ=  0.00  SPACE SYM=A   

         ALPHA           |          BETA           | CI COEFFICIENT
 1           2     3     | 1           2     3     |
-------------------------|-------------------------|---------------
  1  2  3  4  6     7    |  1  2  3  4  5     8    |   0.4779745565
  1  2  3  4  5     8    |  1  2  3  4  6     7    |   0.4779745565
  1  2  3  4  6     8    |  1  2  3  4  5     7    |   0.4340760206
  1  2  3  4  5     7    |  1  2  3  4  6     8    |   0.4340760206
  1  2  3  4  5     8    |  1  2  3  4  5     8    |   0.2609035065
  1  2  3  4  6     8    |  1  2  3  4  6     7    |  -0.1392926672
  1  2  3  4  6     7    |  1  2  3  4  6     8    |  -0.1392926672
  1  2  3  4  6     7    |  1  2  3  4  6     7    |  -0.1194260351
  1  2  3  4  5     8    |  1  2  3  4  5     7    |  -0.1037074306
  1  2  3  4  5     7    |  1  2  3  4  5     8    |  -0.1037074306
  1  2  3  4  5     7    |  1  2  3  4  5     7    |  -0.0966749702
  1  2  3  4  6     8    |  1  2  3  4  6     8    |   0.0875280350
  1  2  3  4        7  8 |  1  2  3  4  5  6       |  -0.0438985359
  1  2  3  4  5  6       |  1  2  3  4        7  8 |  -0.0438985359
  1  2  3  4  6     7    |  1  2  3  4  5     7    |   0.0309275496
  1  2  3  4  5     7    |  1  2  3  4  6     7    |   0.0309275496
  1  2  3  4  5     8    |  1  2  3  4  6     8    |  -0.0201704339
  1  2  3  4  6     8    |  1  2  3  4  5     8    |  -0.0201704339

 STATE  13  ENERGY=       -92.6191895328  S=  1.00  SZ=  0.00  SPACE SYM=A   

         ALPHA           |          BETA           | CI COEFFICIENT
 1           2     3     | 1           2     3     |
-------------------------|-------------------------|---------------
  1  2  3  4  6     7    |  1  2  3  4  6     8    |   0.6811933864
  1  2  3  4  6     8    |  1  2  3  4  6     7    |  -0.6811933864
  1  2  3  4  5     8    |  1  2  3  4  6     7    |  -0.1246423741
  1  2  3  4  6     7    |  1  2  3  4  5     8    |   0.1246423741
  1  2  3  4  6     8    |  1  2  3  4  5     7    |  -0.1202848816
  1  2  3  4  5     7    |  1  2  3  4  6     8    |   0.1202848816
  1  2  3  4  5     7    |  1  2  3  4  5     8    |   0.0745177303
  1  2  3  4  5     8    |  1  2  3  4  5     7    |  -0.0745177303
  1  2  3  4  6     8    |  1  2  3  4  5     8    |   0.0176487888
  1  2  3  4  5     8    |  1  2  3  4  6     8    |  -0.0176487888
  1  2  3  4        7  8 |  1  2  3  4  5  6       |   0.0093314154
  1  2  3  4  5  6       |  1  2  3  4        7  8 |  -0.0093314154
  1  2  3  4  5     7    |  1  2  3  4  6     7    |  -0.0044664273
  1  2  3  4  6     7    |  1  2  3  4  5     7    |   0.0044664273
  1  2  3  4  5     8    |  1  2  3  4  5     8    |   0.0000000000
  1  2  3  4  5     7    |  1  2  3  4  5     7    |   0.0000000000
  1  2  3  4  6     8    |  1  2  3  4  6     8    |   0.0000000000
  1  2  3  4  6     7    |  1  2  3  4  6     7    |   0.0000000000

 STATE  14  ENERGY=       -92.3536001040  S=  0.00  SZ=  0.00  SPACE SYM=A   

         ALPHA           |          BETA           | CI COEFFICIENT
 1           2     3     | 1           2     3     |
-------------------------|-------------------------|---------------
  1  2  3  4  6     8    |  1  2  3  4  6     7    |   0.6530894501
  1  2  3  4  6     7    |  1  2  3  4  6     8    |   0.6530894501
  1  2  3  4  6     8    |  1  2  3  4  6     8    |   0.1766714350
  1  2  3  4  5     8    |  1  2  3  4  6     8    |   0.1691237129
  1  2  3  4  6     8    |  1  2  3  4  5     8    |   0.1691237129
  1  2  3  4  6     7    |  1  2  3  4  6     7    |  -0.1030034304
  1  2  3  4  5     8    |  1  2  3  4  6     7    |   0.0914626440
  1  2  3  4  6     7    |  1  2  3  4  5     8    |   0.0914626440
  1  2  3  4  5     7    |  1  2  3  4  6     8    |   0.0893505501
  1  2  3  4  6     8    |  1  2  3  4  5     7    |   0.0893505501
  1  2  3  4  6     7    |  1  2  3  4  5     7    |  -0.0628096803
  1  2  3  4  5     7    |  1  2  3  4  6     7    |  -0.0628096803
  1  2  3  4  5     8    |  1  2  3  4  5     7    |   0.0537676981
  1  2  3  4  5     7    |  1  2  3  4  5     8    |   0.0537676981
  1  2  3  4  5     8    |  1  2  3  4  5     8    |   0.0381675741
  1  2  3  4  5     7    |  1  2  3  4  5     7    |  -0.0091965742
  1  2  3  4  5  6       |  1  2  3  4        7  8 |  -0.0021120939
  1  2  3  4        7  8 |  1  2  3  4  5  6       |  -0.0021120939

 STATE  15  ENERGY=       -92.0408962810  S=  0.00  SZ=  0.00  SPACE SYM=A   

         ALPHA           |          BETA           | CI COEFFICIENT
 1           2     3     | 1           2     3     |
-------------------------|-------------------------|---------------
  1  2  3  4  5     8    |  1  2  3  4  5     8    |   0.9390277021
  1  2  3  4  6     8    |  1  2  3  4  6     8    |  -0.1947630073
  1  2  3  4  5     7    |  1  2  3  4  6     8    |  -0.1227244761
  1  2  3  4  6     8    |  1  2  3  4  5     7    |  -0.1227244761
  1  2  3  4  6     7    |  1  2  3  4  5     8    |  -0.1010174266
  1  2  3  4  5     8    |  1  2  3  4  6     7    |  -0.1010174266
  1  2  3  4  5     7    |  1  2  3  4  5     7    |   0.0890222718
  1  2  3  4  6     8    |  1  2  3  4  5     8    |   0.0826004562
  1  2  3  4  5     8    |  1  2  3  4  6     8    |   0.0826004562
  1  2  3  4  5     8    |  1  2  3  4  5     7    |   0.0596921007
  1  2  3  4  5     7    |  1  2  3  4  5     8    |   0.0596921007
  1  2  3  4  5  6       |  1  2  3  4        7  8 |  -0.0217070495
  1  2  3  4        7  8 |  1  2  3  4  5  6       |  -0.0217070495
  1  2  3  4  6     7    |  1  2  3  4  6     7    |   0.0087472708
  1  2  3  4  6     8    |  1  2  3  4  6     7    |   0.0046556758
  1  2  3  4  6     7    |  1  2  3  4  6     8    |   0.0046556758
  1  2  3  4  5     7    |  1  2  3  4  6     7    |  -0.0013273806
  1  2  3  4  6     7    |  1  2  3  4  5     7    |  -0.0013273806

 STATE  16  ENERGY=       -91.8498479458  S=  1.00  SZ=  0.00  SPACE SYM=A   

         ALPHA           |          BETA           | CI COEFFICIENT
 1           2     3     | 1           2     3     |
-------------------------|-------------------------|---------------
  1  2  3  4  6     8    |  1  2  3  4  5     8    |   0.7043112683
  1  2  3  4  5     8    |  1  2  3  4  6     8    |  -0.7043112683
  1  2  3  4  5     7    |  1  2  3  4  6     7    |  -0.0491786966
  1  2  3  4  6     7    |  1  2  3  4  5     7    |   0.0491786966
  1  2  3  4  5     7    |  1  2  3  4  6     8    |   0.0264107043
  1  2  3  4  6     8    |  1  2  3  4  5     7    |  -0.0264107043
  1  2  3  4  5     8    |  1  2  3  4  6     7    |   0.0207071423
  1  2  3  4  6     7    |  1  2  3  4  5     8    |  -0.0207071423
  1  2  3  4  6     8    |  1  2  3  4  6     7    |   0.0197826223
  1  2  3  4  6     7    |  1  2  3  4  6     8    |  -0.0197826223
  1  2  3  4  5     7    |  1  2  3  4  5     8    |   0.0030137430
  1  2  3  4  5     8    |  1  2  3  4  5     7    |  -0.0030137430
  1  2  3  4  5  6       |  1  2  3  4        7  8 |  -0.0005893213
  1  2  3  4        7  8 |  1  2  3  4  5  6       |   0.0005893213
  1  2  3  4  5     8    |  1  2  3  4  5     8    |  -0.0000000000
  1  2  3  4  6     8    |  1  2  3  4  6     8    |   0.0000000000
  1  2  3  4  6     7    |  1  2  3  4  6     7    |  -0.0000000000
  1  2  3  4  5     7    |  1  2  3  4  5     7    |  -0.0000000000

 STATE  17  ENERGY=       -91.6564812434  S=  0.00  SZ=  0.00  SPACE SYM=A   

         ALPHA           |          BETA           | CI COEFFICIENT
 1           2     3     | 1           2     3     |
-------------------------|-------------------------|---------------
  1  2  3  4  5     8    |  1  2  3  4  6     8    |   0.6332656669
  1  2  3  4  6     8    |  1  2  3  4  5     8    |   0.6332656669
  1  2  3  4  6     8    |  1  2  3  4  6     8    |  -0.3466014397
  1  2  3  4  5     8    |  1  2  3  4  5     8    |  -0.1574602455
  1  2  3  4  6     7    |  1  2  3  4  6     8    |  -0.1057308487
  1  2  3  4  6     8    |  1  2  3  4  6     7    |  -0.1057308487
  1  2  3  4  5     7    |  1  2  3  4  5     8    |  -0.1021159335
  1  2  3  4  5     8    |  1  2  3  4  5     7    |  -0.1021159335
  1  2  3  4  5     7    |  1  2  3  4  6     7    |   0.0596358780
  1  2  3  4  6     7    |  1  2  3  4  5     7    |   0.0596358780
  1  2  3  4  6     7    |  1  2  3  4  5     8    |   0.0237077762
  1  2  3  4  5     8    |  1  2  3  4  6     7    |   0.0237077762
  1  2  3  4  5     7    |  1  2  3  4  5     7    |  -0.0229982067
  1  2  3  4  6     7    |  1  2  3  4  6     7    |  -0.0192280614
  1  2  3  4  5     7    |  1  2  3  4  6     8    |   0.0171421572
  1  2  3  4  6     8    |  1  2  3  4  5     7    |   0.0171421572
  1  2  3  4  5  6       |  1  2  3  4        7  8 |  -0.0065656189
  1  2  3  4        7  8 |  1  2  3  4  5  6       |  -0.0065656189

 STATE  18  ENERGY=       -91.1664888671  S=  0.00  SZ=  0.00  SPACE SYM=A   

         ALPHA           |          BETA           | CI COEFFICIENT
 1           2     3     | 1           2     3     |
-------------------------|-------------------------|---------------
  1  2  3  4  6     8    |  1  2  3  4  6     8    |   0.8946581482
  1  2  3  4  6     8    |  1  2  3  4  5     8    |   0.2331760003
  1  2  3  4  5     8    |  1  2  3  4  6     8    |   0.2331760003
  1  2  3  4  6     8    |  1  2  3  4  6     7    |  -0.1530606057
  1  2  3  4  6     7    |  1  2  3  4  6     8    |  -0.1530606057
  1  2  3  4  5     8    |  1  2  3  4  5     8    |   0.1117571665
  1  2  3  4  6     7    |  1  2  3  4  6     7    |   0.0810449049
  1  2  3  4  5     8    |  1  2  3  4  6     7    |  -0.0756451548
  1  2  3  4  6     7    |  1  2  3  4  5     8    |  -0.0756451548
  1  2  3  4  5     7    |  1  2  3  4  6     8    |  -0.0734717861
  1  2  3  4  6     8    |  1  2  3  4  5     7    |  -0.0734717861
  1  2  3  4  6     7    |  1  2  3  4  5     7    |   0.0254900837
  1  2  3  4  5     7    |  1  2  3  4  6     7    |   0.0254900837
  1  2  3  4  5     8    |  1  2  3  4  5     7    |  -0.0243409731
  1  2  3  4  5     7    |  1  2  3  4  5     8    |  -0.0243409731
  1  2  3  4  5     7    |  1  2  3  4  5     7    |   0.0140419864
  1  2  3  4        7  8 |  1  2  3  4  5  6       |   0.0021733687
  1  2  3  4  5  6       |  1  2  3  4        7  8 |   0.0021733687

 ..... DONE WITH ORMAS-CI COMPUTATION .....
 STEP CPU TIME =     0.00 TOTAL CPU TIME =        0.1 (    0.0 MIN)
 TOTAL WALL CLOCK TIME=        0.1 SECONDS, CPU UTILIZATION IS  91.67%

     -------------------------------------------------------
      ONE AND TWO PARTICLE ORMAS DENSITY MATRIX COMPUTATION
                  PROGRAM WRITTEN BY JOE IVANIC
     -------------------------------------------------------

 THE DENSITIES ARE STATE AVERAGED OVER   3 ROOT(S)
 STATE=   1   ENERGY=      -94.3550444159   WEIGHT= 0.90000   S=  0.00
 STATE=   3   ENERGY=      -93.9840714066   WEIGHT= 0.05000   S=  0.00
 STATE=   4   ENERGY=      -93.6531754527   WEIGHT= 0.05000   S=  0.00
 SIEVING THE A    SYMMETRY NONZERO DENSITY ELEMENTS IN GROUP C1      
         95 NONZERO DM2 ELEMENTS WRITTEN IN       1 RECORDS TO FILE 70 LABELED AS DEN2P1 
         95 NONZERO DM2 ELEMENTS WRITTEN IN       1 RECORDS TO FILE 71 LABELED AS DEN2P2 
         95 NONZERO DM2 ELEMENTS WRITTEN IN       1 RECORDS TO FILE 72 LABELED AS DEN2P3 
         95 NONZERO DM2 ELEMENTS WRITTEN IN       1 RECORDS TO FILE 73 LABELED AS DEN2P4 
         95 NONZERO DM2 ELEMENTS WRITTEN IN       1 RECORDS TO FILE 15
 ..... DONE WITH 1 AND 2 PARTICLE DENSITY MATRIX .....
 STEP CPU TIME =     0.00 TOTAL CPU TIME =        0.1 (    0.0 MIN)
 TOTAL WALL CLOCK TIME=        0.1 SECONDS, CPU UTILIZATION IS  91.67%

     --------------------------------     -----------------------------
     MCHF NEWTON-RAPHSON OPTIMIZATION     CODE WRITTEN BY MICHEL DUPUIS
     --------------------------------     -----------------------------
 FORMING FOCK OPERATOR OVER ACTIVE ORBITAL DENSITY, MEMORY=     81219
 STEP CPU TIME =     0.00 TOTAL CPU TIME =        0.1 (    0.0 MIN)
 TOTAL WALL CLOCK TIME=        0.1 SECONDS, CPU UTILIZATION IS  91.67%
 MEMORY DEMAND FOR 2 ELECTRON NTN-RPH CONTRIBUTIONS
      METHOD=DM2     NEEDS    112072 WORDS
      METHOD=TEI     NEEDS     79646 WORDS
 TOTAL AVAILABLE MEMORY IS 100000000 WORDS
 CHOOSING DM2 DRIVEN METHOD...
 FORMING -LGR- + -COU- + -EXC- FROM (IJ//KL) INTEGRALS
 STEP CPU TIME =     0.00 TOTAL CPU TIME =        0.1 (    0.0 MIN)
 TOTAL WALL CLOCK TIME=        0.1 SECONDS, CPU UTILIZATION IS  84.62%
 FORMING -LGR- + -COU- + -EXC- FROM (AJ//KL) INTEGRALS
 STEP CPU TIME =     0.00 TOTAL CPU TIME =        0.1 (    0.0 MIN)
 TOTAL WALL CLOCK TIME=        0.1 SECONDS, CPU UTILIZATION IS  84.62%
 FORMING         -COU-         FROM (AB//KL) INTEGRALS
 STEP CPU TIME =     0.00 TOTAL CPU TIME =        0.1 (    0.0 MIN)
 TOTAL WALL CLOCK TIME=        0.1 SECONDS, CPU UTILIZATION IS  84.62%
 FORMING                 -EXC- FROM (AJ//BL) INTEGRALS
 ..... DONE WITH 2 ELECTRON CONTRIBUTIONS .....
 STEP CPU TIME =     0.01 TOTAL CPU TIME =        0.1 (    0.0 MIN)
 TOTAL WALL CLOCK TIME=        0.1 SECONDS, CPU UTILIZATION IS  92.31%
 ..... DONE WITH 1 ELECTRON CONTRIBUTIONS .....
 STEP CPU TIME =     0.00 TOTAL CPU TIME =        0.1 (    0.0 MIN)
 TOTAL WALL CLOCK TIME=        0.1 SECONDS, CPU UTILIZATION IS  92.31%
 NUMBER OF INDEPENDENT ORBITAL ROTATION PARAMETERS =   288
 ..... DONE SOLVING NEWTON-RAPHSON EQUATIONS .....
 STEP CPU TIME =     0.01 TOTAL CPU TIME =        0.1 (    0.0 MIN)
 TOTAL WALL CLOCK TIME=        0.1 SECONDS, CPU UTILIZATION IS 100.00%
 ..... DONE WITH NTN-RPH ORBITAL ROTATIONS ..... 
 STEP CPU TIME =     0.00 TOTAL CPU TIME =        0.1 (    0.0 MIN)
 TOTAL WALL CLOCK TIME=        0.1 SECONDS, CPU UTILIZATION IS 100.00%
 MAXIMUM MEMORY USED BY NTN-RPH CODE WAS    112072 WORDS.

 ITER     TOTAL ENERGY      DEL(E)  LAGRANGIAN ASYMMETRY   SQCDF  MICIT   DAMP
   1      -94.301402317 -0.301402317  0.039005   27    7 9.565E-02  1   0.0000
   2      -94.315677715 -0.014275398  0.005669   36    9 6.883E-03  1   0.0000
   3      -94.316163471 -0.000485755  0.001167   36    9 6.991E-06  1   0.0000
   4      -94.316166721 -0.000003250  0.000220   36    9 7.306E-08  1   0.0000
   5      -94.316166843 -0.000000122  0.000046   20    7 3.485E-09  1   0.0000
   6      -94.316166849 -0.000000006  0.000011   20    7 1.619E-10  1   0.0000
   7      -94.316166849 -0.000000000  0.000003   20    7 2.099E-11  1   0.0000

          --------------------
          LAGRANGIAN CONVERGED
          --------------------

 FINAL MCSCF ENERGY IS      -94.3758844874 AFTER   7 ITERATIONS

 -MCCI- BASED ON OPTIMIZED ORBITALS
 ----------------------------------

 PLEASE NOTE: ORMAS IS NOT INVARIANT TO ORBITAL ROTATIONS BETWEEN THE
 DIFFERENT ACTIVE SPACES.  THE CI EXPANSION JUST BELOW IS FOR THE
 OPTIMIZED ORBITALS USED IN THE LAST ITERATION.  THE NATURAL ORBITALS
 ARE GENERATED BELOW, BUT THE NO'S ROTATE BETWEEN THE ACTIVE SPACES,
 SO THE NATURAL ORBITALS DO NOT REPRODUCE THE ORMAS WAVEFUNCTION.

 CI EIGENVECTORS WILL BE LABELED IN GROUP=C1      
 PRINTING ALL NON-ZERO CI COEFFICIENTS

 STATE   1  ENERGY=       -94.3758844874  S=  0.00  SZ=  0.00  SPACE SYM=A   

         ALPHA           |          BETA           | CI COEFFICIENT
 1           2     3     | 1           2     3     |
-------------------------|-------------------------|---------------
  1  2  3  4  5     7    |  1  2  3  4  5     7    |   0.9631380885
  1  2  3  4  6     7    |  1  2  3  4  6     7    |  -0.1529248182
  1  2  3  4  6     7    |  1  2  3  4  5     7    |   0.1269430336
  1  2  3  4  5     7    |  1  2  3  4  6     7    |   0.1269430336
  1  2  3  4  5     8    |  1  2  3  4  5     8    |  -0.0599350506
  1  2  3  4  5     8    |  1  2  3  4  6     7    |   0.0518742184
  1  2  3  4  6     7    |  1  2  3  4  5     8    |   0.0518742184
  1  2  3  4  5     8    |  1  2  3  4  5     7    |  -0.0464052136
  1  2  3  4  5     7    |  1  2  3  4  5     8    |  -0.0464052136
  1  2  3  4  6     8    |  1  2  3  4  5     7    |   0.0340385513
  1  2  3  4  5     7    |  1  2  3  4  6     8    |   0.0340385513
  1  2  3  4  5  6       |  1  2  3  4        7  8 |  -0.0178356671
  1  2  3  4        7  8 |  1  2  3  4  5  6       |  -0.0178356671
  1  2  3  4  6     8    |  1  2  3  4  6     8    |   0.0168746338
  1  2  3  4  5     8    |  1  2  3  4  6     8    |  -0.0102032606
  1  2  3  4  6     8    |  1  2  3  4  5     8    |  -0.0102032606
  1  2  3  4  6     8    |  1  2  3  4  6     7    |   0.0033580906
  1  2  3  4  6     7    |  1  2  3  4  6     8    |   0.0033580906

 STATE   2  ENERGY=       -94.1514215870  S=  1.00  SZ=  0.00  SPACE SYM=A   

         ALPHA           |          BETA           | CI COEFFICIENT
 1           2     3     | 1           2     3     |
-------------------------|-------------------------|---------------
  1  2  3  4  5     7    |  1  2  3  4  6     7    |   0.7044666473
  1  2  3  4  6     7    |  1  2  3  4  5     7    |  -0.7044666473
  1  2  3  4  6     8    |  1  2  3  4  5     8    |   0.0495960163
  1  2  3  4  5     8    |  1  2  3  4  6     8    |  -0.0495960163
  1  2  3  4  5     8    |  1  2  3  4  5     7    |   0.0314886029
  1  2  3  4  5     7    |  1  2  3  4  5     8    |  -0.0314886029
  1  2  3  4  6     8    |  1  2  3  4  6     7    |  -0.0115205839
  1  2  3  4  6     7    |  1  2  3  4  6     8    |   0.0115205839
  1  2  3  4  5     8    |  1  2  3  4  6     7    |   0.0103043724
  1  2  3  4  6     7    |  1  2  3  4  5     8    |  -0.0103043724
  1  2  3  4  6     8    |  1  2  3  4  5     7    |   0.0057003243
  1  2  3  4  5     7    |  1  2  3  4  6     8    |  -0.0057003243
  1  2  3  4        7  8 |  1  2  3  4  5  6       |  -0.0020120171
  1  2  3  4  5  6       |  1  2  3  4        7  8 |   0.0020120171
  1  2  3  4  6     7    |  1  2  3  4  6     7    |   0.0000000000
  1  2  3  4  5     7    |  1  2  3  4  5     7    |   0.0000000000
  1  2  3  4  6     8    |  1  2  3  4  6     8    |  -0.0000000000
  1  2  3  4  5     8    |  1  2  3  4  5     8    |   0.0000000000

 STATE   3  ENERGY=       -93.9558510246  S=  0.00  SZ=  0.00  SPACE SYM=A   

         ALPHA           |          BETA           | CI COEFFICIENT
 1           2     3     | 1           2     3     |
-------------------------|-------------------------|---------------
  1  2  3  4  6     7    |  1  2  3  4  5     7    |   0.6662190015
  1  2  3  4  5     7    |  1  2  3  4  6     7    |   0.6662190015
  1  2  3  4  5     7    |  1  2  3  4  5     7    |  -0.1889509067
  1  2  3  4  6     7    |  1  2  3  4  6     7    |  -0.1737872996
  1  2  3  4  5     7    |  1  2  3  4  5     8    |   0.1307995654
  1  2  3  4  5     8    |  1  2  3  4  5     7    |   0.1307995654
  1  2  3  4  6     8    |  1  2  3  4  6     7    |   0.0577667111
  1  2  3  4  6     7    |  1  2  3  4  6     8    |   0.0577667111
  1  2  3  4  6     8    |  1  2  3  4  5     8    |  -0.0322677733
  1  2  3  4  5     8    |  1  2  3  4  6     8    |  -0.0322677733
  1  2  3  4  6     8    |  1  2  3  4  5     7    |  -0.0322126376
  1  2  3  4  5     7    |  1  2  3  4  6     8    |  -0.0322126376
  1  2  3  4        7  8 |  1  2  3  4  5  6       |  -0.0196662319
  1  2  3  4  5  6       |  1  2  3  4        7  8 |  -0.0196662319
  1  2  3  4  6     8    |  1  2  3  4  6     8    |   0.0160909737
  1  2  3  4  6     7    |  1  2  3  4  5     8    |  -0.0125464058
  1  2  3  4  5     8    |  1  2  3  4  6     7    |  -0.0125464058
  1  2  3  4  5     8    |  1  2  3  4  5     8    |   0.0019957665

 STATE   4  ENERGY=       -93.6015651803  S=  0.00  SZ=  0.00  SPACE SYM=A   

         ALPHA           |          BETA           | CI COEFFICIENT
 1           2     3     | 1           2     3     |
-------------------------|-------------------------|---------------
  1  2  3  4  6     7    |  1  2  3  4  6     7    |   0.9473944102
  1  2  3  4  6     7    |  1  2  3  4  5     7    |   0.1367859791
  1  2  3  4  5     7    |  1  2  3  4  6     7    |   0.1367859791
  1  2  3  4  6     8    |  1  2  3  4  5     7    |   0.1139418136
  1  2  3  4  5     7    |  1  2  3  4  6     8    |   0.1139418136
  1  2  3  4  5     7    |  1  2  3  4  5     7    |   0.1046854479
  1  2  3  4  6     7    |  1  2  3  4  6     8    |   0.0781534601
  1  2  3  4  6     8    |  1  2  3  4  6     7    |   0.0781534601
  1  2  3  4  5     8    |  1  2  3  4  6     7    |   0.0614369552
  1  2  3  4  6     7    |  1  2  3  4  5     8    |   0.0614369552
  1  2  3  4  5  6       |  1  2  3  4        7  8 |   0.0525048584
  1  2  3  4        7  8 |  1  2  3  4  5  6       |   0.0525048584
  1  2  3  4  6     8    |  1  2  3  4  6     8    |  -0.0427582836
  1  2  3  4  5     7    |  1  2  3  4  5     8    |   0.0193286616
  1  2  3  4  5     8    |  1  2  3  4  5     7    |   0.0193286616
  1  2  3  4  5     8    |  1  2  3  4  5     8    |   0.0140705604
  1  2  3  4  5     8    |  1  2  3  4  6     8    |   0.0048277760
  1  2  3  4  6     8    |  1  2  3  4  5     8    |   0.0048277760

 STATE   5  ENERGY=       -93.3364873158  S=  1.00  SZ=  0.00  SPACE SYM=A   

         ALPHA           |          BETA           | CI COEFFICIENT
 1           2     3     | 1           2     3     |
-------------------------|-------------------------|---------------
  1  2  3  4  5     7    |  1  2  3  4  5     8    |   0.6880328128
  1  2  3  4  5     8    |  1  2  3  4  5     7    |  -0.6880328128
  1  2  3  4  6     7    |  1  2  3  4  6     8    |  -0.1205220890
  1  2  3  4  6     8    |  1  2  3  4  6     7    |   0.1205220890
  1  2  3  4  5     7    |  1  2  3  4  6     8    |   0.0771434819
  1  2  3  4  6     8    |  1  2  3  4  5     7    |  -0.0771434819
  1  2  3  4  6     7    |  1  2  3  4  5     8    |   0.0697438485
  1  2  3  4  5     8    |  1  2  3  4  6     7    |  -0.0697438485
  1  2  3  4  6     7    |  1  2  3  4  5     7    |  -0.0348682121
  1  2  3  4  5     7    |  1  2  3  4  6     7    |   0.0348682121
  1  2  3  4  5     8    |  1  2  3  4  6     8    |   0.0069922439
  1  2  3  4  6     8    |  1  2  3  4  5     8    |  -0.0069922439
  1  2  3  4  5  6       |  1  2  3  4        7  8 |  -0.0022955694
  1  2  3  4        7  8 |  1  2  3  4  5  6       |   0.0022955694
  1  2  3  4  5     8    |  1  2  3  4  5     8    |  -0.0000000000
  1  2  3  4  5     7    |  1  2  3  4  5     7    |   0.0000000000
  1  2  3  4  6     8    |  1  2  3  4  6     8    |   0.0000000000
  1  2  3  4  6     7    |  1  2  3  4  6     7    |  -0.0000000000

 STATE   6  ENERGY=       -93.1824385311  S=  2.00  SZ=  0.00  SPACE SYM=A   

         ALPHA           |          BETA           | CI COEFFICIENT
 1           2     3     | 1           2     3     |
-------------------------|-------------------------|---------------
  1  2  3  4  5  6       |  1  2  3  4        7  8 |   0.4082482905
  1  2  3  4  5     8    |  1  2  3  4  6     7    |   0.4082482905
  1  2  3  4  6     7    |  1  2  3  4  5     8    |   0.4082482905
  1  2  3  4  6     8    |  1  2  3  4  5     7    |  -0.4082482905
  1  2  3  4  5     7    |  1  2  3  4  6     8    |  -0.4082482905
  1  2  3  4        7  8 |  1  2  3  4  5  6       |   0.4082482905
  1  2  3  4  5     7    |  1  2  3  4  5     8    |   0.0000000000
  1  2  3  4  6     7    |  1  2  3  4  6     8    |  -0.0000000000
  1  2  3  4  5     8    |  1  2  3  4  5     7    |  -0.0000000000
  1  2  3  4  6     7    |  1  2  3  4  6     7    |  -0.0000000000
  1  2  3  4  5     8    |  1  2  3  4  5     8    |   0.0000000000
  1  2  3  4  6     8    |  1  2  3  4  6     7    |   0.0000000000
  1  2  3  4  6     7    |  1  2  3  4  5     7    |  -0.0000000000
  1  2  3  4  6     8    |  1  2  3  4  5     8    |   0.0000000000
  1  2  3  4  5     7    |  1  2  3  4  5     7    |   0.0000000000
  1  2  3  4  5     7    |  1  2  3  4  6     7    |   0.0000000000
  1  2  3  4  5     8    |  1  2  3  4  6     8    |  -0.0000000000

 STATE   7  ENERGY=       -93.0566087899  S=  1.00  SZ=  0.00  SPACE SYM=A   

         ALPHA           |          BETA           | CI COEFFICIENT
 1           2     3     | 1           2     3     |
-------------------------|-------------------------|---------------
  1  2  3  4  5  6       |  1  2  3  4        7  8 |   0.7029969352
  1  2  3  4        7  8 |  1  2  3  4  5  6       |  -0.7029969352
  1  2  3  4  5     7    |  1  2  3  4  6     8    |   0.0639769369
  1  2  3  4  6     8    |  1  2  3  4  5     7    |  -0.0639769369
  1  2  3  4  5     8    |  1  2  3  4  6     7    |  -0.0382292998
  1  2  3  4  6     7    |  1  2  3  4  5     8    |   0.0382292998
  1  2  3  4  6     7    |  1  2  3  4  6     8    |  -0.0112446130
  1  2  3  4  6     8    |  1  2  3  4  6     7    |   0.0112446130
  1  2  3  4  5     8    |  1  2  3  4  5     7    |   0.0106169265
  1  2  3  4  5     7    |  1  2  3  4  5     8    |  -0.0106169265
  1  2  3  4  5     7    |  1  2  3  4  6     7    |  -0.0011897152
  1  2  3  4  6     7    |  1  2  3  4  5     7    |   0.0011897152
  1  2  3  4  5     8    |  1  2  3  4  6     8    |   0.0004531951
  1  2  3  4  6     8    |  1  2  3  4  5     8    |  -0.0004531951
  1  2  3  4  6     7    |  1  2  3  4  6     7    |  -0.0000000000
  1  2  3  4  5     8    |  1  2  3  4  5     8    |   0.0000000000
  1  2  3  4  5     7    |  1  2  3  4  5     7    |   0.0000000000
  1  2  3  4  6     8    |  1  2  3  4  6     8    |  -0.0000000000

 STATE   8  ENERGY=       -92.9977566060  S=  0.00  SZ=  0.00  SPACE SYM=A   

         ALPHA           |          BETA           | CI COEFFICIENT
 1           2     3     | 1           2     3     |
-------------------------|-------------------------|---------------
  1  2  3  4  5     8    |  1  2  3  4  5     7    |   0.4850407673
  1  2  3  4  5     7    |  1  2  3  4  5     8    |   0.4850407673
  1  2  3  4        7  8 |  1  2  3  4  5  6       |   0.3879952823
  1  2  3  4  5  6       |  1  2  3  4        7  8 |   0.3879952823
  1  2  3  4  5     7    |  1  2  3  4  6     8    |   0.2751740290
  1  2  3  4  6     8    |  1  2  3  4  5     7    |   0.2751740290
  1  2  3  4  5     8    |  1  2  3  4  6     7    |  -0.1128212532
  1  2  3  4  6     7    |  1  2  3  4  5     8    |  -0.1128212532
  1  2  3  4  6     7    |  1  2  3  4  6     8    |  -0.1043314247
  1  2  3  4  6     8    |  1  2  3  4  6     7    |  -0.1043314247
  1  2  3  4  6     7    |  1  2  3  4  6     7    |  -0.0868594921
  1  2  3  4  6     8    |  1  2  3  4  5     8    |   0.0728830812
  1  2  3  4  5     8    |  1  2  3  4  6     8    |   0.0728830812
  1  2  3  4  5     7    |  1  2  3  4  6     7    |  -0.0628100601
  1  2  3  4  6     7    |  1  2  3  4  5     7    |  -0.0628100601
  1  2  3  4  5     7    |  1  2  3  4  5     7    |   0.0593637564
  1  2  3  4  6     8    |  1  2  3  4  6     8    |  -0.0105183484
  1  2  3  4  5     8    |  1  2  3  4  5     8    |   0.0052931851

 STATE   9  ENERGY=       -92.9834801525  S=  0.00  SZ=  0.00  SPACE SYM=A   

         ALPHA           |          BETA           | CI COEFFICIENT
 1           2     3     | 1           2     3     |
-------------------------|-------------------------|---------------
  1  2  3  4  5     8    |  1  2  3  4  5     7    |   0.4604707229
  1  2  3  4  5     7    |  1  2  3  4  5     8    |   0.4604707229
  1  2  3  4        7  8 |  1  2  3  4  5  6       |  -0.4189160171
  1  2  3  4  5  6       |  1  2  3  4        7  8 |  -0.4189160171
  1  2  3  4  5     8    |  1  2  3  4  6     7    |   0.2421492353
  1  2  3  4  6     7    |  1  2  3  4  5     8    |   0.2421492353
  1  2  3  4  5     7    |  1  2  3  4  6     8    |  -0.1767667819
  1  2  3  4  6     8    |  1  2  3  4  5     7    |  -0.1767667819
  1  2  3  4  5     8    |  1  2  3  4  5     8    |  -0.0842854218
  1  2  3  4  5     7    |  1  2  3  4  6     7    |  -0.0817773501
  1  2  3  4  6     7    |  1  2  3  4  5     7    |  -0.0817773501
  1  2  3  4  6     8    |  1  2  3  4  6     7    |  -0.0767196014
  1  2  3  4  6     7    |  1  2  3  4  6     8    |  -0.0767196014
  1  2  3  4  6     7    |  1  2  3  4  6     7    |   0.0707251517
  1  2  3  4  6     8    |  1  2  3  4  5     8    |   0.0545332748
  1  2  3  4  5     8    |  1  2  3  4  6     8    |   0.0545332748
  1  2  3  4  5     7    |  1  2  3  4  5     7    |   0.0445296455
  1  2  3  4  6     8    |  1  2  3  4  6     8    |  -0.0017561057

 STATE  10  ENERGY=       -92.9011784634  S=  1.00  SZ=  0.00  SPACE SYM=A   

         ALPHA           |          BETA           | CI COEFFICIENT
 1           2     3     | 1           2     3     |
-------------------------|-------------------------|---------------
  1  2  3  4  6     8    |  1  2  3  4  5     7    |   0.5428230206
  1  2  3  4  5     7    |  1  2  3  4  6     8    |  -0.5428230206
  1  2  3  4  6     7    |  1  2  3  4  5     8    |  -0.3837718630
  1  2  3  4  5     8    |  1  2  3  4  6     7    |   0.3837718630
  1  2  3  4  6     7    |  1  2  3  4  6     8    |   0.1853049121
  1  2  3  4  6     8    |  1  2  3  4  6     7    |  -0.1853049121
  1  2  3  4  5     8    |  1  2  3  4  5     7    |  -0.1330756051
  1  2  3  4  5     7    |  1  2  3  4  5     8    |   0.1330756051
  1  2  3  4  5  6       |  1  2  3  4        7  8 |   0.0752400687
  1  2  3  4        7  8 |  1  2  3  4  5  6       |  -0.0752400687
  1  2  3  4  5     8    |  1  2  3  4  6     8    |  -0.0167995520
  1  2  3  4  6     8    |  1  2  3  4  5     8    |   0.0167995520
  1  2  3  4  6     7    |  1  2  3  4  5     7    |   0.0084856061
  1  2  3  4  5     7    |  1  2  3  4  6     7    |  -0.0084856061
  1  2  3  4  6     7    |  1  2  3  4  6     7    |  -0.0000000000
  1  2  3  4  5     8    |  1  2  3  4  5     8    |   0.0000000000
  1  2  3  4  6     8    |  1  2  3  4  6     8    |  -0.0000000000
  1  2  3  4  5     7    |  1  2  3  4  5     7    |  -0.0000000000

 STATE  11  ENERGY=       -92.7759859688  S=  1.00  SZ=  0.00  SPACE SYM=A   

         ALPHA           |          BETA           | CI COEFFICIENT
 1           2     3     | 1           2     3     |
-------------------------|-------------------------|---------------
  1  2  3  4  5     8    |  1  2  3  4  6     7    |   0.5675438810
  1  2  3  4  6     7    |  1  2  3  4  5     8    |  -0.5675438810
  1  2  3  4  6     8    |  1  2  3  4  5     7    |  -0.4174344173
  1  2  3  4  5     7    |  1  2  3  4  6     8    |   0.4174344173
  1  2  3  4  6     7    |  1  2  3  4  6     8    |   0.0408921589
  1  2  3  4  6     8    |  1  2  3  4  6     7    |  -0.0408921589
  1  2  3  4  6     8    |  1  2  3  4  5     8    |  -0.0402398099
  1  2  3  4  5     8    |  1  2  3  4  6     8    |   0.0402398099
  1  2  3  4  5     8    |  1  2  3  4  5     7    |  -0.0175592080
  1  2  3  4  5     7    |  1  2  3  4  5     8    |   0.0175592080
  1  2  3  4  5  6       |  1  2  3  4        7  8 |  -0.0062357221
  1  2  3  4        7  8 |  1  2  3  4  5  6       |   0.0062357221
  1  2  3  4  5     7    |  1  2  3  4  6     7    |  -0.0019569102
  1  2  3  4  6     7    |  1  2  3  4  5     7    |   0.0019569102
  1  2  3  4  5     8    |  1  2  3  4  5     8    |   0.0000000000
  1  2  3  4  6     7    |  1  2  3  4  6     7    |  -0.0000000000
  1  2  3  4  6     8    |  1  2  3  4  6     8    |   0.0000000000
  1  2  3  4  5     7    |  1  2  3  4  5     7    |  -0.0000000000

 STATE  12  ENERGY=       -92.5780736484  S=  0.00  SZ=  0.00  SPACE SYM=A   

         ALPHA           |          BETA           | CI COEFFICIENT
 1           2     3     | 1           2     3     |
-------------------------|-------------------------|---------------
  1  2  3  4  5     8    |  1  2  3  4  6     7    |   0.4726262920
  1  2  3  4  6     7    |  1  2  3  4  5     8    |   0.4726262920
  1  2  3  4  6     8    |  1  2  3  4  5     7    |   0.4181926018
  1  2  3  4  5     7    |  1  2  3  4  6     8    |   0.4181926018
  1  2  3  4  5     8    |  1  2  3  4  5     8    |   0.2773626216
  1  2  3  4  6     8    |  1  2  3  4  6     7    |  -0.1687110513
  1  2  3  4  6     7    |  1  2  3  4  6     8    |  -0.1687110513
  1  2  3  4  6     7    |  1  2  3  4  6     7    |  -0.1208111282
  1  2  3  4  5     8    |  1  2  3  4  5     7    |  -0.1169875113
  1  2  3  4  5     7    |  1  2  3  4  5     8    |  -0.1169875113
  1  2  3  4  5     7    |  1  2  3  4  5     7    |  -0.1049305737
  1  2  3  4  6     8    |  1  2  3  4  6     8    |   0.0855733570
  1  2  3  4        7  8 |  1  2  3  4  5  6       |  -0.0544336902
  1  2  3  4  5  6       |  1  2  3  4        7  8 |  -0.0544336902
  1  2  3  4  6     7    |  1  2  3  4  5     7    |   0.0317533080
  1  2  3  4  5     7    |  1  2  3  4  6     7    |   0.0317533080
  1  2  3  4  5     8    |  1  2  3  4  6     8    |  -0.0262535998
  1  2  3  4  6     8    |  1  2  3  4  5     8    |  -0.0262535998

 STATE  13  ENERGY=       -92.4669132895  S=  1.00  SZ=  0.00  SPACE SYM=A   

         ALPHA           |          BETA           | CI COEFFICIENT
 1           2     3     | 1           2     3     |
-------------------------|-------------------------|---------------
  1  2  3  4  6     7    |  1  2  3  4  6     8    |   0.6697314758
  1  2  3  4  6     8    |  1  2  3  4  6     7    |  -0.6697314758
  1  2  3  4  6     7    |  1  2  3  4  5     8    |   0.1531745695
  1  2  3  4  5     8    |  1  2  3  4  6     7    |  -0.1531745695
  1  2  3  4  6     8    |  1  2  3  4  5     7    |  -0.1410472435
  1  2  3  4  5     7    |  1  2  3  4  6     8    |   0.1410472435
  1  2  3  4  5     8    |  1  2  3  4  5     7    |  -0.0864437528
  1  2  3  4  5     7    |  1  2  3  4  5     8    |   0.0864437528
  1  2  3  4  6     8    |  1  2  3  4  5     8    |   0.0227804931
  1  2  3  4  5     8    |  1  2  3  4  6     8    |  -0.0227804931
  1  2  3  4        7  8 |  1  2  3  4  5  6       |   0.0091420767
  1  2  3  4  5  6       |  1  2  3  4        7  8 |  -0.0091420767
  1  2  3  4  6     7    |  1  2  3  4  5     7    |   0.0052844936
  1  2  3  4  5     7    |  1  2  3  4  6     7    |  -0.0052844936
  1  2  3  4  6     8    |  1  2  3  4  6     8    |   0.0000000000
  1  2  3  4  5     8    |  1  2  3  4  5     8    |  -0.0000000000
  1  2  3  4  6     7    |  1  2  3  4  6     7    |  -0.0000000000
  1  2  3  4  5     7    |  1  2  3  4  5     7    |  -0.0000000000

 STATE  14  ENERGY=       -92.1897897766  S=  0.00  SZ=  0.00  SPACE SYM=A   

         ALPHA           |          BETA           | CI COEFFICIENT
 1           2     3     | 1           2     3     |
-------------------------|-------------------------|---------------
  1  2  3  4  6     7    |  1  2  3  4  6     8    |   0.6379551039
  1  2  3  4  6     8    |  1  2  3  4  6     7    |   0.6379551039
  1  2  3  4  6     8    |  1  2  3  4  6     8    |   0.1875915678
  1  2  3  4  6     8    |  1  2  3  4  5     8    |   0.1825097610
  1  2  3  4  5     8    |  1  2  3  4  6     8    |   0.1825097610
  1  2  3  4  6     7    |  1  2  3  4  6     7    |  -0.1193170458
  1  2  3  4  6     7    |  1  2  3  4  5     8    |   0.1126453484
  1  2  3  4  5     8    |  1  2  3  4  6     7    |   0.1126453484
  1  2  3  4  6     8    |  1  2  3  4  5     7    |   0.1063397685
  1  2  3  4  5     7    |  1  2  3  4  6     8    |   0.1063397685
[...]
  1  2  3  4  5     7    |  1  2  3  4  6     8    |   0.1368410698
  1  2  3  4  5     8    |  1  2  3  4  5     8    |   0.0876068032
  1  2  3  4  5     7    |  1  2  3  4  6     7    |  -0.0856940224
  1  2  3  4  6     7    |  1  2  3  4  5     7    |  -0.0856940224
  1  2  3  4  5     8    |  1  2  3  4  5     7    |   0.0777602743
  1  2  3  4  5     7    |  1  2  3  4  5     8    |   0.0777602743
  1  2  3  4  5     7    |  1  2  3  4  5     7    |  -0.0283502310
  1  2  3  4        7  8 |  1  2  3  4  5  6       |  -0.0063055799
  1  2  3  4  5  6       |  1  2  3  4        7  8 |  -0.0063055799

 STATE  15  ENERGY=       -91.8701620013  S=  0.00  SZ=  0.00  SPACE SYM=A   

         ALPHA           |          BETA           | CI COEFFICIENT
 1           2     3     | 1           2     3     |
-------------------------|-------------------------|---------------
  1  2  3  4  5     8    |  1  2  3  4  5     8    |   0.9349442239
  1  2  3  4  6     8    |  1  2  3  4  6     8    |  -0.2332289316
  1  2  3  4  5     7    |  1  2  3  4  6     8    |  -0.1356312762
  1  2  3  4  6     8    |  1  2  3  4  5     7    |  -0.1356312762
  1  2  3  4  6     7    |  1  2  3  4  5     8    |  -0.1081130222
  1  2  3  4  5     8    |  1  2  3  4  6     7    |  -0.1081130222
  1  2  3  4  5     7    |  1  2  3  4  5     7    |   0.0883654219
  1  2  3  4  6     8    |  1  2  3  4  6     7    |   0.0283354489
  1  2  3  4  6     7    |  1  2  3  4  6     8    |   0.0283354489
  1  2  3  4  5  6       |  1  2  3  4        7  8 |  -0.0275182540
  1  2  3  4        7  8 |  1  2  3  4  5  6       |  -0.0275182540
  1  2  3  4  5     8    |  1  2  3  4  5     7    |   0.0114748907
  1  2  3  4  5     7    |  1  2  3  4  5     8    |   0.0114748907
  1  2  3  4  6     7    |  1  2  3  4  6     7    |   0.0101840233
  1  2  3  4  6     8    |  1  2  3  4  5     8    |  -0.0029127227
  1  2  3  4  5     8    |  1  2  3  4  6     8    |  -0.0029127227
  1  2  3  4  5     7    |  1  2  3  4  6     7    |   0.0010597741
  1  2  3  4  6     7    |  1  2  3  4  5     7    |   0.0010597741

 STATE  16  ENERGY=       -91.6787713401  S=  1.00  SZ=  0.00  SPACE SYM=A   

         ALPHA           |          BETA           | CI COEFFICIENT
 1           2     3     | 1           2     3     |
-------------------------|-------------------------|---------------
  1  2  3  4  5     8    |  1  2  3  4  6     8    |   0.7015870521
  1  2  3  4  6     8    |  1  2  3  4  5     8    |  -0.7015870521
  1  2  3  4  5     7    |  1  2  3  4  6     7    |   0.0510742617
  1  2  3  4  6     7    |  1  2  3  4  5     7    |  -0.0510742617
  1  2  3  4  6     8    |  1  2  3  4  5     7    |   0.0485183166
  1  2  3  4  5     7    |  1  2  3  4  6     8    |  -0.0485183166
  1  2  3  4  6     7    |  1  2  3  4  5     8    |   0.0459357029
  1  2  3  4  5     8    |  1  2  3  4  6     7    |  -0.0459357029
  1  2  3  4  6     7    |  1  2  3  4  6     8    |   0.0260991986
  1  2  3  4  6     8    |  1  2  3  4  6     7    |  -0.0260991986
  1  2  3  4  5     7    |  1  2  3  4  5     8    |  -0.0043911986
  1  2  3  4  5     8    |  1  2  3  4  5     7    |   0.0043911986
  1  2  3  4        7  8 |  1  2  3  4  5  6       |  -0.0015689132
  1  2  3  4  5  6       |  1  2  3  4        7  8 |   0.0015689132
  1  2  3  4  5     8    |  1  2  3  4  5     8    |  -0.0000000000
  1  2  3  4  6     8    |  1  2  3  4  6     8    |  -0.0000000000
  1  2  3  4  6     7    |  1  2  3  4  6     7    |  -0.0000000000
  1  2  3  4  5     7    |  1  2  3  4  5     7    |  -0.0000000000

 STATE  17  ENERGY=       -91.4381838873  S=  0.00  SZ=  0.00  SPACE SYM=A   

         ALPHA           |          BETA           | CI COEFFICIENT
 1           2     3     | 1           2     3     |
-------------------------|-------------------------|---------------
  1  2  3  4  6     8    |  1  2  3  4  5     8    |   0.5986615589
  1  2  3  4  5     8    |  1  2  3  4  6     8    |   0.5986615589
  1  2  3  4  6     8    |  1  2  3  4  6     8    |  -0.4740345292
  1  2  3  4  5     8    |  1  2  3  4  5     7    |  -0.1035916368
  1  2  3  4  5     7    |  1  2  3  4  5     8    |  -0.1035916368
  1  2  3  4  5     8    |  1  2  3  4  5     8    |  -0.1003336686
  1  2  3  4  6     8    |  1  2  3  4  6     7    |  -0.0965535319
  1  2  3  4  6     7    |  1  2  3  4  6     8    |  -0.0965535319
  1  2  3  4  6     7    |  1  2  3  4  5     7    |   0.0590213010
  1  2  3  4  5     7    |  1  2  3  4  6     7    |   0.0590213010
  1  2  3  4  6     7    |  1  2  3  4  6     7    |  -0.0243149190
  1  2  3  4  6     7    |  1  2  3  4  5     8    |   0.0144903439
  1  2  3  4  5     8    |  1  2  3  4  6     7    |   0.0144903439
  1  2  3  4  5     7    |  1  2  3  4  5     7    |  -0.0114357608
  1  2  3  4        7  8 |  1  2  3  4  5  6       |  -0.0085240719
  1  2  3  4  5  6       |  1  2  3  4        7  8 |  -0.0085240719
  1  2  3  4  5     7    |  1  2  3  4  6     8    |   0.0059662720
  1  2  3  4  6     8    |  1  2  3  4  5     7    |   0.0059662720

 STATE  18  ENERGY=       -90.8707591044  S=  0.00  SZ=  0.00  SPACE SYM=A   

         ALPHA           |          BETA           | CI COEFFICIENT
 1           2     3     | 1           2     3     |
-------------------------|-------------------------|---------------
  1  2  3  4  6     8    |  1  2  3  4  6     8    |   0.8207747401
  1  2  3  4  5     8    |  1  2  3  4  6     8    |   0.3042481216
  1  2  3  4  6     8    |  1  2  3  4  5     8    |   0.3042481216
  1  2  3  4  6     7    |  1  2  3  4  6     8    |  -0.1727715904
  1  2  3  4  6     8    |  1  2  3  4  6     7    |  -0.1727715904
  1  2  3  4  5     8    |  1  2  3  4  5     8    |   0.1637792249
  1  2  3  4  5     8    |  1  2  3  4  6     7    |  -0.1001657577
  1  2  3  4  6     7    |  1  2  3  4  5     8    |  -0.1001657577
  1  2  3  4  5     7    |  1  2  3  4  6     8    |  -0.0973316916
  1  2  3  4  6     8    |  1  2  3  4  5     7    |  -0.0973316916
  1  2  3  4  6     7    |  1  2  3  4  6     7    |   0.0871696218
  1  2  3  4  5     7    |  1  2  3  4  5     8    |  -0.0468891337
  1  2  3  4  5     8    |  1  2  3  4  5     7    |  -0.0468891337
  1  2  3  4  5     7    |  1  2  3  4  6     7    |   0.0393625529
  1  2  3  4  6     7    |  1  2  3  4  5     7    |   0.0393625529
  1  2  3  4  5     7    |  1  2  3  4  5     7    |   0.0233970804
  1  2  3  4        7  8 |  1  2  3  4  5  6       |   0.0028340661
  1  2  3  4  5  6       |  1  2  3  4        7  8 |   0.0028340661

 ..... DONE WITH ORMAS-CI COMPUTATION .....
 STEP CPU TIME =     0.00 TOTAL CPU TIME =        0.4 (    0.0 MIN)
 TOTAL WALL CLOCK TIME=        0.4 SECONDS, CPU UTILIZATION IS  94.74%

     -------------------------------------------------------
      ONE AND TWO PARTICLE ORMAS DENSITY MATRIX COMPUTATION
                  PROGRAM WRITTEN BY JOE IVANIC
     -------------------------------------------------------

 THE DENSITIES ARE STATE AVERAGED OVER   3 ROOT(S)
 STATE=   1   ENERGY=      -94.3758844874   WEIGHT= 0.90000   S=  0.00
 STATE=   3   ENERGY=      -93.9558510246   WEIGHT= 0.05000   S=  0.00
 STATE=   4   ENERGY=      -93.6015651803   WEIGHT= 0.05000   S=  0.00
 SIEVING THE A    SYMMETRY NONZERO DENSITY ELEMENTS IN GROUP C1      
         95 NONZERO DM2 ELEMENTS WRITTEN IN       1 RECORDS TO FILE 70 LABELED AS DEN2P1 
         95 NONZERO DM2 ELEMENTS WRITTEN IN       1 RECORDS TO FILE 71 LABELED AS DEN2P2 
         95 NONZERO DM2 ELEMENTS WRITTEN IN       1 RECORDS TO FILE 72 LABELED AS DEN2P3 
         95 NONZERO DM2 ELEMENTS WRITTEN IN       1 RECORDS TO FILE 73 LABELED AS DEN2P4 
         95 NONZERO DM2 ELEMENTS WRITTEN IN       1 RECORDS TO FILE 15
 ..... DONE WITH 1 AND 2 PARTICLE DENSITY MATRIX .....
 STEP CPU TIME =     0.00 TOTAL CPU TIME =        0.4 (    0.0 MIN)
 TOTAL WALL CLOCK TIME=        0.4 SECONDS, CPU UTILIZATION IS  94.74%
 .....DONE WITH MCSCF ITERATIONS.....
 STEP CPU TIME =     0.00 TOTAL CPU TIME =        0.4 (    0.0 MIN)
 TOTAL WALL CLOCK TIME=        0.4 SECONDS, CPU UTILIZATION IS  94.74%
 DDI: Creating Array [0] - 1444 x 55 = 79420 words.
 DDI: Creating Array [1] - 26 x 550 = 14300 words.
 DDI: Creating Array [2] - 55 x 55 = 3025 words.
 DDI: Creating Array [3] - 741 x 55 = 40755 words.

     ----------------------------------------------------------------
     PROPERTY VALUES FOR THE MCSCF SELF-CONSISTENT FIELD WAVEFUNCTION
     ----------------------------------------------------------------

 THIS MCSCF AVERAGED   3 ROOTS OF DIFFERENT ENERGY.
 SINCE NO STATE-SPECIFIC DENSITY MATRIX IS AVAILABLE,
 PROPERTIES WILL NOT BE COMPUTED.


     --------------------------------------------
     PARTIAL TWO ELECTRON INTEGRAL TRANSFORMATION
     --------------------------------------------

 NUMBER OF CORE MOLECULAR ORBITALS     =    0
 NUMBER OF OCCUPIED MOLECULAR ORBITALS =   10
 TOTAL NUMBER OF MOLECULAR ORBITALS    =   36
 TOTAL NUMBER OF ATOMIC ORBITALS       =   38
 THRESHOLD FOR KEEPING TRANSFORMED 2E- INTEGRALS = 1.000E-09

 -------------------------------     ------------------------------
 DISTRIBUTED DATA TRANSFORMATION     PROGRAM WRITTEN BY G. FLETCHER
 -------------------------------     ------------------------------

 THE DISTRIBUTED MEMORY REQUIRED FOR THIS STEP IS MEMDDI=         1 MWORDS
 CREATING DISTRIBUTED STORAGE FOR [VIR OCC|VIR OCC] INTEGRALS
 CREATING DISTRIBUTED STORAGE FOR [VIR OCC|OCC OCC] INTEGRALS
 CREATING DISTRIBUTED STORAGE FOR [OCC OCC|OCC OCC] INTEGRALS
 CREATING DISTRIBUTED STORAGE FOR [VIR VIR|OCC OCC] INTEGRALS
 FOR    1 PROCESSORS, THE REPLICATED MEMORY NEEDED IS       92980 WORDS.
 SCHWARZ INEQUALITY OVERHEAD:       741 INTEGRALS, T=        0.00

      DIRECT 4-INDEX TRANSFORMATION 
      SCHWARZ INEQUALITY TEST SKIPPED          9 INTEGRAL BLOCKS
 ... END OF INTEGRAL TRANSFORMATION ...
 CPU     0: STEP CPU TIME=     0.10 TOTAL CPU TIME=        0.5 (    0.0 MIN)
 TOTAL WALL CLOCK TIME=        0.5 SECONDS, CPU UTILIZATION IS  97.87%

     ---------------------------------------------
     1ST AND 2ND INTEGRAL DERIVATIVE CONTRIBUTIONS
     ---------------------------------------------
 ...... END OF 1-ELECTRON GRAD+HESS+FOCKDER ......
 CPU     0: STEP CPU TIME=     0.01 TOTAL CPU TIME=        0.5 (    0.0 MIN)
 TOTAL WALL CLOCK TIME=        0.5 SECONDS, CPU UTILIZATION IS 100.00%

     ----------------------------------------------
     TWO ELECTRON INTEGRAL DERIVATIVE CONTRIBUTIONS
     ----------------------------------------------

     200723 WORDS REQUIRED, 100000000 WORDS AVAILABLE
 THE COARSE/FINE SCHWARZ SCREENINGS SKIPPED          0/         2 BLOCKS.
 THE NUMBER OF DERIVATIVE INTEGRAL BLOCKS COMPUTED WAS      9180
 CPU     0: STEP CPU TIME=     2.81 TOTAL CPU TIME=        3.3 (    0.1 MIN)
 TOTAL WALL CLOCK TIME=        3.3 SECONDS, CPU UTILIZATION IS  99.70%
 ...... END OF 2-ELECTRON GRAD+HESS+LAGDER ......
 CPU     0: STEP CPU TIME=     0.00 TOTAL CPU TIME=        3.3 (    0.1 MIN)
 TOTAL WALL CLOCK TIME=        3.3 SECONDS, CPU UTILIZATION IS  99.70%
 COMPUTING NACME FOR STATE WITH E=      -94.3758844874 S=  0.0
 COMPUTING NACME FOR STATE WITH E=      -93.9558510246 S=  0.0
 COMPUTING NACME FOR STATE WITH E=      -93.6015651803 S=  0.0

     -------------------------------------------------
     COUPLED-PERTURBED MULTICONFIGURATION HARTREE-FOCK
     Z-VECTOR VERSION
     -------------------------------------------------

 SETTING UP RIGHT-HAND SIDE OF CPMCHF EQUATIONS.
 # OF WORDS REQUIRED  =     209743
 # OF WORDS AVAILABLE =  100000000
 NOTE THAT THE CP-MCHF DISTRIBUTED MEMORY REQUIREMENTS ARE JUST THE
 MEMORY NEEDED TO STORE TRANSFORMED INTEGRAL CLASSES (ALLOCATED ABOVE).

  --- DIPOLE MOMENTS (DEBYE) ---
  1,  1 :  DIPOLE   -0.282038   -0.168923    0.367228    0.492886
  1,  2 : TDIPOLE    0.290671   -0.198772    2.744592    2.767090
  2,  2 :  DIPOLE   -0.410257   -0.140203   -0.060076    0.437695
  1,  3 : TDIPOLE    0.059165   -0.021578    0.316056    0.322270
  2,  3 : TDIPOLE    0.286393   -0.178671    2.450794    2.473931
  3,  3 :  DIPOLE    0.187282   -0.597438    6.117862    6.149816

  --- OSCILLATOR STRENGTHS  ---

             1           2           3

    1    0.0000000
    2    0.3318701   0.0000000
    3    0.0082984   0.2237518   0.0000000


 CALCULATING MCSCF ELECTRONIC HESSIAN ON THE FLY.
 # OF ORBITAL ROTATIONS   =        296
 LENGTH OF DET. EXPANSION =         18

 SOLVING CPMCHF EQUATIONS - ESSENTIAL MEMORY.
 # OF WORDS REQUIRED  =     267615
 # OF WORDS AVAILABLE =  100000000
 DDI: Creating Array [4] - 1 x 1 = 1 words.
 DDI: Creating Array [5] - 1 x 1 = 1 words.
 DDI: Creating Array [6] - 1 x 1 = 1 words.
 DDI: Creating Array [7] - 1 x 1 = 1 words.

 MASTER NODE HAS FINISHED WITH (OO|OO) INTEGRALS, T=    0.0
 MASTER NODE HAS FINISHED WITH (VO|OO) INTEGRALS, T=    0.0
 MASTER NODE HAS FINISHED WITH (VV|OO) INTEGRALS, T=    0.0
 MASTER NODE HAS FINISHED WITH (VO|VO) INTEGRALS, T=    0.0

 FINISHED SETTING UP RIGHT-HAND SIDE.
 CPU     0: STEP CPU TIME=     0.07 TOTAL CPU TIME=        3.3 (    0.1 MIN)
 TOTAL WALL CLOCK TIME=        3.4 SECONDS, CPU UTILIZATION IS  99.70%

 SOLVING FOR    6 NUCLEAR RESPONSES AND 0 ELECTRIC FIELD RESPONSES

 POSSIBLE RESET OF SMALL PRECONDITIONING ELEMENTS TO 1:
 ORBITAL ELEMENTS RESET     =          8
 DETERMINANT ELEMENTS RESET =          4

 SOLVING CPMCHF EQUATIONS - EXTRA SOLVER MEMORY.
 # OF WORDS REQUIRED  =     504057
 # OF WORDS AVAILABLE =   99732385

 PRECONDITIONED GCRODR SOLVER   CONV. TOLERANCE=1.00E-06
 ITER   RESPONSE ERROR    IMPROVED     ORB-ORB     CI-ORB
   1      1.11210E+00         1            0.0        0.0
 DUE TO LARGE RES. NORM, GUESS SET TO 0 VECTOR.
   1      5.81238E-02         1            0.1        0.0
   2      2.62431E-08         0            0.0        0.0
   1      6.16206E-02         5            0.0        0.0
   2      6.15982E-02         5            0.0        0.0
   3      3.03321E-07         0            0.0        0.0
 THE CPMCHF HAS CONVERGED AFTER   3 ITERATIONS.

 STATE-SPECIFIC GRADIENT OF STATE   1 (OVERALL STATE   1)
 ENERGY=      -94.3758844874 SPIN=  0.00 WEIGHT= 0.900000

 UNITS ARE HARTREE/BOHR    E'X               E'Y               E'Z 
    1 N               -0.027567915       0.191864467       0.108858882
    2 C               -0.017005333       0.001495248      -0.038968672
    3 H                0.046540553      -0.229502742      -0.141017257
    4 H               -0.001171048       0.003324794      -0.013783335
    5 H                0.005312962      -0.029503559       0.023111247
    6 H               -0.006109220       0.062321792       0.061799135

 STATE-SPECIFIC GRADIENT OF STATE   2 (OVERALL STATE   3)
 ENERGY=      -93.9558510246 SPIN=  0.00 WEIGHT= 0.050000

 UNITS ARE HARTREE/BOHR    E'X               E'Y               E'Z 
    1 N               -0.028904633       0.215587459      -0.198221653
    2 C               -0.019684034      -0.025318174       0.269925551
    3 H                0.053524693      -0.223606362      -0.143245823
    4 H               -0.002404026       0.000279638      -0.013606175
    5 H                0.000380658      -0.026255304       0.023054102
    6 H               -0.002912658       0.059312743       0.062093999

 STATE-SPECIFIC GRADIENT OF STATE   3 (OVERALL STATE   4)
 ENERGY=      -93.6015651803 SPIN=  0.00 WEIGHT= 0.050000

 UNITS ARE HARTREE/BOHR    E'X               E'Y               E'Z 
    1 N               -0.019019679       0.241648257      -0.324392969
    2 C               -0.003448885      -0.043306601       0.435314527
    3 H                0.052049826      -0.251571499      -0.145387077
    4 H               -0.010836451       0.020811389      -0.026896822
    5 H               -0.009617260      -0.021237156       0.011411023
    6 H               -0.009127551       0.053655608       0.049951320

 NACME FOR STATE J->I HAVE OPPOSITE SIGN TO THE NACME CONNECTING STATE I->J,
 SO ONLY NACME FOR I>J ARE PRINTED, FOR STATES WITH SPIN QUANTUM NO. S=  0.00

 NONADIABATIC COUPLING MATRIX ELEMENT (NACME), IN ONE/BOHR
 <STATE  2, WEIGHT=   0.05000 | D/DQ | STATE  1, WEIGHT=   0.90000>
   ATOM               D/DX           D/DY           D/DZ
    1 N               0.0429181     -0.0002848      0.2372466
    2 C               0.0413344     -0.0175502      0.1764593
    3 H              -0.0048181     -0.0409115     -0.0021029
    4 H              -0.0131475      0.0289885     -0.0199981
    5 H              -0.0089251      0.0072621     -0.0148160
    6 H              -0.0180979     -0.0091621     -0.0164086

 NONADIABATIC COUPLING MATRIX ELEMENT (NACME), IN ONE/BOHR
 <STATE  3, WEIGHT=   0.05000 | D/DQ | STATE  1, WEIGHT=   0.90000>
   ATOM               D/DX           D/DY           D/DZ
    1 N               0.0276089     -0.0105038      0.1743144
    2 C              -0.0060789      0.0032130     -0.0523298
    3 H              -0.0071114     -0.0100305      0.0048047
    4 H              -0.0074209      0.0065463      0.0001913
    5 H               0.0057906     -0.0007910     -0.0030003
    6 H               0.0007459      0.0010712     -0.0042212

 NONADIABATIC COUPLING MATRIX ELEMENT (NACME), IN ONE/BOHR
 <STATE  3, WEIGHT=   0.05000 | D/DQ | STATE  2, WEIGHT=   0.05000>
   ATOM               D/DX           D/DY           D/DZ
    1 N               0.0677215     -0.0160156      0.4829154
    2 C               0.0064550      0.0085470     -0.1707479
    3 H              -0.0211076     -0.0518623      0.0108971
    4 H              -0.0219679      0.0355554     -0.0114328
    5 H               0.0064554      0.0008069     -0.0176330
    6 H              -0.0073874     -0.0009811     -0.0211054

 TOTAL REPLICATED MEMORY USED FOR NACME RESPONSES=       771672 WORDS.
 FREEING DISTRIBUTED STORAGE FOR [VIR VIR|OCC OCC] INTEGRALS
 FREEING DISTRIBUTED STORAGE FOR [OCC OCC|OCC OCC] INTEGRALS
 FREEING DISTRIBUTED STORAGE FOR [VIR OCC|OCC OCC] INTEGRALS
 FREEING DISTRIBUTED STORAGE FOR [VIR OCC|VIR OCC] INTEGRALS

 ...... DONE WITH CPMCHF EQUATIONS ......
 CPU     0: STEP CPU TIME=     6.87 TOTAL CPU TIME=       10.2 (    0.2 MIN)
 TOTAL WALL CLOCK TIME=       10.2 SECONDS, CPU UTILIZATION IS  99.80%
               771672  WORDS OF DYNAMIC MEMORY USED
 EXECUTION OF GAMESS TERMINATED NORMALLY Wed Aug  9 20:39:52 2017
 DDI: 1363672 bytes (1.3 MB / 0 MWords) used by master data server.

 ----------------------------------------
 CPU timing information for all processes
 ========================================
 0: 10.157 + 0.79 = 10.237
 ----------------------------------------
 ddikick.x: exited gracefully.
unset echo
----- accounting info -----
Files used on the master node compute-0-5.local were:
-rw-rw-r-- 1 sarom sarom  30K Aug  9 20:39 /scratch/mc-nacme-nh2ch2.F05
-rw-rw-r-- 1 sarom sarom 3.1M Aug  9 20:39 /scratch/mc-nacme-nh2ch2.F08
-rw-rw-r-- 1 sarom sarom 5.3K Aug  9 20:39 /scratch/mc-nacme-nh2ch2.F09
-rw-rw-r-- 1 sarom sarom 2.2M Aug  9 20:39 /scratch/mc-nacme-nh2ch2.F10
-rw-rw-r-- 1 sarom sarom 2.7K Aug  9 20:39 /scratch/mc-nacme-nh2ch2.F12
-rw-rw-r-- 1 sarom sarom 262K Aug  9 20:39 /scratch/mc-nacme-nh2ch2.F13
-rw-rw-r-- 1 sarom sarom 177K Aug  9 20:39 /scratch/mc-nacme-nh2ch2.F15
-rw-rw-r-- 1 sarom sarom 365K Aug  9 20:39 /scratch/mc-nacme-nh2ch2.F16
-rw-rw-r-- 1 sarom sarom 204K Aug  9 20:39 /scratch/mc-nacme-nh2ch2.F18
-rw-rw-r-- 1 sarom sarom 7.8K Aug  9 20:39 /scratch/mc-nacme-nh2ch2.F19
-rw-rw-r-- 1 sarom sarom 176K Aug  9 20:39 /scratch/mc-nacme-nh2ch2.F70
-rw-rw-r-- 1 sarom sarom 176K Aug  9 20:39 /scratch/mc-nacme-nh2ch2.F71
-rw-rw-r-- 1 sarom sarom 176K Aug  9 20:39 /scratch/mc-nacme-nh2ch2.F72
-rw-rw-r-- 1 sarom sarom 176K Aug  9 20:39 /scratch/mc-nacme-nh2ch2.F73
rm: No match.
ls: No match.
ls: No match.
ls: No match.
Wed Aug  9 20:39:55 CDT 2017
0.260u 0.197s 0:13.77 3.2%	0+0k 64+416io 0pf+0w
/opt/gridengine/default/spool/compute-0-5/active_jobs/35920.1/pe_hostfile compute-0-5.local
