----- GAMESS execution script 'rungms' -----
This job is running on host compute-3-0
under operating system Linux at Mon Nov 28 23:29:29 CST 2016
Available scratch disk space (Kbyte units) at beginning of the job is
Filesystem            1K-blocks       Used  Available Use% Mounted on
bolt.local:/export/home/sarom
                     9590469632 1553275904 7550025728  18% /home/sarom
Copying input file feamm.inp to your run's scratch directory...
cp feamm.inp .//feamm.F05
unset echo
/home/sarom/gamessGH/ddikick.x /home/sarom/gamessGH/gamess.00.x feamm -ddi 1 1 localhost -scr ./

 Distributed Data Interface kickoff program.
 Initiating 1 compute processes on 1 nodes to run the following command:
 /home/sarom/gamessGH/gamess.00.x feamm 

          ******************************************************
          *         GAMESS VERSION = 18 AUG 2016 (R1)          *
          *             FROM IOWA STATE UNIVERSITY             *
          * M.W.SCHMIDT, K.K.BALDRIDGE, J.A.BOATZ, S.T.ELBERT, *
          *   M.S.GORDON, J.H.JENSEN, S.KOSEKI, N.MATSUNAGA,   *
          *          K.A.NGUYEN, S.J.SU, T.L.WINDUS,           *
          *       TOGETHER WITH M.DUPUIS, J.A.MONTGOMERY       *
          *         J.COMPUT.CHEM.  14, 1347-1363(1993)        *
          **************** 64 BIT LINUX VERSION ****************

  SINCE 1993, STUDENTS AND POSTDOCS WORKING AT IOWA STATE UNIVERSITY
  AND ALSO IN THEIR VARIOUS JOBS AFTER LEAVING ISU HAVE MADE IMPORTANT
  CONTRIBUTIONS TO THE CODE:
     IVANA ADAMOVIC, CHRISTINE AIKENS, YURI ALEXEEV, POOJA ARORA,
     ANDREY ASADCHEV, ROB BELL, PRADIPTA BANDYOPADHYAY, JONATHAN BENTZ,
     BRETT BODE, KURT BRORSEN, CALEB CARLIN, GALINA CHABAN, WEI CHEN,
     CHEOL HO CHOI, PAUL DAY, ALBERT DEFUSCO, NUWAN DESILVA, TIM DUDLEY,
     DMITRI FEDOROV, GRAHAM FLETCHER, MARK FREITAG, KURT GLAESEMANN,
     DAN KEMP, GRANT MERRILL, NORIYUKI MINEZAWA, JONATHAN MULLIN,
     TAKESHI NAGATA, SEAN NEDD, HEATHER NETZLOFF, BOSILJKA NJEGIC, RYAN OLSON,
     MIKE PAK, SPENCER PRUITT, LUKE ROSKOP, JIM SHOEMAKER, LYUDMILA SLIPCHENKO,
     TONY SMITH, SAROM SOK LEANG, JIE SONG, TETSUYA TAKETSUGU, SIMON WEBB,
     PENG XU, SOOHAENG YOO, FEDERICO ZAHARIEV

  ADDITIONAL CODE HAS BEEN PROVIDED BY COLLABORATORS IN OTHER GROUPS:
     IOWA STATE UNIVERSITY:
          JOE IVANIC, AARON WEST, LAIMUTIS BYTAUTAS, KLAUS RUEDENBERG
     UNIVERSITY OF TOKYO: KIMIHIKO HIRAO, TAKAHITO NAKAJIMA,
          TAKAO TSUNEDA, MUNEAKI KAMIYA, SUSUMU YANAGISAWA,
          KIYOSHI YAGI, MAHITO CHIBA, SEIKEN TOKURA, NAOAKI KAWAKAMI
     UNIVERSITY OF AARHUS: FRANK JENSEN
     UNIVERSITY OF IOWA: VISVALDAS KAIRYS, HUI LI
     NATIONAL INST. OF STANDARDS AND TECHNOLOGY: WALT STEVENS, DAVID GARMER
     UNIVERSITY OF PISA: BENEDETTA MENNUCCI, JACOPO TOMASI
     UNIVERSITY OF MEMPHIS: HENRY KURTZ, PRAKASHAN KORAMBATH
     UNIVERSITY OF ALBERTA: TOBY ZENG, MARIUSZ KLOBUKOWSKI
     UNIVERSITY OF NEW ENGLAND: MARK SPACKMAN
     MIE UNIVERSITY: HIROAKI UMEDA
     NAT. INST. OF ADVANCED INDUSTRIAL SCIENCE AND TECHNOLOGY: KAZUO KITAURA
     MICHIGAN STATE UNIVERSITY:
          KAROL KOWALSKI, MARTA WLOCH, JEFFREY GOUR, JESSE LUTZ,
          WEI LI, PIOTR PIECUCH
     UNIVERSITY OF SILESIA: MONIKA MUSIAL, STANISLAW KUCHARSKI
     FACULTES UNIVERSITAIRES NOTRE-DAME DE LA PAIX:
          OLIVIER QUINET, BENOIT CHAMPAGNE
     UNIVERSITY OF CALIFORNIA - SANTA BARBARA: BERNARD KIRTMAN
     INSTITUTE FOR MOLECULAR SCIENCE:
          KAZUYA ISHIMURA, MICHIO KATOUDA, AND SHIGERU NAGASE
     UNIVERSITY OF NOTRE DAME: ANNA POMOGAEVA, DAN CHIPMAN
     KYUSHU UNIVERSITY:
          HARUYUKI NAKANO,
          FENG LONG GU, JACEK KORCHOWIEC, MARCIN MAKOWSKI, AND YURIKO AOKI,
          HIROTOSHI MORI AND EISAKU MIYOSHI
     PENNSYLVANIA STATE UNIVERSITY:
          TZVETELIN IORDANOV, CHET SWALINA, JONATHAN SKONE,
          SHARON HAMMES-SCHIFFER
     WASEDA UNIVERSITY:
          MASATO KOBAYASHI, TOMOKO AKAMA, TSUGUKI TOUMA,
          TAKESHI YOSHIKAWA, YASUHIRO IKABATA, JUNJI SEINO,
          YUYA NAKAJIMA, HIROMI NAKAI
     NANJING UNIVERSITY: SHUHUA LI
     UNIVERSITY OF NEBRASKA:
          PEIFENG SU, DEJUN SI, NANDUN THELLAMUREGE, YALI WANG, HUI LI
     UNIVERSITY OF ZURICH: ROBERTO PEVERATI, KIM BALDRIDGE
     N. COPERNICUS UNIVERSITY AND JACKSON STATE UNIVERSITY:
          MARIA BARYSZ
     UNIVERSITY OF COPENHAGEN: Jimmy Kromann, CASPER STEINMANN
     TOKYO INSTITUTE OF TECHNOLOGY: HIROYA NAKATA
     NAGOYA UNIVERSITY: YOSHIO NISHIMOTO, STEPHAN IRLE
     MOSCOW STATE UNIVERSITY: VLADIMIR MIRONOV

 EXECUTION OF GAMESS BEGUN Mon Nov 28 23:29:29 2016

            ECHO OF THE FIRST FEW INPUT CARDS -
 INPUT CARD>!  Jan's Fe(NH3)4 +3 ion,                                                       
 INPUT CARD>!  in which the 5 unpaired electrons half fill the d shell of the iron.         
 INPUT CARD>!  The energy is slighly lower in D2 than in Td point group, perhaps            
 INPUT CARD>!  just an artifact of the very small basis set.                                
 INPUT CARD>!                                                                               
 INPUT CARD>!  FINAL E= -1479.0547311366, 16 its, FREQ= 46.40(a), 73.04(b1), ...3823.05(b3) 
 INPUT CARD>!                                                                               
 INPUT CARD>!  This run takes 16 seconds on 2.66 GHz (31 Mar 2015)                          
 INPUT CARD>!                                                                               
 INPUT CARD>!  ------------------------------------------------------------------           
 INPUT CARD>!  some data from around January 2011 (MO-driven responses):                    
 INPUT CARD>!  optimized:  -1479.054719 in Td, one imaginary mode,  w(i)=31i                
 INPUT CARD>!  optimized:  -1479.054720 in T,  one imaginary mode,  w(i)=30i                
 INPUT CARD>!  optimized:  -1479.054731 in D2, positive definite, w(min)=47                 
 INPUT CARD>!  D2 fr.quencies= FR.Q= 47.18(a), 72.85(b3), 73.15(b1), ... 3823.06(b3)        
 INPUT CARD>!                                                                               
 INPUT CARD>!  in 2014, the D2 geometry below has the same energy as just above,            
 INPUT CARD>!  but small changes from using AO-driven response equation.                    
 INPUT CARD>!                                                                               
 INPUT CARD>!  the Td electronic configuration is (e)2(t2)3, but since this is              
 INPUT CARD>!  high spin-coupled, I think the term symbol must be totally                   
 INPUT CARD>!  symmetric, and this is probably not a Jahn-Teller distortion.                
 INPUT CARD>!  The very small basis set may be to blame for this not being Td?              
 INPUT CARD>!                                                                               
 INPUT CARD> $contrl scftyp=rohf icharg=3 mult=6 runtyp=hessian molplt=.true. $END          
 INPUT CARD> $system mwords=3 $end                                                          
 INPUT CARD> $guess  guess=huckel $end                                                      
 INPUT CARD> $BASIS  GBASIS=mini $END                                                       
 INPUT CARD>                                                                                
 INPUT CARD>!            MO-driven hessian code need not be direct mode.                    
 INPUT CARD>x$cphf   cphf=mo $end                                                           
 INPUT CARD>!            AO-driven code is the default, and must be forced direct by user.  
 INPUT CARD> $cphf   cphf=ao $end                                                           
 INPUT CARD> $scf    dirscf=.true. $end                                                     
 INPUT CARD>                                                                                
 INPUT CARD> $DATA                                                                          
 INPUT CARD>Fe(NH3)4 +3 ion...d5 high spin electronic state                                 
 INPUT CARD>Dn 2                                                                            
 INPUT CARD>                                                                                
 INPUT CARD>FE         26.0   0.0000000000   0.0000000000   0.0000000000                    
 INPUT CARD>N           7.0   1.1298679824   1.1301830225   1.1295573364                    
 INPUT CARD>H           1.0   0.6186868767   1.6471403419   1.8832200160                    
 INPUT CARD>H           1.0   1.8837057501   0.6191792218   1.6464342662                    
 INPUT CARD>H           1.0   1.6465732266   1.8838482502   0.6181220951                    
 INPUT CARD> $end                                                                           
 INPUT CARD>                                                                                
 INPUT CARD>     Jan's original geometry, not yet optimized.                                
 INPUT CARD>C1                                                                              
 INPUT CARD>FE 26.0   -.037572  -.050549   .058229                                          
 INPUT CARD>N 7.0    -1.253798  1.328219  -.877185                                          
    3000000 WORDS OF MEMORY AVAILABLE

     BASIS OPTIONS
     -------------
     GBASIS=MINI         IGAUSS=       0      POLAR=NONE    
     NDFUNC=       0     NFFUNC=       0     DIFFSP=       F
     NPFUNC=       0      DIFFS=       F     BASNAM=        


     RUN TITLE
     ---------
 Fe(NH3)4 +3 ion...d5 high spin electronic state                                 

 THE POINT GROUP OF THE MOLECULE IS DN      
 THE ORDER OF THE PRINCIPAL AXIS IS     2

 ATOM      ATOMIC                      COORDINATES (BOHR)
           CHARGE         X                   Y                   Z
 FE         26.0     0.0000000000        0.0000000000        0.0000000000
 N           7.0    -2.1351408890       -2.1357362285        2.1345538532
 N           7.0     2.1351408890       -2.1357362285       -2.1345538532
 N           7.0    -2.1351408890        2.1357362285       -2.1345538532
 N           7.0     2.1351408890        2.1357362285        2.1345538532
 H           1.0    -1.1691486692       -3.1126439095        3.5587698048
 H           1.0     1.1691486692       -3.1126439095       -3.5587698048
 H           1.0    -1.1691486692        3.1126439095       -3.5587698048
 H           1.0     1.1691486692        3.1126439095        3.5587698048
 H           1.0    -3.5596877092       -1.1700790665        3.1113096199
 H           1.0     3.5596877092       -1.1700790665       -3.1113096199
 H           1.0    -3.5596877092        1.1700790665       -3.1113096199
 H           1.0     3.5596877092        1.1700790665        3.1113096199
 H           1.0    -3.1115722170       -3.5599569953        1.1680813867
 H           1.0     3.1115722170       -3.5599569953       -1.1680813867
 H           1.0    -3.1115722170        3.5599569953       -1.1680813867
 H           1.0     3.1115722170        3.5599569953        1.1680813867

          INTERNUCLEAR DISTANCES (ANGS.)
          ------------------------------

                1 FE         2 N          3 N          4 N          5 N     

   1 FE      0.0000000    1.9569913 *  1.9569913 *  1.9569913 *  1.9569913 *
   2 N       1.9569913 *  0.0000000    3.1953100    3.1957556    3.1961948  
   3 N       1.9569913 *  3.1953100    0.0000000    3.1961948    3.1957556  
   4 N       1.9569913 *  3.1957556    3.1961948    0.0000000    3.1953100  
   5 N       1.9569913 *  3.1961948    3.1957556    3.1953100    0.0000000  
   6 H       2.5772781 *  1.0471669 *  3.5215787    4.1293654    3.3673397  
   7 H       2.5772781 *  3.5215787    1.0471669 *  3.3673397    4.1293654  
   8 H       2.5772781 *  4.1293654    3.3673397    1.0471669 *  3.5215787  
   9 H       2.5772781 *  3.3673397    4.1293654    3.5215787    1.0471669 *
  10 H       2.5773001 *  1.0471667 *  4.1290291    3.3667000    3.5226491  
  11 H       2.5773001 *  4.1290291    1.0471667 *  3.5226491    3.3667000  
  12 H       2.5773001 *  3.3667000    3.5226491    1.0471667 *  4.1290291  
  13 H       2.5773001 *  3.5226491    3.3667000    4.1290291    1.0471667 *
  14 H       2.5772393 *  1.0471684 *  3.3661581    3.5221800    4.1297187  
  15 H       2.5772393 *  3.3661581    1.0471684 *  4.1297187    3.5221800  
  16 H       2.5772393 *  3.5221800    4.1297187    1.0471684 *  3.3661581  
  17 H       2.5772393 *  4.1297187    3.5221800    3.3661581    1.0471684 *

                6 H          7 H          8 H          9 H         10 H     

   1 FE      2.5772781 *  2.5772781 *  2.5772781 *  2.5772781 *  2.5773001 *
   2 N       1.0471669 *  3.5215787    4.1293654    3.3673397    1.0471667 *
   3 N       3.5215787    1.0471669 *  3.3673397    4.1293654    4.1290291  
   4 N       4.1293654    3.3673397    1.0471669 *  3.5215787    3.3667000  
   5 N       3.3673397    4.1293654    3.5215787    1.0471669 *  3.5226491  
   6 H       0.0000000    3.9644879    5.0038341    3.5190026    1.6471321 *
   7 H       3.9644879    0.0000000    3.5190026    5.0038341    4.4471488  
   8 H       5.0038341    3.5190026    0.0000000    3.9644879    4.3812026  
   9 H       3.5190026    5.0038341    3.9644879    0.0000000    3.3844114  
  10 H       1.6471321 *  4.4471488    4.3812026    3.3844114    0.0000000  
  11 H       4.4471488    1.6471321 *  3.3844114    4.3812026    5.0036359  
  12 H       4.3812026    3.3844114    1.6471321 *  4.4471488    3.5180271  
  13 H       3.3844114    4.3812026    4.4471488    1.6471321 *  3.9657182  
  14 H       1.6471350 *  3.3829198    4.4475997    4.3817527    1.6471325 *
  15 H       3.3829198    1.6471350 *  4.3817527    4.4475997    4.3806932  
  16 H       4.4475997    4.3817527    1.6471350 *  3.3829198    3.3837249  
  17 H       4.3817527    4.4475997    3.3829198    1.6471350 *  4.4480830  

               11 H         12 H         13 H         14 H         15 H     

   1 FE      2.5773001 *  2.5773001 *  2.5773001 *  2.5772393 *  2.5772393 *
   2 N       4.1290291    3.3667000    3.5226491    1.0471684 *  3.3661581  
   3 N       1.0471667 *  3.5226491    3.3667000    3.3661581    1.0471684 *
   4 N       3.5226491    1.0471667 *  4.1290291    3.5221800    4.1297187  
   5 N       3.3667000    4.1290291    1.0471667 *  4.1297187    3.5221800  
   6 H       4.4471488    4.3812026    3.3844114    1.6471350 *  3.3829198  
   7 H       1.6471321 *  3.3844114    4.3812026    3.3829198    1.6471350 *
   8 H       3.3844114    1.6471321 *  4.4471488    4.4475997    4.3817527  
   9 H       4.3812026    4.4471488    1.6471321 *  4.3817527    4.4475997  
  10 H       5.0036359    3.5180271    3.9657182    1.6471325 *  4.3806932  
  11 H       0.0000000    3.9657182    3.5180271    4.3806932    1.6471325 *
  12 H       3.9657182    0.0000000    5.0036359    3.3837249    4.4480830  
  13 H       3.5180271    5.0036359    0.0000000    4.4480830    3.3837249  
  14 H       4.3806932    3.3837249    4.4480830    0.0000000    3.5175436  
  15 H       1.6471325 *  4.4480830    3.3837249    3.5175436    0.0000000  
  16 H       4.4480830    1.6471325 *  4.3806932    3.9653293    5.0040334  
  17 H       3.3837249    4.3806932    1.6471325 *  5.0040334    3.9653293  

               16 H         17 H     

   1 FE      2.5772393 *  2.5772393 *
   2 N       3.5221800    4.1297187  
   3 N       4.1297187    3.5221800  
   4 N       1.0471684 *  3.3661581  
   5 N       3.3661581    1.0471684 *
   6 H       4.4475997    4.3817527  
   7 H       4.3817527    4.4475997  
   8 H       1.6471350 *  3.3829198  
   9 H       3.3829198    1.6471350 *
  10 H       3.3837249    4.4480830  
  11 H       4.4480830    3.3837249  
  12 H       1.6471325 *  4.3806932  
  13 H       4.3806932    1.6471325 *
  14 H       3.9653293    5.0040334  
  15 H       5.0040334    3.9653293  
  16 H       0.0000000    3.5175436  
  17 H       3.5175436    0.0000000  

  * ... LESS THAN  3.000


     ATOMIC BASIS SET
     ----------------
 THE CONTRACTED PRIMITIVE FUNCTIONS HAVE BEEN UNNORMALIZED
 THE CONTRACTED BASIS FUNCTIONS ARE NOW NORMALIZED TO UNITY

  SHELL TYPE  PRIMITIVE        EXPONENT          CONTRACTION COEFFICIENT(S)

 FE        

      1   S       1          3302.0297000    0.063528303389
      1   S       2           499.3253500    0.376125220063
      1   S       3           109.1722900    0.681920636374

      2   S       4           145.6161300   -0.103238604355
      2   S       5            13.4680790    0.695582629339
      2   S       6             5.4624842    0.370886915644

      3   P       7           182.5577500    0.092995598383
      3   P       8            41.6478220    0.447334692222
      3   P       9            11.8578060    0.617449189265

      4   S      10            10.7362680   -0.224124510481
      4   S      11             1.7009576    0.717741533564
      4   S      12             0.6536460    0.414864619400

      5   P      13             4.4051684    0.254369503217
      5   P      14             1.6609361    0.572238807237
      5   P      15             0.5933038    0.298674103777

      6   D      16            11.1983790    0.169417699628
      6   D      17             2.7235552    0.506651798888
      6   D      18             0.6139552    0.610552798659

      7   S      19             0.8119493   -0.108332701137
      7   S      20             0.0796734    0.556604705844
      7   S      21             0.0298245    0.519492405454

 N         

     17   S      22           218.3644900    0.067870300500
     17   S      23            32.5988900    0.390201802872
     17   S      24             6.9173900    0.670083204933

     18   S      25             8.9194264   -0.080890299919
     18   S      26             0.7061408    0.567201999435
     18   S      27             0.2250537    0.511091799491

     19   P      28             6.5562719    0.115919498304
     19   P      29             1.3490793    0.469958193126
     19   P      30             0.3122085    0.618447590954

 H         

     23   S      31             7.0340625    0.070452003325
     23   S      32             1.0647563    0.407826019247
     23   S      33             0.2365594    0.647752030571

 H         

     27   S      34             7.0340625    0.070452003325
     27   S      35             1.0647563    0.407826019247
     27   S      36             0.2365594    0.647752030571

 H         

     31   S      37             7.0340625    0.070452003325
     31   S      38             1.0647563    0.407826019247
     31   S      39             0.2365594    0.647752030571

 TOTAL NUMBER OF BASIS SET SHELLS             =   31
 NUMBER OF CARTESIAN GAUSSIAN BASIS FUNCTIONS =   48
 NUMBER OF ELECTRONS                          =   63
 CHARGE OF MOLECULE                           =    3
 SPIN MULTIPLICITY                            =    6
 NUMBER OF OCCUPIED ORBITALS (ALPHA)          =   34
 NUMBER OF OCCUPIED ORBITALS (BETA )          =   29
 TOTAL NUMBER OF ATOMS                        =   17
 THE NUCLEAR REPULSION ENERGY IS      399.5812612205

     $CONTRL OPTIONS
     ---------------
 SCFTYP=ROHF         RUNTYP=HESSIAN      EXETYP=RUN     
 MPLEVL=       0     CITYP =NONE         CCTYP =NONE         VBTYP =NONE    
 DFTTYP=NONE         TDDFT =NONE    
 MULT  =       6     ICHARG=       3     NZVAR =       0     COORD =UNIQUE  
 PP    =NONE         RELWFN=NONE         LOCAL =NONE         NUMGRD=       F
 ISPHER=      -1     NOSYM =       0     MAXIT =      30     UNITS =ANGS    
 PLTORB=       F     MOLPLT=       T     AIMPAC=       F     FRIEND=        
 NPRINT=       7     IREST =       0     GEOM  =INPUT   
 NORMF =       0     NORMP =       0     ITOL  =      20     ICUT  =       9
 INTTYP=BEST         GRDTYP=BEST         QMTTOL= 1.0E-06

     $SYSTEM OPTIONS
     ---------------
  REPLICATED MEMORY=     3000000 WORDS (ON EVERY NODE).
 DISTRIBUTED MEMDDI=           0 MILLION WORDS IN AGGREGATE,
 MEMDDI DISTRIBUTED OVER   1 PROCESSORS IS           0 WORDS/PROCESSOR.
 TOTAL MEMORY REQUESTED ON EACH PROCESSOR=     3000000 WORDS.
 TIMLIM=      525600.00 MINUTES, OR     365.0 DAYS.
 PARALL= F  BALTYP=  DLB     KDIAG=    0  COREFL= F
 MXSEQ2=     300 MXSEQ3=     150  mem10=         0

          ----------------
          PROPERTIES INPUT
          ----------------

     MOMENTS            FIELD           POTENTIAL          DENSITY
 IEMOM =       1   IEFLD =       0   IEPOT =       0   IEDEN =       0
 WHERE =COMASS     WHERE =NUCLEI     WHERE =NUCLEI     WHERE =NUCLEI  
 OUTPUT=BOTH       OUTPUT=BOTH       OUTPUT=BOTH       OUTPUT=BOTH    
 IEMINT=       0   IEFINT=       0                     IEDINT=       0
                                                       MORB  =       0
          EXTRAPOLATION IN EFFECT
          SOSCF IN EFFECT
 ORBITAL PRINTING OPTION: NPREO=     1    48     2     1

     -------------------------------
     INTEGRAL TRANSFORMATION OPTIONS
     -------------------------------
     NWORD  =            0
     CUTOFF = 1.0E-09     MPTRAN =       0
     DIRTRF =       T     AOINTS =DUP     

          ----------------------
          INTEGRAL INPUT OPTIONS
          ----------------------
 NOPK  =       1 NORDER=       0 SCHWRZ=       T

     ------------------------------------------
     THE POINT GROUP IS DN , NAXIS= 2, ORDER= 4
     ------------------------------------------

     DIMENSIONS OF THE SYMMETRY SUBSPACES ARE
 A   =   15     B1  =   11     B3  =   11     B2  =   11

 ..... DONE SETTING UP THE RUN .....
 STEP CPU TIME =     0.02 TOTAL CPU TIME =        0.0 (    0.0 MIN)
 TOTAL WALL CLOCK TIME=        0.0 SECONDS, CPU UTILIZATION IS 100.00%

     ---------------------------------
     HESSIAN MATRIX CONTROL PARAMETERS
     ---------------------------------
     METHOD=ANALYTIC   NVIB  =       2   VIBSIZ= 0.01000
     RDHESS=       F   PURIFY=       F   PRTIFC=       F
     VIBANL=       T   DECOMP=       F   PROJCT=       F
     SCLFAC= 1.00000   PRTSCN=       F   NPRT  =       0
     PULCOR=       F   NPUN  =       0   REDOVB=       T
     HSSTYP=GENERAL 
     THERMOCHEMISTRY WILL BE PRINTED FOR    1 TEMPERATURES:
      298.15000
 Old integral subroutine is used

     ------------------------------
     CPHF RESPONSE SOLUTION OPTIONS
     ------------------------------
     POLAR  =       F     NWORD  =       0
     CPHF   =AO      

          ********************
          1 ELECTRON INTEGRALS
          ********************
 ...... END OF ONE-ELECTRON INTEGRALS ......
 STEP CPU TIME =     0.01 TOTAL CPU TIME =        0.0 (    0.0 MIN)
 TOTAL WALL CLOCK TIME=        0.0 SECONDS, CPU UTILIZATION IS 100.00%

          -------------
          GUESS OPTIONS
          -------------
          GUESS =HUCKEL            NORB  =       0          NORDER=       0
          MIX   =       F          PRTMO =       F          PUNMO =       F
          TOLZ  = 1.0E-08          TOLE  = 1.0E-05
          SYMDEN=       F          PURIFY=       F

 INITIAL GUESS ORBITALS GENERATED BY HUCKEL   ROUTINE.
 HUCKEL GUESS REQUIRES     37353 WORDS.

 SYMMETRIES FOR INITIAL GUESS ORBITALS FOLLOW.  ALPHA SET(S).
    34 ORBITALS ARE OCCUPIED (   13 CORE ORBITALS).
    14=A       15=B2      16=B3      17=B1      18=A       19=A       20=B2  
    21=B3      22=B1      23=B2      24=B3      25=B1      26=A       27=B1  
    28=B3      29=B2      30=A       31=A       32=B2      33=B3      34=B1  
    35=B2      36=B3      37=B1      38=A       39=A       40=A       41=A   
    42=A       43=B1      44=B1  

 SYMMETRIES FOR INITIAL GUESS ORBITALS FOLLOW.   BETA SET(S).
    29 ORBITALS ARE OCCUPIED (   13 CORE ORBITALS).
    14=A       15=B2      16=B3      17=B1      18=A       19=A       20=B2  
    21=B3      22=B1      23=B2      24=B3      25=B1      26=A       27=B1  
    28=B3      29=B2      30=A       31=A       32=B2      33=B3      34=B1  
    35=B2      36=B3      37=B1      38=A       39=A   
 ...... END OF INITIAL ORBITAL SELECTION ......
 STEP CPU TIME =     0.01 TOTAL CPU TIME =        0.0 (    0.0 MIN)
 TOTAL WALL CLOCK TIME=        0.0 SECONDS, CPU UTILIZATION IS 100.00%

                    ----------------------
                    AO INTEGRAL TECHNOLOGY
                    ----------------------
     S,P,L SHELL ROTATED AXIS INTEGRALS, REPROGRAMMED BY
        KAZUYA ISHIMURA (IMS) AND JOSE SIERRA (SYNSTAR).
     S,P,D,L SHELL ROTATED AXIS INTEGRALS PROGRAMMED BY
        KAZUYA ISHIMURA (INSTITUTE FOR MOLECULAR SCIENCE).
     S,P,D,F,G SHELL TO TOTAL QUARTET ANGULAR MOMENTUM SUM 5,
        ERIC PROGRAM BY GRAHAM FLETCHER (ELORET AND NASA ADVANCED
        SUPERCOMPUTING DIVISION, AMES RESEARCH CENTER).
     S,P,D,F,G,L SHELL GENERAL RYS QUADRATURE PROGRAMMED BY
        MICHEL DUPUIS (PACIFIC NORTHWEST NATIONAL LABORATORY).

          --------------------
          2 ELECTRON INTEGRALS
          --------------------

 DIRECT SCF METHOD SKIPS INTEGRAL STORAGE ON DISK.
 DIRECT TRANSFORMATION SKIPS AO INTEGRAL STORAGE ON DISK.
  ...... END OF TWO-ELECTRON INTEGRALS .....
 STEP CPU TIME =     0.01 TOTAL CPU TIME =        0.0 (    0.0 MIN)
 TOTAL WALL CLOCK TIME=        0.1 SECONDS, CPU UTILIZATION IS  55.56%

          ---------------------------
                 ROHF SCF CALCULATION
          ---------------------------

     NUCLEAR ENERGY =       399.5812612205
     MAXIT = 30     NPUNCH=  2     MULT=  6
     EXTRAP=T  DAMP=F  SHIFT=F  RSTRCT=F  DIIS=F  SOSCF=T
     DENSITY MATRIX CONV=  2.00E-05
     ROHF CANONICALIZATION PARAMETERS
             C-C     O-O     V-V
     ALPHA -0.5000  0.5000  1.5000
     BETA   1.5000  0.5000 -0.5000
     SOSCF WILL OPTIMIZE     621 ORBITAL ROTATION ANGLES. SOGTOL= 2.500E-01
     MEMORY REQUIRED FOR UHF/ROHF ITERS=     71355 WORDS.

 DIRECT SCF CALCULATION, SCHWRZ=T   FDIFF=T
 SCHWARZ INEQUALITY OVERHEAD:      1150 INTEGRALS, T=        0.01

                                                                                NONZERO     BLOCKS
 ITER EX      TOTAL ENERGY        E CHANGE  DENSITY CHANGE    ORB. GRAD       INTEGRALS    SKIPPED
   1  0    -1478.3565710714 -1478.3565710714   0.651710346   0.000000000         164317       3072
          ---------------START SECOND ORDER SCF---------------
   2  1    -1479.0142474346    -0.6576763632   0.128149690   0.044327974         163831       3336
   3  2    -1479.0350097960    -0.0207623614   0.181353912   0.042437302         162855       3883
   4  3    -1479.0147552389     0.0202545571   0.137474324   0.061754118         162841       3885
   5  4    -1479.0517994752    -0.0370442362   0.024446546   0.014269072         162667       3999
   6  5    -1479.0526520963    -0.0008526211   0.018685964   0.020470212         161880       4529
   7  6    -1479.0545482386    -0.0018961423   0.005792361   0.003630688         160356       5093
   8  7    -1479.0546431795    -0.0000949409   0.002192670   0.003618523         160249       5266
   9  8    -1479.0547258185    -0.0000826390   0.004365105   0.000677111         158531       5962
  10  9    -1479.0547034094     0.0000224091   0.003111550   0.001973799         154877       7384
  11 10    -1479.0547307171    -0.0000273077   0.000415975   0.000149739         154061       7672
  12 11    -1479.0547307642    -0.0000000471   0.000208776   0.000248804         147152       9515
  13 12    -1479.0547310826    -0.0000003184   0.000131135   0.000070286         139937      11762
  14 13    -1479.0547311040    -0.0000000213   0.000065604   0.000048741         142177      10832
  15 14    -1479.0547311371    -0.0000000332   0.000019244   0.000002501         137537      11857
  16 15    -1479.0547311366     0.0000000006   0.000015802   0.000008537         120895      16535

          -----------------
          DENSITY CONVERGED
          -----------------
     TIME TO FORM FOCK OPERATORS=       1.1 SECONDS (       0.1 SEC/ITER)
     FOCK TIME ON FIRST ITERATION=       0.1, LAST ITERATION=       0.0
     TIME TO SOLVE SCF EQUATIONS=       0.0 SECONDS (       0.0 SEC/ITER)

 FINAL ROHF ENERGY IS    -1479.0547311366 AFTER  16 ITERATIONS

          --------------------
          SPIN SZ   =    2.500
          S-SQUARED =    8.750
          --------------------

          ------------
          EIGENVECTORS
          ------------

                      1          2          3          4          5
                 -260.9424   -32.9403   -28.3885   -28.3885   -28.3885
                     A          A          B2         B3         B1  
    1  FE 1  S    0.984309  -0.323630   0.000000  -0.000000  -0.000000
    2  FE 1  S    0.054869   1.035469   0.000000  -0.000000  -0.000000
    3  FE 1  X    0.000000  -0.000000   0.000000   0.983894  -0.000000
    4  FE 1  Y    0.000000  -0.000000   0.983894  -0.000000  -0.000000
    5  FE 1  Z    0.000000  -0.000000   0.000000  -0.000000   0.983894
    6  FE 1  S   -0.028066   0.002010   0.000000  -0.000000  -0.000000
    7  FE 1  X    0.000000  -0.000000   0.000000   0.047073  -0.000000
    8  FE 1  Y    0.000000  -0.000000   0.047074  -0.000000  -0.000000
    9  FE 1  Z    0.000000  -0.000000   0.000000  -0.000000   0.047073
   10  FE 1 XX    0.007081   0.000408   0.000000  -0.000000  -0.000000
   11  FE 1 YY    0.007081   0.000408   0.000000  -0.000000  -0.000000
   12  FE 1 ZZ    0.007081   0.000408   0.000000  -0.000000  -0.000000
   13  FE 1 XY    0.000000  -0.000000   0.000000  -0.000000   0.000577
   14  FE 1 XZ    0.000000  -0.000000   0.000577  -0.000000  -0.000000
   15  FE 1 YZ    0.000000  -0.000000   0.000000   0.000577  -0.000000
   16  FE 1  S   -0.001092  -0.000287   0.000000  -0.000000  -0.000000
   17  N  2  S    0.000048  -0.000009  -0.000135  -0.000135   0.000134
   18  N  2  S   -0.000204   0.000043   0.000714   0.000714  -0.000714
   19  N  2  X   -0.000170   0.000039   0.001157   0.000541  -0.001159
   20  N  2  Y   -0.000170   0.000039   0.000541   0.001160  -0.001156
   21  N  2  Z    0.000170  -0.000039  -0.001160  -0.001156   0.000540
   22  N  3  S    0.000048  -0.000009  -0.000135   0.000135  -0.000134
   23  N  3  S   -0.000204   0.000043   0.000714  -0.000714   0.000714
   24  N  3  X    0.000170  -0.000039  -0.001157   0.000541  -0.001159
   25  N  3  Y   -0.000170   0.000039   0.000541  -0.001160   0.001156
   26  N  3  Z   -0.000170   0.000039   0.001160  -0.001156   0.000540
   27  N  4  S    0.000048  -0.000009   0.000135  -0.000135  -0.000134
   28  N  4  S   -0.000204   0.000043  -0.000714   0.000714   0.000714
   29  N  4  X   -0.000170   0.000039  -0.001157   0.000541   0.001159
   30  N  4  Y    0.000170  -0.000039   0.000541  -0.001160  -0.001156
   31  N  4  Z   -0.000170   0.000039  -0.001160   0.001156   0.000540
   32  N  5  S    0.000048  -0.000009   0.000135   0.000135   0.000134
   33  N  5  S   -0.000204   0.000043  -0.000714  -0.000714  -0.000714
   34  N  5  X    0.000170  -0.000039   0.001157   0.000541   0.001159
   35  N  5  Y    0.000170  -0.000039   0.000541   0.001160   0.001156
   36  N  5  Z    0.000170  -0.000039   0.001160   0.001156   0.000540
   37  H  6  S    0.000107   0.000025   0.000080   0.000284  -0.000027
   38  H  7  S    0.000107   0.000025   0.000080  -0.000284   0.000027
   39  H  8  S    0.000107   0.000025  -0.000080   0.000284   0.000027
   40  H  9  S    0.000107   0.000025  -0.000080  -0.000284  -0.000027
   41  H 10  S    0.000107   0.000025   0.000284   0.000027  -0.000080
   42  H 11  S    0.000107   0.000025   0.000284  -0.000027   0.000080
   43  H 12  S    0.000107   0.000025  -0.000284   0.000027   0.000080
   44  H 13  S    0.000107   0.000025  -0.000284  -0.000027  -0.000080
   45  H 14  S    0.000107   0.000025   0.000027   0.000080  -0.000284
   46  H 15  S    0.000107   0.000025   0.000027  -0.000080   0.000284
   47  H 16  S    0.000107   0.000025  -0.000027   0.000080   0.000284
   48  H 17  S    0.000107   0.000025  -0.000027  -0.000080  -0.000284

                      6          7          8          9         10
                  -15.9692   -15.9686   -15.9686   -15.9686    -4.7527
                     A          B1         B3         B2         A   
    1  FE 1  S    0.000042   0.000000   0.000000   0.000000   0.119528
    2  FE 1  S   -0.000214   0.000000   0.000000   0.000000  -0.446880
    3  FE 1  X    0.000000   0.000000  -0.000553   0.000000   0.000000
    4  FE 1  Y    0.000000   0.000000   0.000000  -0.000553   0.000000
    5  FE 1  Z    0.000000   0.000552   0.000000   0.000000   0.000000
    6  FE 1  S    0.006385   0.000000   0.000000   0.000000   1.156323
    7  FE 1  X    0.000000   0.000000   0.001556   0.000000   0.000000
    8  FE 1  Y    0.000000   0.000000   0.000000   0.001557   0.000000
    9  FE 1  Z    0.000000  -0.001556   0.000000   0.000000   0.000000
   10  FE 1 XX   -0.003506   0.000000   0.000000   0.000000  -0.034379
   11  FE 1 YY   -0.003507   0.000000   0.000000   0.000000  -0.034380
   12  FE 1 ZZ   -0.003505   0.000000   0.000000   0.000000  -0.034376
   13  FE 1 XY    0.000000  -0.001682   0.000000   0.000000   0.000000
   14  FE 1 XZ    0.000000   0.000000   0.000000   0.001681   0.000000
   15  FE 1 YZ    0.000000   0.000000   0.001681   0.000000   0.000000
   16  FE 1  S   -0.008751   0.000000   0.000000   0.000000   0.004988
   17  N  2  S    0.494467   0.494608   0.494608   0.494608  -0.000789
   18  N  2  S    0.029196   0.028178   0.028178   0.028178   0.002685
   19  N  2  X   -0.001204  -0.002207  -0.002016  -0.002219   0.001742
   20  N  2  Y   -0.001205  -0.002219  -0.002208  -0.002017   0.001742
   21  N  2  Z    0.001204   0.002015   0.002217   0.002207  -0.001742
   22  N  3  S    0.494467  -0.494608  -0.494608   0.494608  -0.000789
   23  N  3  S    0.029196  -0.028178  -0.028178   0.028178   0.002685
   24  N  3  X    0.001204  -0.002207  -0.002016   0.002219  -0.001742
   25  N  3  Y   -0.001205   0.002219   0.002208  -0.002017   0.001742
   26  N  3  Z   -0.001204   0.002015   0.002217  -0.002207   0.001742
   27  N  4  S    0.494467  -0.494608   0.494608  -0.494608  -0.000789
   28  N  4  S    0.029196  -0.028178   0.028178  -0.028178   0.002685
   29  N  4  X   -0.001204   0.002207  -0.002016   0.002219   0.001742
   30  N  4  Y    0.001205  -0.002219   0.002208  -0.002017  -0.001742
   31  N  4  Z   -0.001204   0.002015  -0.002217   0.002207   0.001742
   32  N  5  S    0.494467   0.494608  -0.494608  -0.494608  -0.000789
   33  N  5  S    0.029196   0.028178  -0.028178  -0.028178   0.002685
   34  N  5  X    0.001204   0.002207  -0.002016  -0.002219  -0.001742
   35  N  5  Y    0.001205   0.002219  -0.002208  -0.002017  -0.001742
   36  N  5  Z    0.001204   0.002015  -0.002217  -0.002207  -0.001742
   37  H  6  S   -0.005181  -0.006252  -0.006282  -0.006227  -0.000452
   38  H  7  S   -0.005181   0.006252   0.006282  -0.006227  -0.000452
   39  H  8  S   -0.005181   0.006252  -0.006282   0.006227  -0.000452
   40  H  9  S   -0.005181  -0.006252   0.006282   0.006227  -0.000452
   41  H 10  S   -0.005181  -0.006227  -0.006252  -0.006282  -0.000452
   42  H 11  S   -0.005181   0.006227   0.006252  -0.006282  -0.000452
   43  H 12  S   -0.005181   0.006227  -0.006252   0.006282  -0.000452
   44  H 13  S   -0.005181  -0.006227   0.006252   0.006282  -0.000452
   45  H 14  S   -0.005181  -0.006282  -0.006227  -0.006252  -0.000452
   46  H 15  S   -0.005181   0.006282   0.006227  -0.006252  -0.000452
   47  H 16  S   -0.005181   0.006282  -0.006227   0.006252  -0.000452
   48  H 17  S   -0.005181  -0.006282   0.006227   0.006252  -0.000452

                     11         12         13         14         15
                   -3.2199    -3.2199    -3.2199    -1.7056    -1.6961
                     B2         B3         B1         A          B2  
    1  FE 1  S    0.000000   0.000000   0.000000  -0.005419  -0.000000
    2  FE 1  S    0.000000   0.000000   0.000000   0.017628  -0.000000
    3  FE 1  X    0.000000  -0.382843   0.000000   0.000000  -0.000000
    4  FE 1  Y   -0.382842   0.000000   0.000000   0.000000  -0.017402
    5  FE 1  Z    0.000000   0.000000  -0.382843   0.000000  -0.000000
    6  FE 1  S    0.000000   0.000000   0.000000  -0.138952  -0.000000
    7  FE 1  X    0.000000   1.053255   0.000000   0.000000  -0.000000
    8  FE 1  Y    1.053254   0.000000   0.000000   0.000000   0.051637
    9  FE 1  Z    0.000000   0.000000   1.053256   0.000000  -0.000000
   10  FE 1 XX    0.000000   0.000000   0.000000   0.043271  -0.000000
   11  FE 1 YY    0.000000   0.000000   0.000000   0.043290  -0.000000
   12  FE 1 ZZ    0.000000   0.000000   0.000000   0.043246  -0.000000
   13  FE 1 XY    0.000000   0.000000  -0.004295   0.000000  -0.000000
   14  FE 1 XZ   -0.004295   0.000000   0.000000   0.000000  -0.057469
   15  FE 1 YZ    0.000000  -0.004295   0.000000   0.000000  -0.000000
   16  FE 1  S    0.000000   0.000000   0.000000  -0.025003  -0.000000
   17  N  2  S    0.002085   0.002084  -0.002084  -0.109219  -0.109142
   18  N  2  S   -0.007425  -0.007423   0.007421   0.393124   0.390555
   19  N  2  X   -0.002567  -0.002024   0.002565  -0.014525  -0.019543
   20  N  2  Y   -0.002026  -0.002567   0.002566  -0.014534  -0.022024
   21  N  2  Z    0.002566   0.002566  -0.002023   0.014516   0.019478
   22  N  3  S    0.002085  -0.002084   0.002084  -0.109219  -0.109142
   23  N  3  S   -0.007425   0.007423  -0.007421   0.393124   0.390555
   24  N  3  X    0.002567  -0.002024   0.002565   0.014525   0.019543
   25  N  3  Y   -0.002026   0.002567  -0.002566  -0.014534  -0.022024
   26  N  3  Z   -0.002566   0.002566  -0.002023  -0.014516  -0.019478
   27  N  4  S   -0.002085   0.002084   0.002084  -0.109219   0.109142
   28  N  4  S    0.007425  -0.007423  -0.007421   0.393124  -0.390555
   29  N  4  X    0.002567  -0.002024  -0.002565  -0.014525   0.019543
   30  N  4  Y   -0.002026   0.002567   0.002566   0.014534  -0.022024
   31  N  4  Z    0.002566  -0.002566  -0.002023  -0.014516   0.019478
   32  N  5  S   -0.002085  -0.002084  -0.002084  -0.109219   0.109142
   33  N  5  S    0.007425   0.007423   0.007421   0.393124  -0.390555
   34  N  5  X   -0.002567  -0.002024  -0.002565   0.014525  -0.019543
   35  N  5  Y   -0.002026  -0.002567  -0.002566   0.014534  -0.022024
   36  N  5  Z   -0.002566  -0.002566  -0.002023   0.014516  -0.019478
   37  H  6  S   -0.000046   0.000726   0.000225   0.072983   0.072072
   38  H  7  S   -0.000046  -0.000726  -0.000225   0.072983   0.072072
   39  H  8  S    0.000046   0.000726  -0.000225   0.072983  -0.072072
   40  H  9  S    0.000046  -0.000726   0.000225   0.072983  -0.072072
   41  H 10  S    0.000726  -0.000225   0.000046   0.072982   0.071462
   42  H 11  S    0.000726   0.000225  -0.000046   0.072982   0.071462
   43  H 12  S   -0.000726  -0.000225  -0.000046   0.072982  -0.071462
   44  H 13  S   -0.000726   0.000225   0.000046   0.072982  -0.071462
   45  H 14  S   -0.000225  -0.000046  -0.000726   0.072986   0.072452
   46  H 15  S   -0.000225   0.000046   0.000726   0.072986   0.072452
   47  H 16  S    0.000225  -0.000046   0.000726   0.072986  -0.072452
   48  H 17  S    0.000225   0.000046  -0.000726   0.072986  -0.072452

                     16         17         18         19         20
                   -1.6961    -1.6961    -1.1898    -1.1898    -1.1898
                     B3         B1         B2         B3         B1  
    1  FE 1  S   -0.000000   0.000000   0.000000  -0.000000   0.000000
    2  FE 1  S   -0.000000   0.000000   0.000000  -0.000000   0.000000
    3  FE 1  X   -0.017397   0.000000   0.000000   0.009421   0.000000
    4  FE 1  Y   -0.000000   0.000000   0.009422  -0.000000   0.000000
    5  FE 1  Z   -0.000000   0.017392   0.000000  -0.000000   0.009420
    6  FE 1  S   -0.000000   0.000000   0.000000  -0.000000   0.000000
    7  FE 1  X    0.051622   0.000000   0.000000  -0.028259   0.000000
    8  FE 1  Y   -0.000000   0.000000  -0.028264  -0.000000   0.000000
    9  FE 1  Z   -0.000000  -0.051607   0.000000  -0.000000  -0.028256
   10  FE 1 XX   -0.000000   0.000000   0.000000  -0.000000   0.000000
   11  FE 1 YY   -0.000000   0.000000   0.000000  -0.000000   0.000000
   12  FE 1 ZZ   -0.000000   0.000000   0.000000  -0.000000   0.000000
   13  FE 1 XY   -0.000000   0.057506   0.000000  -0.000000  -0.053686
   14  FE 1 XZ   -0.000000   0.000000  -0.053665  -0.000000   0.000000
   15  FE 1 YZ   -0.057488   0.000000   0.000000  -0.053679   0.000000
   16  FE 1  S   -0.000000   0.000000   0.000000  -0.000000   0.000000
   17  N  2  S   -0.109142  -0.109142   0.000176   0.000177  -0.000178
   18  N  2  S    0.390555   0.390556  -0.001472  -0.001475   0.001480
   19  N  2  X   -0.022016  -0.019491  -0.147751   0.273452   0.150435
   20  N  2  Y   -0.019494  -0.019556   0.273389  -0.150254   0.147638
   21  N  2  Z    0.019540   0.022007   0.150544   0.147926   0.273506
   22  N  3  S    0.109142   0.109142   0.000176  -0.000177   0.000178
   23  N  3  S   -0.390555  -0.390556  -0.001472   0.001475  -0.001480
   24  N  3  X   -0.022016  -0.019491   0.147751   0.273452   0.150435
   25  N  3  Y    0.019494   0.019556   0.273389   0.150254  -0.147638
   26  N  3  Z    0.019540   0.022007  -0.150544   0.147926   0.273506
   27  N  4  S   -0.109142   0.109142  -0.000176   0.000177   0.000178
   28  N  4  S    0.390555  -0.390556   0.001472  -0.001475  -0.001480
   29  N  4  X   -0.022016   0.019491   0.147751   0.273452  -0.150435
   30  N  4  Y    0.019494  -0.019556   0.273389   0.150254   0.147638
   31  N  4  Z   -0.019540   0.022007   0.150544  -0.147926   0.273506
   32  N  5  S    0.109142  -0.109142  -0.000176  -0.000177  -0.000178
   33  N  5  S   -0.390555   0.390556   0.001472   0.001475   0.001480
   34  N  5  X   -0.022016   0.019491  -0.147751   0.273452  -0.150435
   35  N  5  Y   -0.019494   0.019556   0.273389  -0.150254  -0.147638
   36  N  5  Z   -0.019540   0.022007  -0.150544  -0.147926   0.273506
   37  H  6  S    0.071464   0.072450  -0.064091   0.190307   0.124223
   38  H  7  S   -0.071464  -0.072450  -0.064091  -0.190307  -0.124223
   39  H  8  S    0.071464  -0.072450   0.064091   0.190307  -0.124223
   40  H  9  S   -0.071464   0.072450   0.064091  -0.190307   0.124223
   41  H 10  S    0.072451   0.072072   0.190274  -0.124075   0.064098
   42  H 11  S   -0.072451  -0.072072   0.190274   0.124075  -0.064098
   43  H 12  S    0.072451  -0.072072  -0.190274  -0.124075  -0.064098
   44  H 13  S   -0.072451   0.072072  -0.190274   0.124075   0.064098
   45  H 14  S    0.072072   0.071466  -0.124217  -0.064274  -0.190276
   46  H 15  S   -0.072072  -0.071466  -0.124217   0.064274   0.190276
   47  H 16  S    0.072072  -0.071466   0.124217  -0.064274   0.190276
   48  H 17  S   -0.072072   0.071466   0.124217   0.064274  -0.190276

                     21         22         23         24         25
                   -1.1891    -1.1891    -1.1766    -1.1766    -1.1766
                     A          A          B2         B3         B1  
    1  FE 1  S    0.000001   0.000001  -0.000000  -0.000000   0.000000
    2  FE 1  S   -0.000003  -0.000004  -0.000000  -0.000000   0.000000
    3  FE 1  X   -0.000000   0.000000  -0.000000  -0.000048   0.000000
    4  FE 1  Y   -0.000000   0.000000   0.000036  -0.000000   0.000000
    5  FE 1  Z   -0.000000   0.000000  -0.000000  -0.000000  -0.000036
    6  FE 1  S    0.000023   0.000025  -0.000000  -0.000000   0.000000
    7  FE 1  X   -0.000000   0.000000  -0.000000   0.000154   0.000000
    8  FE 1  Y   -0.000000   0.000000  -0.000118  -0.000000   0.000000
    9  FE 1  Z   -0.000000   0.000000  -0.000000  -0.000000   0.000118
   10  FE 1 XX    0.054189  -0.053576  -0.000000  -0.000000   0.000000
   11  FE 1 YY   -0.073506  -0.020145  -0.000000  -0.000000   0.000000
   12  FE 1 ZZ    0.019300   0.073701  -0.000000  -0.000000   0.000000
   13  FE 1 XY   -0.000000   0.000000  -0.000000  -0.000000  -0.002697
   14  FE 1 XZ   -0.000000   0.000000   0.002694  -0.000000   0.000000
   15  FE 1 YZ   -0.000000   0.000000  -0.000000  -0.002723   0.000000
   16  FE 1  S   -0.000006  -0.000006  -0.000000  -0.000000   0.000000
   17  N  2  S   -0.000002  -0.000002  -0.000001   0.000001  -0.000001
   18  N  2  S    0.000005   0.000004  -0.000175   0.000180  -0.000176
   19  N  2  X   -0.197542   0.201012   0.245601   0.001958  -0.245358
   20  N  2  Y    0.272817   0.070443  -0.002287   0.245447   0.245599
   21  N  2  Z    0.075436   0.271617   0.245355   0.245511   0.002290
   22  N  3  S   -0.000002  -0.000002  -0.000001  -0.000001   0.000001
   23  N  3  S    0.000005   0.000004  -0.000175  -0.000180   0.000176
   24  N  3  X    0.197542  -0.201012  -0.245601   0.001958  -0.245358
   25  N  3  Y    0.272817   0.070443  -0.002287  -0.245447  -0.245599
   26  N  3  Z   -0.075436  -0.271617  -0.245355   0.245511   0.002290
   27  N  4  S   -0.000002  -0.000002   0.000001   0.000001   0.000001
   28  N  4  S    0.000005   0.000004   0.000175   0.000180   0.000176
   29  N  4  X   -0.197542   0.201012  -0.245601   0.001958   0.245358
   30  N  4  Y   -0.272817  -0.070443  -0.002287  -0.245447   0.245599
   31  N  4  Z   -0.075436  -0.271617   0.245355  -0.245511   0.002290
   32  N  5  S   -0.000002  -0.000002   0.000001  -0.000001  -0.000001
   33  N  5  S    0.000005   0.000004   0.000175  -0.000180  -0.000176
   34  N  5  X    0.197542  -0.201012   0.245601   0.001958   0.245358
   35  N  5  Y   -0.272817  -0.070443  -0.002287   0.245447  -0.245599
   36  N  5  Z    0.075436   0.271617  -0.245355  -0.245511   0.002290
   37  H  6  S   -0.106917   0.158183   0.185084   0.034858  -0.149210
   38  H  7  S   -0.106917   0.158183   0.185084  -0.034858   0.149210
   39  H  8  S   -0.106917   0.158183  -0.185084   0.034858   0.149210
   40  H  9  S   -0.106917   0.158183  -0.185084  -0.034858  -0.149210
   41  H 10  S    0.190446   0.013515  -0.035052   0.149326   0.185085
   42  H 11  S    0.190446   0.013515  -0.035052  -0.149326  -0.185085
   43  H 12  S    0.190446   0.013515   0.035052   0.149326  -0.185085
   44  H 13  S    0.190446   0.013515   0.035052  -0.149326   0.185085
   45  H 14  S   -0.083519  -0.171685  -0.149210  -0.185029  -0.035053
   46  H 15  S   -0.083519  -0.171685  -0.149210   0.185029   0.035053
   47  H 16  S   -0.083519  -0.171685   0.149210  -0.185029   0.035053
   48  H 17  S   -0.083519  -0.171685   0.149210   0.185029  -0.035053

                     26         27         28         29         30
                   -1.0564    -1.0012    -1.0011    -1.0011    -0.9693
                     A          B1         B3         B2         A   
    1  FE 1  S    0.017296  -0.000000   0.000000   0.000000  -0.000005
    2  FE 1  S   -0.057220  -0.000000   0.000000   0.000000   0.000017
    3  FE 1  X   -0.000000  -0.000000   0.031262   0.000000   0.000000
    4  FE 1  Y   -0.000000  -0.000000   0.000000   0.031274   0.000000
    5  FE 1  Z   -0.000000   0.031250   0.000000   0.000000   0.000000
    6  FE 1  S    0.392260  -0.000000   0.000000   0.000000  -0.000123
    7  FE 1  X   -0.000000  -0.000000  -0.097006   0.000000   0.000000
    8  FE 1  Y   -0.000000  -0.000000   0.000000  -0.097042   0.000000
    9  FE 1  Z   -0.000000  -0.096968   0.000000   0.000000   0.000000
   10  FE 1 XX   -0.107216  -0.000000   0.000000   0.000000  -0.700535
   11  FE 1 YY   -0.107093  -0.000000   0.000000   0.000000  -0.264965
   12  FE 1 ZZ   -0.106887  -0.000000   0.000000   0.000000   0.965611
   13  FE 1 XY   -0.000000   0.450886   0.000000   0.000000   0.000000
   14  FE 1 XZ   -0.000000  -0.000000   0.000000   0.450642   0.000000
   15  FE 1 YZ   -0.000000  -0.000000   0.450764   0.000000   0.000000
   16  FE 1  S   -0.262105  -0.000000   0.000000   0.000000   0.000089
   17  N  2  S    0.016452  -0.023182   0.023186   0.023190  -0.000006
   18  N  2  S   -0.085409   0.132059  -0.132080  -0.132101   0.000026
   19  N  2  X   -0.224180   0.221246  -0.217188  -0.224289  -0.022351
   20  N  2  Y   -0.224272   0.224331  -0.221305  -0.217301  -0.007383
   21  N  2  Z    0.224070  -0.217081   0.224236   0.221208  -0.029887
   22  N  3  S    0.016452   0.023182  -0.023186   0.023190  -0.000006
   23  N  3  S   -0.085409  -0.132059   0.132080  -0.132101   0.000026
   24  N  3  X    0.224180   0.221246  -0.217188   0.224289   0.022351
   25  N  3  Y   -0.224272  -0.224331   0.221305  -0.217301  -0.007383
   26  N  3  Z   -0.224070  -0.217081   0.224236  -0.221208   0.029887
   27  N  4  S    0.016452   0.023182   0.023186  -0.023190  -0.000006
   28  N  4  S   -0.085409  -0.132059  -0.132080   0.132101   0.000026
   29  N  4  X   -0.224180  -0.221246  -0.217188   0.224289  -0.022351
   30  N  4  Y    0.224272   0.224331   0.221305  -0.217301   0.007383
   31  N  4  Z   -0.224070  -0.217081  -0.224236   0.221208   0.029887
   32  N  5  S    0.016452  -0.023182  -0.023186  -0.023190  -0.000006
   33  N  5  S   -0.085409   0.132059   0.132080   0.132101   0.000026
   34  N  5  X    0.224180  -0.221246  -0.217188  -0.224289   0.022351
   35  N  5  Y    0.224272  -0.224331  -0.221305  -0.217301   0.007383
   36  N  5  Z    0.224070  -0.217081  -0.224236  -0.221208  -0.029887
   37  H  6  S    0.073192  -0.051784   0.055561   0.051986  -0.027974
   38  H  7  S    0.073192   0.051784  -0.055561   0.051986  -0.027974
   39  H  8  S    0.073192   0.051784   0.055561  -0.051986  -0.027974
   40  H  9  S    0.073192  -0.051784  -0.055561  -0.051986  -0.027974
   41  H 10  S    0.073186  -0.051972   0.051819   0.055543  -0.003115
   42  H 11  S    0.073186   0.051972  -0.051819   0.055543  -0.003115
   43  H 12  S    0.073186   0.051972   0.051819  -0.055543  -0.003115
   44  H 13  S    0.073186  -0.051972  -0.051819  -0.055543  -0.003115
   45  H 14  S    0.073229  -0.055564   0.051946   0.051803   0.031045
   46  H 15  S    0.073229   0.055564  -0.051946   0.051803   0.031045
   47  H 16  S    0.073229   0.055564   0.051946  -0.051803   0.031045
   48  H 17  S    0.073229  -0.055564  -0.051946  -0.051803   0.031045

                     31         32         33         34         35
                   -0.9692    -0.9011    -0.9011    -0.9010    -0.3886
                     A          B2         B3         B1         A   
    1  FE 1  S    0.000001   0.000000   0.000000   0.000000  -0.015356
    2  FE 1  S   -0.000004   0.000000   0.000000   0.000000   0.056272
    3  FE 1  X   -0.000000   0.000000  -0.023979   0.000000  -0.000000
    4  FE 1  Y   -0.000000  -0.023979   0.000000   0.000000  -0.000000
    5  FE 1  Z   -0.000000   0.000000   0.000000  -0.023979  -0.000000
    6  FE 1  S    0.000036   0.000000   0.000000   0.000000  -0.188121
    7  FE 1  X   -0.000000   0.000000   0.073436   0.000000  -0.000000
    8  FE 1  Y   -0.000000   0.073435   0.000000   0.000000  -0.000000
    9  FE 1  Z   -0.000000   0.000000   0.000000   0.073435  -0.000000
   10  FE 1 XX   -0.710486   0.000000   0.000000   0.000000   0.008522
   11  FE 1 YY    0.961936   0.000000   0.000000   0.000000   0.008608
   12  FE 1 ZZ   -0.251489   0.000000   0.000000   0.000000   0.008438
   13  FE 1 XY   -0.000000   0.000000   0.000000   0.901266  -0.000000
   14  FE 1 XZ   -0.000000   0.901378   0.000000   0.000000  -0.000000
   15  FE 1 YZ   -0.000000   0.000000   0.901322   0.000000  -0.000000
   16  FE 1  S   -0.000032   0.000000   0.000000   0.000000   1.272590
   17  N  2  S    0.000002  -0.028519  -0.028527   0.028535   0.068424
   18  N  2  S   -0.000006   0.138890   0.138931  -0.138971  -0.466639
   19  N  2  X   -0.021527   0.136488   0.169905  -0.137495  -0.111345
   20  N  2  Y    0.030164   0.169915   0.137511  -0.136627  -0.111374
   21  N  2  Z    0.008647  -0.137359  -0.136475   0.169897   0.111311
   22  N  3  S    0.000002  -0.028519   0.028527  -0.028535   0.068424
   23  N  3  S   -0.000006   0.138890  -0.138931   0.138971  -0.466639
   24  N  3  X    0.021527  -0.136488   0.169905  -0.137495   0.111345
   25  N  3  Y    0.030164   0.169915  -0.137511   0.136627  -0.111374
   26  N  3  Z   -0.008647   0.137359  -0.136475   0.169897  -0.111311
   27  N  4  S    0.000002   0.028519  -0.028527  -0.028535   0.068424
   28  N  4  S   -0.000006  -0.138890   0.138931   0.138971  -0.466639
   29  N  4  X   -0.021527  -0.136488   0.169905   0.137495  -0.111345
   30  N  4  Y   -0.030164   0.169915  -0.137511  -0.136627   0.111374
   31  N  4  Z   -0.008647  -0.137359   0.136475   0.169897  -0.111311
   32  N  5  S    0.000002   0.028519   0.028527   0.028535   0.068424
   33  N  5  S   -0.000006  -0.138890  -0.138931  -0.138971  -0.466639
   34  N  5  X    0.021527   0.136488   0.169905   0.137495   0.111345
   35  N  5  Y   -0.030164   0.169915   0.137511   0.136627   0.111374
   36  N  5  Z    0.008647   0.137359   0.136475   0.169897   0.111311
   37  H  6  S   -0.019728  -0.031946  -0.000217   0.039270   0.023539
   38  H  7  S   -0.019728  -0.031946   0.000217  -0.039270   0.023539
   39  H  8  S   -0.019728   0.031946  -0.000217  -0.039270   0.023539
   40  H  9  S   -0.019728   0.031946   0.000217   0.039270   0.023539
   41  H 10  S    0.034082  -0.000209  -0.039255   0.031959   0.023533
   42  H 11  S    0.034082  -0.000209   0.039255  -0.031959   0.023533
   43  H 12  S    0.034082   0.000209  -0.039255  -0.031959   0.023533
   44  H 13  S    0.034082   0.000209   0.039255   0.031959   0.023533
   45  H 14  S   -0.014357  -0.039258  -0.031964   0.000228   0.023542
   46  H 15  S   -0.014357  -0.039258   0.031964  -0.000228   0.023542
   47  H 16  S   -0.014357   0.039258  -0.031964  -0.000228   0.023542
   48  H 17  S   -0.014357   0.039258   0.031964   0.000228   0.023542

                     36         37         38         39         40
                    0.0534     0.0534     0.0534     0.0584     0.0584
                     B2         B3         B1         A          A   
    1  FE 1  S   -0.000000  -0.000000   0.000000  -0.000001   0.000001
    2  FE 1  S   -0.000000  -0.000000   0.000000   0.000002  -0.000003
    3  FE 1  X   -0.000000  -0.005431   0.000000  -0.000000  -0.000000
    4  FE 1  Y   -0.005433  -0.000000   0.000000  -0.000000  -0.000000
    5  FE 1  Z   -0.000000  -0.000000   0.005434  -0.000000  -0.000000
    6  FE 1  S   -0.000000  -0.000000   0.000000  -0.000037   0.000071
    7  FE 1  X   -0.000000   0.016620   0.000000  -0.000000  -0.000000
    8  FE 1  Y    0.016625  -0.000000   0.000000  -0.000000  -0.000000
    9  FE 1  Z   -0.000000  -0.000000  -0.016628  -0.000000  -0.000000
   10  FE 1 XX   -0.000000  -0.000000   0.000000   0.051132   0.040801
   11  FE 1 YY   -0.000000  -0.000000   0.000000  -0.060917   0.023806
   12  FE 1 ZZ   -0.000000  -0.000000   0.000000   0.009838  -0.064709
   13  FE 1 XY   -0.000000  -0.000000   0.031121  -0.000000  -0.000000
   14  FE 1 XZ   -0.031122  -0.000000   0.000000  -0.000000  -0.000000
   15  FE 1 YZ   -0.000000  -0.031113   0.000000  -0.000000  -0.000000
   16  FE 1  S   -0.000000  -0.000000   0.000000  -0.000000  -0.000006
   17  N  2  S    0.008067   0.008073   0.008079   0.000003  -0.000001
   18  N  2  S   -0.055298  -0.055343  -0.055386  -0.000018   0.000002
   19  N  2  X    0.304344  -0.376524   0.105273   0.326350   0.240657
   20  N  2  Y   -0.376663   0.104772   0.304215  -0.371565   0.162177
   21  N  2  Z   -0.105327  -0.304711   0.376786  -0.045357   0.403001
   22  N  3  S    0.008067  -0.008073  -0.008079   0.000003  -0.000001
   23  N  3  S   -0.055298   0.055343   0.055386  -0.000018   0.000002
   24  N  3  X   -0.304344  -0.376524   0.105273  -0.326350  -0.240657
   25  N  3  Y   -0.376663  -0.104772  -0.304215  -0.371565   0.162177
   26  N  3  Z    0.105327  -0.304711   0.376786   0.045357  -0.403001
   27  N  4  S   -0.008067   0.008073  -0.008079   0.000003  -0.000001
   28  N  4  S    0.055298  -0.055343   0.055386  -0.000018   0.000002
   29  N  4  X   -0.304344  -0.376524  -0.105273   0.326350   0.240657
   30  N  4  Y   -0.376663  -0.104772   0.304215   0.371565  -0.162177
   31  N  4  Z   -0.105327   0.304711   0.376786   0.045357  -0.403001
   32  N  5  S   -0.008067  -0.008073   0.008079   0.000003  -0.000001
   33  N  5  S    0.055298   0.055343  -0.055386  -0.000018   0.000002
   34  N  5  X    0.304344  -0.376524  -0.105273  -0.326350  -0.240657
   35  N  5  Y   -0.376663   0.104772  -0.304215   0.371565  -0.162177
   36  N  5  Z    0.105327   0.304711   0.376786  -0.045357   0.403001
   37  H  6  S   -0.273074   0.539542  -0.174444  -0.353261  -0.375645
   38  H  7  S   -0.273074  -0.539542   0.174444  -0.353261  -0.375645
   39  H  8  S    0.273074   0.539542   0.174444  -0.353261  -0.375645
   40  H  9  S    0.273074  -0.539542  -0.174444  -0.353261  -0.375645
   41  H 10  S    0.539599  -0.173775  -0.272971   0.501963  -0.118114
   42  H 11  S    0.539599   0.173775   0.272971   0.501963  -0.118114
   43  H 12  S   -0.539599  -0.173775   0.272971   0.501963  -0.118114
   44  H 13  S   -0.539599   0.173775  -0.272971   0.501963  -0.118114
   45  H 14  S   -0.174455  -0.273613   0.539649  -0.148677   0.493768
   46  H 15  S   -0.174455   0.273613  -0.539649  -0.148677   0.493768
   47  H 16  S    0.174455  -0.273613  -0.539649  -0.148677   0.493768
   48  H 17  S    0.174455   0.273613   0.539649  -0.148677   0.493768

                     41         42         43         44         45
                    0.0615     0.0615     0.0615     0.0842     0.0842
                     B3         B2         B1         B2         B3  
    1  FE 1  S    0.000000  -0.000000  -0.000000  -0.000000   0.000000
    2  FE 1  S    0.000000  -0.000000  -0.000000  -0.000000   0.000000
    3  FE 1  X    0.001492  -0.000000  -0.000000  -0.000000   0.005864
    4  FE 1  Y    0.000000   0.001481  -0.000000   0.005866   0.000000
    5  FE 1  Z    0.000000  -0.000000  -0.001482  -0.000000   0.000000
    6  FE 1  S    0.000000  -0.000000  -0.000000  -0.000000   0.000000
    7  FE 1  X   -0.004542  -0.000000  -0.000000  -0.000000  -0.018699
    8  FE 1  Y    0.000000  -0.004511  -0.000000  -0.018707   0.000000
    9  FE 1  Z    0.000000  -0.000000   0.004512  -0.000000   0.000000
   10  FE 1 XX    0.000000  -0.000000  -0.000000  -0.000000   0.000000
   11  FE 1 YY    0.000000  -0.000000  -0.000000  -0.000000   0.000000
   12  FE 1 ZZ    0.000000  -0.000000  -0.000000  -0.000000   0.000000
   13  FE 1 XY    0.000000  -0.000000  -0.012589  -0.000000   0.000000
   14  FE 1 XZ    0.000000   0.012595  -0.000000  -0.015980   0.000000
   15  FE 1 YZ    0.012599  -0.000000  -0.000000  -0.000000  -0.015997
   16  FE 1  S    0.000000  -0.000000  -0.000000  -0.000000   0.000000
   17  N  2  S    0.000564   0.000618   0.000608  -0.082520  -0.082519
   18  N  2  S   -0.004357  -0.004737  -0.004665   0.595168   0.595164
   19  N  2  X    0.118551   0.282843  -0.394196  -0.145191  -0.208806
   20  N  2  Y   -0.394316   0.117999   0.282898  -0.208775  -0.168634
   21  N  2  Z   -0.282486   0.394222  -0.117967   0.168722   0.145265
   22  N  3  S   -0.000564   0.000618  -0.000608  -0.082520   0.082519
   23  N  3  S    0.004357  -0.004737   0.004665   0.595168  -0.595164
   24  N  3  X    0.118551  -0.282843  -0.394196   0.145191  -0.208806
   25  N  3  Y    0.394316   0.117999  -0.282898  -0.208775   0.168634
   26  N  3  Z   -0.282486  -0.394222  -0.117967  -0.168722   0.145265
   27  N  4  S    0.000564  -0.000618  -0.000608   0.082520  -0.082519
   28  N  4  S   -0.004357   0.004737   0.004665  -0.595168   0.595164
   29  N  4  X    0.118551  -0.282843   0.394196   0.145191  -0.208806
   30  N  4  Y    0.394316   0.117999   0.282898  -0.208775   0.168634
   31  N  4  Z    0.282486   0.394222  -0.117967   0.168722  -0.145265
   32  N  5  S   -0.000564  -0.000618   0.000608   0.082520   0.082519
   33  N  5  S    0.004357   0.004737  -0.004665  -0.595168  -0.595164
   34  N  5  X    0.118551   0.282843   0.394196  -0.145191  -0.208806
   35  N  5  Y   -0.394316   0.117999  -0.282898  -0.208775  -0.168634
   36  N  5  Z    0.282486  -0.394222  -0.117967  -0.168722  -0.145265
   37  H  6  S   -0.055691  -0.410945   0.475040  -0.386865  -0.316140
   38  H  7  S    0.055691  -0.410945  -0.475040  -0.386865   0.316140
   39  H  8  S   -0.055691   0.410945  -0.475040   0.386865  -0.316140
   40  H  9  S    0.055691   0.410945   0.475040   0.386865   0.316140
   41  H 10  S    0.475161  -0.054782  -0.411022  -0.316205  -0.370028
   42  H 11  S   -0.475161  -0.054782   0.411022  -0.316205   0.370028
   43  H 12  S    0.475161   0.054782   0.411022   0.316205  -0.370028
   44  H 13  S   -0.475161   0.054782  -0.411022   0.316205   0.370028
   45  H 14  S   -0.410759   0.475108  -0.054768  -0.369775  -0.386679
   46  H 15  S    0.410759   0.475108   0.054768  -0.369775   0.386679
   47  H 16  S   -0.410759  -0.475108   0.054768   0.369775  -0.386679
   48  H 17  S    0.410759  -0.475108  -0.054768   0.369775   0.386679

                     46         47         48
                    0.0842     0.1802     0.6311
                     B1         A          A   
    1  FE 1  S   -0.000000   0.013567   0.019511
    2  FE 1  S   -0.000000  -0.046627  -0.061178
    3  FE 1  X   -0.000000   0.000000   0.000000
    4  FE 1  Y   -0.000000   0.000000   0.000000
    5  FE 1  Z   -0.005863   0.000000   0.000000
    6  FE 1  S   -0.000000   0.892197   2.633274
    7  FE 1  X   -0.000000   0.000000   0.000000
    8  FE 1  Y   -0.000000   0.000000   0.000000
    9  FE 1  Z    0.018696   0.000000   0.000000
   10  FE 1 XX   -0.000000  -0.423642  -1.384619
   11  FE 1 YY   -0.000000  -0.423685  -1.384622
   12  FE 1 ZZ   -0.000000  -0.423596  -1.384614
   13  FE 1 XY    0.016001   0.000000   0.000000
   14  FE 1 XZ   -0.000000   0.000000   0.000000
   15  FE 1 YZ   -0.000000   0.000000   0.000000
   16  FE 1  S   -0.000000  -0.432908   1.083665
   17  N  2  S   -0.082517   0.051545  -0.033993
   18  N  2  S    0.595155  -0.404692   0.161491
   19  N  2  X   -0.168731   0.247027  -0.025962
   20  N  2  Y   -0.145261   0.247124  -0.025990
   21  N  2  Z    0.208747  -0.246961   0.025938
   22  N  3  S    0.082517   0.051545  -0.033993
   23  N  3  S   -0.595155  -0.404692   0.161491
   24  N  3  X   -0.168731  -0.247027   0.025962
   25  N  3  Y    0.145261   0.247124  -0.025990
   26  N  3  Z    0.208747   0.246961  -0.025938
   27  N  4  S    0.082517   0.051545  -0.033993
   28  N  4  S   -0.595155  -0.404692   0.161491
   29  N  4  X    0.168731   0.247027  -0.025962
   30  N  4  Y   -0.145261  -0.247124   0.025990
   31  N  4  Z    0.208747   0.246961  -0.025938
   32  N  5  S   -0.082517   0.051545  -0.033993
   33  N  5  S    0.595155  -0.404692   0.161491
   34  N  5  X    0.168731  -0.247027   0.025962
   35  N  5  Y    0.145261  -0.247124   0.025990
   36  N  5  Z    0.208747  -0.246961   0.025938
   37  H  6  S   -0.369870   0.354595  -0.215349
   38  H  7  S    0.369870   0.354595  -0.215349
   39  H  8  S    0.369870   0.354595  -0.215349
   40  H  9  S   -0.369870   0.354595  -0.215349
   41  H 10  S   -0.386857   0.354578  -0.215335
   42  H 11  S    0.386857   0.354578  -0.215335
   43  H 12  S    0.386857   0.354578  -0.215335
   44  H 13  S   -0.386857   0.354578  -0.215335
   45  H 14  S   -0.316115   0.354571  -0.215367
   46  H 15  S    0.316115   0.354571  -0.215367
   47  H 16  S    0.316115   0.354571  -0.215367
   48  H 17  S   -0.316115   0.354571  -0.215367
 ...... END OF ROHF CALCULATION ......
 STEP CPU TIME =     1.16 TOTAL CPU TIME =        1.2 (    0.0 MIN)
 TOTAL WALL CLOCK TIME=        2.3 SECONDS, CPU UTILIZATION IS  52.84%

     ----------------------------------------------------------------
     PROPERTY VALUES FOR THE ROHF  SELF-CONSISTENT FIELD WAVEFUNCTION
     ----------------------------------------------------------------

          -----------------
          ENERGY COMPONENTS
          -----------------

         WAVEFUNCTION NORMALIZATION =       1.0000000000

                ONE ELECTRON ENERGY =   -2789.4023287609
                TWO ELECTRON ENERGY =     910.7663364038
           NUCLEAR REPULSION ENERGY =     399.5812612205
                                      ------------------
                       TOTAL ENERGY =   -1479.0547311366

 ELECTRON-ELECTRON POTENTIAL ENERGY =     910.7663364038
  NUCLEUS-ELECTRON POTENTIAL ENERGY =   -4261.8673103081
   NUCLEUS-NUCLEUS POTENTIAL ENERGY =     399.5812612205
                                      ------------------
             TOTAL POTENTIAL ENERGY =   -2951.5197126838
               TOTAL KINETIC ENERGY =    1472.4649815472
                 VIRIAL RATIO (V/T) =       2.0044753184

          ---------------------------------------
          MULLIKEN AND LOWDIN POPULATION ANALYSES
          ---------------------------------------

     ATOMIC MULLIKEN POPULATION IN EACH MOLECULAR ORBITAL

                      1          2          3          4          5

                  2.000000   2.000000   2.000000   2.000000   2.000000

    1             2.000004   1.999993   2.000038   2.000038   2.000038
    2            -0.000001   0.000002  -0.000009  -0.000009  -0.000009
    3            -0.000001   0.000002  -0.000009  -0.000009  -0.000009
    4            -0.000001   0.000002  -0.000009  -0.000009  -0.000009
    5            -0.000001   0.000002  -0.000009  -0.000009  -0.000009
    6             0.000000   0.000000  -0.000000  -0.000000  -0.000000
    7             0.000000   0.000000  -0.000000  -0.000000  -0.000000
    8             0.000000   0.000000  -0.000000  -0.000000  -0.000000
    9             0.000000   0.000000  -0.000000  -0.000000  -0.000000
   10             0.000000   0.000000  -0.000000  -0.000000  -0.000000
   11             0.000000   0.000000  -0.000000  -0.000000  -0.000000
   12             0.000000   0.000000  -0.000000  -0.000000  -0.000000
   13             0.000000   0.000000  -0.000000  -0.000000  -0.000000
   14             0.000000   0.000000  -0.000000  -0.000000  -0.000000
   15             0.000000   0.000000  -0.000000  -0.000000  -0.000000
   16             0.000000   0.000000  -0.000000  -0.000000  -0.000000
   17             0.000000   0.000000  -0.000000  -0.000000  -0.000000

                      6          7          8          9         10

                  2.000000   2.000000   2.000000   2.000000   2.000000

    1            -0.001188  -0.000010  -0.000010  -0.000010   1.997866
    2             0.501227   0.501125   0.501125   0.501125   0.000549
    3             0.501227   0.501125   0.501125   0.501125   0.000549
    4             0.501227   0.501125   0.501125   0.501125   0.000549
    5             0.501227   0.501125   0.501125   0.501125   0.000549
    6            -0.000310  -0.000374  -0.000376  -0.000373  -0.000005
    7            -0.000310  -0.000374  -0.000376  -0.000373  -0.000005
    8            -0.000310  -0.000374  -0.000376  -0.000373  -0.000005
    9            -0.000310  -0.000374  -0.000376  -0.000373  -0.000005
   10            -0.000310  -0.000373  -0.000374  -0.000376  -0.000005
   11            -0.000310  -0.000373  -0.000374  -0.000376  -0.000005
   12            -0.000310  -0.000373  -0.000374  -0.000376  -0.000005
   13            -0.000310  -0.000373  -0.000374  -0.000376  -0.000005
   14            -0.000310  -0.000376  -0.000373  -0.000374  -0.000005
   15            -0.000310  -0.000376  -0.000373  -0.000374  -0.000005
   16            -0.000310  -0.000376  -0.000373  -0.000374  -0.000005
   17            -0.000310  -0.000376  -0.000373  -0.000374  -0.000005

                     11         12         13         14         15

                  2.000000   2.000000   2.000000   2.000000   2.000000

    1             1.996319   1.996321   1.996323  -0.015119   0.013970
    2             0.000921   0.000920   0.000920   0.379805   0.374252
    3             0.000921   0.000920   0.000920   0.379805   0.374252
    4             0.000921   0.000920   0.000920   0.379805   0.374252
    5             0.000921   0.000920   0.000920   0.379805   0.374252
    6             0.000001  -0.000006   0.000004   0.041324   0.040849
    7             0.000001  -0.000006   0.000004   0.041324   0.040849
    8             0.000001  -0.000006   0.000004   0.041324   0.040849
    9             0.000001  -0.000006   0.000004   0.041324   0.040849
   10            -0.000006   0.000004   0.000001   0.041323   0.040100
   11            -0.000006   0.000004   0.000001   0.041323   0.040100
   12            -0.000006   0.000004   0.000001   0.041323   0.040100
   13            -0.000006   0.000004   0.000001   0.041323   0.040100
   14             0.000004   0.000001  -0.000006   0.041327   0.041306
   15             0.000004   0.000001  -0.000006   0.041327   0.041306
   16             0.000004   0.000001  -0.000006   0.041327   0.041306
   17             0.000004   0.000001  -0.000006   0.041327   0.041306

                     16         17         18         19         20

                  2.000000   2.000000   2.000000   2.000000   2.000000

    1             0.013978   0.013985   0.009234   0.009239   0.009241
    2             0.374251   0.374249   0.323602   0.323599   0.323594
    3             0.374251   0.374249   0.323602   0.323599   0.323594
    4             0.374251   0.374249   0.323602   0.323599   0.323594
    5             0.374251   0.374249   0.323602   0.323599   0.323594
    6             0.040102   0.041304   0.012766   0.113251   0.048116
    7             0.040102   0.041304   0.012766   0.113251   0.048116
    8             0.040102   0.041304   0.012766   0.113251   0.048116
    9             0.040102   0.041304   0.012766   0.113251   0.048116
   10             0.041306   0.040848   0.113213   0.048002   0.012769
   11             0.041306   0.040848   0.113213   0.048002   0.012769
   12             0.041306   0.040848   0.113213   0.048002   0.012769
   13             0.041306   0.040848   0.113213   0.048002   0.012769
   14             0.040847   0.040103   0.048111   0.012839   0.113211
   15             0.040847   0.040103   0.048111   0.012839   0.113211
   16             0.040847   0.040103   0.048111   0.012839   0.113211
   17             0.040847   0.040103   0.048111   0.012839   0.113211

                     21         22         23         24         25

                  2.000000   2.000000   2.000000   2.000000   2.000000

    1             0.020273   0.020263   0.000021   0.000021   0.000021
    2             0.323968   0.323965   0.322941   0.322938   0.322939
    3             0.323968   0.323965   0.322941   0.322938   0.322939
    4             0.323968   0.323965   0.322941   0.322938   0.322939
    5             0.323968   0.323965   0.322941   0.322938   0.322939
    6             0.035779   0.078201   0.105062   0.003724   0.068226
    7             0.035779   0.078201   0.105062   0.003724   0.068226
    8             0.035779   0.078201   0.105062   0.003724   0.068226
    9             0.035779   0.078201   0.105062   0.003724   0.068226
   10             0.113405   0.000577   0.003766   0.068333   0.105064
   11             0.113405   0.000577   0.003766   0.068333   0.105064
   12             0.113405   0.000577   0.003766   0.068333   0.105064
   13             0.113405   0.000577   0.003766   0.068333   0.105064
   14             0.021780   0.092192   0.068226   0.105000   0.003766
   15             0.021780   0.092192   0.068226   0.105000   0.003766
   16             0.021780   0.092192   0.068226   0.105000   0.003766
   17             0.021780   0.092192   0.068226   0.105000   0.003766

                     26         27         28         29         30

                  2.000000   2.000000   2.000000   2.000000   1.000000

    1             0.308977   0.503888   0.503631   0.503374   0.988786
    2             0.387014   0.347286   0.347349   0.347412   0.000927
    3             0.387014   0.347286   0.347349   0.347412   0.000927
    4             0.387014   0.347286   0.347349   0.347412   0.000927
    5             0.387014   0.347286   0.347349   0.347412   0.000927
    6             0.011910   0.008555   0.009608   0.008581   0.000835
    7             0.011910   0.008555   0.009608   0.008581   0.000835
    8             0.011910   0.008555   0.009608   0.008581   0.000835
    9             0.011910   0.008555   0.009608   0.008581   0.000835
   10             0.011908   0.008577   0.008565   0.009603   0.000011
   11             0.011908   0.008577   0.008565   0.009603   0.000011
   12             0.011908   0.008577   0.008565   0.009603   0.000011
   13             0.011908   0.008577   0.008565   0.009603   0.000011
   14             0.011923   0.009609   0.008569   0.008561   0.001031
   15             0.011923   0.009609   0.008569   0.008561   0.001031
   16             0.011923   0.009609   0.008569   0.008561   0.001031
   17             0.011923   0.009609   0.008569   0.008561   0.001031

                     31         32         33         34

                  1.000000   1.000000   1.000000   1.000000

    1             0.988781   0.738317   0.738181   0.738048
    2             0.000927   0.062660   0.062693   0.062725
    3             0.000927   0.062660   0.062693   0.062725
    4             0.000927   0.062660   0.062693   0.062725
    5             0.000927   0.062660   0.062693   0.062725
    6             0.000417   0.001106   0.000000   0.001656
    7             0.000417   0.001106   0.000000   0.001656
    8             0.000417   0.001106   0.000000   0.001656
    9             0.000417   0.001106   0.000000   0.001656
   10             0.001241   0.000000   0.001654   0.001107
   11             0.001241   0.000000   0.001654   0.001107
   12             0.001241   0.000000   0.001654   0.001107
   13             0.001241   0.000000   0.001654   0.001107
   14             0.000219   0.001655   0.001107   0.000000
   15             0.000219   0.001655   0.001107   0.000000
   16             0.000219   0.001655   0.001107   0.000000
   17             0.000219   0.001655   0.001107   0.000000

     ATOMIC SPIN POPULATION (ALPHA MINUS BETA)
       ATOM         MULL.POP.                    LOW.POP.
    1 FE            4.192116                     4.183520
    2 N             0.189932                     0.193192
    3 N             0.189932                     0.193192
    4 N             0.189932                     0.193192
    5 N             0.189932                     0.193192
    6 H             0.004013                     0.003643
    7 H             0.004013                     0.003643
    8 H             0.004013                     0.003643
    9 H             0.004013                     0.003643
   10 H             0.004013                     0.003643
   11 H             0.004013                     0.003643
   12 H             0.004013                     0.003643
   13 H             0.004013                     0.003643
   14 H             0.004013                     0.003642
   15 H             0.004013                     0.003642
   16 H             0.004013                     0.003642
   17 H             0.004013                     0.003642

               ----- POPULATIONS IN EACH AO -----
                             MULLIKEN      LOWDIN
              1  FE 1  S      1.99974     1.99993
              2  FE 1  S      2.00031     1.99896
              3  FE 1  X      1.99993     1.99988
              4  FE 1  Y      1.99993     1.99988
              5  FE 1  Z      1.99993     1.99988
              6  FE 1  S      2.12134     1.29894
              7  FE 1  X      1.99953     1.99844
              8  FE 1  Y      1.99953     1.99844
              9  FE 1  Z      1.99953     1.99844
             10  FE 1 XX      0.66682     0.93494
             11  FE 1 YY      0.66683     0.93494
             12  FE 1 ZZ      0.66681     0.93493
             13  FE 1 XY      1.26207     1.26548
             14  FE 1 XZ      1.26180     1.26520
             15  FE 1 YZ      1.26194     1.26534
             16  FE 1  S      0.18678     0.37823
             17  N  2  S      1.99176     1.99068
             18  N  2  S      1.58677     1.35275
             19  N  2  X      1.37949     1.36342
             20  N  2  Y      1.37954     1.36348
             21  N  2  Z      1.37943     1.36336
             22  N  3  S      1.99176     1.99068
             23  N  3  S      1.58677     1.35275
             24  N  3  X      1.37949     1.36342
             25  N  3  Y      1.37954     1.36348
             26  N  3  Z      1.37943     1.36336
             27  N  4  S      1.99176     1.99068
             28  N  4  S      1.58677     1.35275
             29  N  4  X      1.37949     1.36342
             30  N  4  Y      1.37954     1.36348
             31  N  4  Z      1.37943     1.36336
             32  N  5  S      1.99176     1.99068
             33  N  5  S      1.58677     1.35275
             34  N  5  X      1.37949     1.36342
             35  N  5  Y      1.37954     1.36348
             36  N  5  Z      1.37943     1.36336
             37  H  6  S      0.66993     0.74944
             38  H  7  S      0.66993     0.74944
             39  H  8  S      0.66993     0.74944
             40  H  9  S      0.66993     0.74944
             41  H 10  S      0.66993     0.74944
             42  H 11  S      0.66993     0.74944
             43  H 12  S      0.66993     0.74944
             44  H 13  S      0.66993     0.74944
             45  H 14  S      0.66994     0.74945
             46  H 15  S      0.66994     0.74945
             47  H 16  S      0.66994     0.74945
             48  H 17  S      0.66994     0.74945

          ----- MULLIKEN ATOMIC OVERLAP POPULATIONS -----
          (OFF-DIAGONAL ELEMENTS NEED TO BE MULTIPLIED BY 2)

             1           2           3           4           5

    1   23.9935650
    2    0.0510967   6.6629164
    3    0.0510967  -0.0014611   6.6629164
    4    0.0510967  -0.0014600  -0.0014590   6.6629164
    5    0.0510967  -0.0014590  -0.0014600  -0.0014611   6.6629164
    6   -0.0087600   0.3358176  -0.0000149  -0.0000003  -0.0000190
    7   -0.0087600  -0.0000149   0.3358176  -0.0000190  -0.0000003
    8   -0.0087600  -0.0000003  -0.0000190   0.3358176  -0.0000149
    9   -0.0087600  -0.0000190  -0.0000003  -0.0000149   0.3358176
   10   -0.0087589   0.3358169  -0.0000003  -0.0000191  -0.0000148
   11   -0.0087589  -0.0000003   0.3358169  -0.0000148  -0.0000191
   12   -0.0087589  -0.0000191  -0.0000148   0.3358169  -0.0000003
   13   -0.0087589  -0.0000148  -0.0000191  -0.0000003   0.3358169
   14   -0.0087621   0.3358187  -0.0000192  -0.0000148  -0.0000003
   15   -0.0087621  -0.0000192   0.3358187  -0.0000003  -0.0000148
   16   -0.0087621  -0.0000148  -0.0000003   0.3358187  -0.0000192
   17   -0.0087621  -0.0000003  -0.0000148  -0.0000192   0.3358187

             6           7           8           9          10

    6    0.3733226
    7    0.0000027   0.3733226
    8    0.0000000   0.0000079   0.3733226
    9    0.0000079   0.0000000   0.0000027   0.3733226
   10   -0.0152262   0.0000006   0.0000009   0.0000140   0.3733179
   11    0.0000006  -0.0152262   0.0000140   0.0000009   0.0000000
   12    0.0000009   0.0000140  -0.0152262   0.0000006   0.0000079
   13    0.0000140   0.0000009   0.0000006  -0.0152262   0.0000027
   14   -0.0152266   0.0000141   0.0000006   0.0000009  -0.0152265
   15    0.0000141  -0.0152266   0.0000009   0.0000006   0.0000009
   16    0.0000006   0.0000009  -0.0152266   0.0000141   0.0000140
   17    0.0000009   0.0000006   0.0000141  -0.0152266   0.0000006

            11          12          13          14          15

   11    0.3733179
   12    0.0000027   0.3733179
   13    0.0000079   0.0000000   0.3733179
   14    0.0000009   0.0000140   0.0000006   0.3733330
   15   -0.0152265   0.0000006   0.0000140   0.0000080   0.3733330
[...]
 15   H            X -0.23700991  0.25604228 -0.01386039  0.28604741 -0.13564888
                   Y -0.14485561  0.22433675 -0.08141140  0.21422848  0.19671071
                   Z  0.05458389  0.08481859 -0.14868589  0.01783535 -0.14039021
 16   H            X -0.23700991  0.25604228  0.01386039 -0.28604741 -0.13564888
                   Y -0.14485561  0.22433675  0.08141140 -0.21422848  0.19671071
                   Z -0.05458389 -0.08481859 -0.14868589  0.01783535  0.14039021
 17   H            X -0.23700991 -0.25604228 -0.01386039  0.28604741 -0.13564888
                   Y  0.14485561  0.22433675  0.08141140 -0.21422848 -0.19671071
                   Z -0.05458389  0.08481859  0.14868589 -0.01783535  0.14039021

 TRANS. SAYVETZ    X -0.00000197 -0.00000000  0.00000000 -0.00000000 -0.00000316
                   Y -0.00000000  0.00000154 -0.00000000  0.00000000  0.00000000
                   Z -0.00000000 -0.00000000  0.00000000 -0.00000000 -0.00000000
               TOTAL  0.00000197  0.00000154  0.00000000  0.00000000  0.00000316

   ROT. SAYVETZ    X  0.00002201  0.00000000  0.00000000 -0.00000000 -0.00000373
                   Y  0.00000000  0.00006628  0.00000000 -0.00000000 -0.00000000
                   Z -0.00000000 -0.00000000  0.00000000  0.00000000  0.00000000
               TOTAL  0.00002201  0.00006628  0.00000000  0.00000000  0.00000373

                           41          42          43          44          45
       FREQUENCY:      3675.35     3675.37     3767.07     3817.04     3817.04  
        SYMMETRY:         B2          B1          A           B2          B3  
    REDUCED MASS:      1.03840     1.03840     1.03823     1.08978     1.08978
    IR INTENSITY:     38.34657    38.28642     0.00000     0.19249     0.19084

  1   FE           X -0.00000000  0.00000000  0.00000000 -0.00000000 -0.00000872
                   Y -0.00012662 -0.00000000  0.00000000 -0.00000880  0.00000000
                   Z -0.00000000  0.00012656  0.00000000  0.00000000  0.00000000
  2   N            X -0.01409850 -0.01417786  0.01370428  0.02506363  0.00354544
                   Y -0.01291308 -0.01410436  0.01371410  0.00356665 -0.02836523
                   Z  0.01417355  0.01290083 -0.01369585  0.02838866 -0.02509302
  3   N            X  0.01409850 -0.01417786 -0.01370428 -0.02506363  0.00354544
                   Y -0.01291308  0.01410436  0.01371410  0.00356665  0.02836523
                   Z -0.01417355  0.01290083  0.01369585 -0.02838866 -0.02509302
  4   N            X  0.01409850  0.01417786  0.01370428 -0.02506363  0.00354544
                   Y -0.01291308 -0.01410436 -0.01371410  0.00356665  0.02836523
                   Z  0.01417355  0.01290083  0.01369585  0.02838866  0.02509302
  5   N            X -0.01409850  0.01417786 -0.01370428  0.02506363  0.00354544
                   Y -0.01291308  0.01410436 -0.01371410  0.00356665 -0.02836523
                   Z -0.01417355  0.01290083 -0.01369585 -0.02838866  0.02509302
  6   H            X -0.14030973 -0.13752314  0.14756268 -0.17384375  0.01453333
                   Y  0.13570068  0.13000951 -0.13510542  0.17140151 -0.01730459
                   Z -0.19669138 -0.19394871  0.20011237 -0.24766360  0.01625267
  7   H            X  0.14030973 -0.13752314 -0.14756268  0.17384375  0.01453333
                   Y  0.13570068 -0.13000951 -0.13510542  0.17140151  0.01730459
                   Z  0.19669138 -0.19394871 -0.20011237  0.24766360  0.01625267
  8   H            X  0.14030973  0.13752314  0.14756268  0.17384375  0.01453333
                   Y  0.13570068  0.13000951  0.13510542  0.17140151  0.01730459
                   Z -0.19669138 -0.19394871 -0.20011237 -0.24766360 -0.01625267
  9   H            X -0.14030973  0.13752314 -0.14756268 -0.17384375  0.01453333
                   Y  0.13570068 -0.13000951  0.13510542  0.17140151 -0.01730459
                   Z  0.19669138 -0.19394871  0.20011237  0.24766360 -0.01625267
 10   H            X  0.21529097  0.19672033 -0.20012150 -0.01595894 -0.23506554
                   Y -0.14847481 -0.14025396  0.14749312  0.01431819  0.16216845
                   Z -0.14686948 -0.13566928  0.13506506  0.01709877  0.15677616
 11   H            X -0.21529097  0.19672033  0.20012150  0.01595894 -0.23506554
                   Y -0.14847481  0.14025396  0.14749312  0.01431819 -0.16216845
                   Z  0.14686948 -0.13566928 -0.13506506 -0.01709877  0.15677616
 12   H            X -0.21529097 -0.19672033 -0.20012150  0.01595894 -0.23506554
                   Y -0.14847481 -0.14025396 -0.14749312  0.01431819 -0.16216845
                   Z -0.14686948 -0.13566928 -0.13506506  0.01709877 -0.15677616
 13   H            X  0.21529097 -0.19672033  0.20012150 -0.01595894 -0.23506554
                   Y -0.14847481  0.14025396 -0.14749312  0.01431819  0.16216845
                   Z  0.14686948 -0.13566928  0.13506506 -0.01709877 -0.15677616
 14   H            X  0.12994555  0.14683093 -0.13507213 -0.15682530  0.17139157
                   Y  0.19395057  0.21525995 -0.20015598 -0.23515381  0.24777919
                   Z  0.13759221  0.14861265 -0.14766362 -0.16240486  0.17400800
 15   H            X -0.12994555  0.14683093  0.13507213  0.15682530  0.17139157
                   Y  0.19395057 -0.21525995 -0.20015598 -0.23515381 -0.24777919
                   Z -0.13759221  0.14861265  0.14766362  0.16240486  0.17400800
 16   H            X -0.12994555 -0.14683093 -0.13507213  0.15682530  0.17139157
                   Y  0.19395057  0.21525995  0.20015598 -0.23515381 -0.24777919
                   Z  0.13759221  0.14861265  0.14766362 -0.16240486 -0.17400800
 17   H            X  0.12994555 -0.14683093  0.13507213 -0.15682530  0.17139157
                   Y  0.19395057 -0.21525995  0.20015598 -0.23515381  0.24777919
                   Z -0.13759221  0.14861265 -0.14766362  0.16240486 -0.17400800

 TRANS. SAYVETZ    X  0.00000000  0.00000000  0.00000000 -0.00000000 -0.00000013
                   Y  0.00000306  0.00000000  0.00000000  0.00000032 -0.00000000
                   Z -0.00000000 -0.00000285  0.00000000 -0.00000000 -0.00000000
               TOTAL  0.00000306  0.00000285  0.00000000  0.00000032  0.00000013

   ROT. SAYVETZ    X  0.00000000  0.00000000  0.00000000  0.00000000 -0.00000120
                   Y -0.00002966 -0.00000000 -0.00000000  0.00000244  0.00000000
                   Z -0.00000000 -0.00002152 -0.00000000  0.00000000 -0.00000000
               TOTAL  0.00002966  0.00002152  0.00000000  0.00000244  0.00000120

                           46          47          48          49          50
       FREQUENCY:      3817.05     3817.56     3817.57     3823.05     3823.05  
        SYMMETRY:         B1          A           A           B1          B2  
    REDUCED MASS:      1.08978     1.08987     1.08987     1.08967     1.08966
    IR INTENSITY:      0.18977     0.00000     0.00000    15.56456    15.54530

  1   FE           X  0.00000000  0.00000000  0.00000000 -0.00000000  0.00000000
                   Y  0.00000000  0.00000000 -0.00000000  0.00000000 -0.00006882
                   Z  0.00000874 -0.00000000  0.00000000 -0.00006892 -0.00000000
  2   N            X -0.02837749  0.01530831  0.02703908  0.01186613 -0.01784567
                   Y  0.02507996  0.01574771 -0.02677662  0.01781225  0.03139899
                   Z -0.00354013  0.03107784  0.00024940  0.03141316  0.01185298
  3   N            X -0.02837749 -0.01530831 -0.02703908  0.01186613  0.01784567
                   Y -0.02507996  0.01574771 -0.02677662 -0.01781225  0.03139899
                   Z -0.00354013 -0.03107784 -0.00024940  0.03141316 -0.01185298
  4   N            X  0.02837749  0.01530831  0.02703908 -0.01186613  0.01784567
                   Y  0.02507996 -0.01574771  0.02677662  0.01781225  0.03139899
                   Z -0.00354013 -0.03107784 -0.00024940  0.03141316  0.01185298
  5   N            X  0.02837749 -0.01530831 -0.02703908 -0.01186613 -0.01784567
                   Y -0.02507996 -0.01574771  0.02677662 -0.01781225  0.03139899
                   Z -0.00354013  0.03107784  0.00024940  0.03141316 -0.01185298
  6   H            X  0.16222078 -0.12473769 -0.14902748 -0.11556927  0.09265593
                   Y -0.15680194  0.12412636  0.14406258  0.11435299 -0.08690617
                   Z  0.23501004 -0.17649006 -0.21652501 -0.16074304  0.13439271
  7   H            X  0.16222078  0.12473769  0.14902748 -0.11556927 -0.09265593
                   Y  0.15680194  0.12412636  0.14406258 -0.11435299 -0.08690617
                   Z  0.23501004  0.17649006  0.21652501 -0.16074304 -0.13439271
  8   H            X -0.16222078 -0.12473769 -0.14902748  0.11556927 -0.09265593
                   Y -0.15680194 -0.12412636 -0.14406258  0.11435299 -0.08690617
                   Z  0.23501004  0.17649006  0.21652501 -0.16074304  0.13439271
  9   H            X -0.16222078  0.12473769  0.14902748  0.11556927  0.09265593
                   Y  0.15680194 -0.12412636 -0.14406258 -0.11435299 -0.08690617
                   Z  0.23501004 -0.17649006 -0.21652501 -0.16074304 -0.13439271
 10   H            X  0.24784371  0.09935328 -0.26117328  0.13422085  0.26933056
                   Y -0.17387134 -0.06671488  0.18248243 -0.09248471 -0.18788238
                   Z -0.17145588 -0.06272710  0.17950404 -0.08675207 -0.18388155
 11   H            X  0.24784371 -0.09935328  0.26117328  0.13422085 -0.26933056
                   Y  0.17387134 -0.06671488  0.18248243  0.09248471 -0.18788238
                   Z -0.17145588  0.06272710 -0.17950404 -0.08675207  0.18388155
 12   H            X -0.24784371  0.09935328 -0.26117328 -0.13422085 -0.26933056
                   Y -0.17387134  0.06671488 -0.18248243 -0.09248471 -0.18788238
                   Z -0.17145588  0.06272710 -0.17950404 -0.08675207 -0.18388155
 13   H            X -0.24784371 -0.09935328  0.26117328 -0.13422085  0.26933056
                   Y  0.17387134  0.06671488 -0.18248243  0.09248471 -0.18788238
                   Z -0.17145588 -0.06272710  0.17950404 -0.08675207  0.18388155
 14   H            X -0.01725024 -0.18671341  0.03541350 -0.18379245 -0.11415294
                   Y -0.01618203 -0.27573435  0.04452912 -0.26923717 -0.16052531
                   Z -0.01448754 -0.19150471  0.03348740 -0.18801407 -0.11547242
 15   H            X -0.01725024  0.18671341 -0.03541350 -0.18379245  0.11415294
                   Y  0.01618203 -0.27573435  0.04452912  0.26923717 -0.16052531
                   Z -0.01448754  0.19150471 -0.03348740 -0.18801407  0.11547242
 16   H            X  0.01725024 -0.18671341  0.03541350  0.18379245  0.11415294
                   Y -0.01618203  0.27573435 -0.04452912 -0.26923717 -0.16052531
                   Z -0.01448754  0.19150471 -0.03348740 -0.18801407 -0.11547242
 17   H            X  0.01725024  0.18671341 -0.03541350  0.18379245 -0.11415294
                   Y  0.01618203  0.27573435 -0.04452912  0.26923717 -0.16052531
                   Z -0.01448754 -0.19150471  0.03348740 -0.18801407  0.11547242

 TRANS. SAYVETZ    X  0.00000000 -0.00000000 -0.00000000  0.00000000  0.00000000
                   Y -0.00000000  0.00000000  0.00000000 -0.00000000 -0.00000105
                   Z  0.00000044  0.00000000 -0.00000000 -0.00000071  0.00000000
               TOTAL  0.00000044  0.00000000  0.00000000  0.00000071  0.00000105

   ROT. SAYVETZ    X -0.00000000  0.00000000  0.00000000 -0.00000000 -0.00000000
                   Y -0.00000000 -0.00000000 -0.00000000  0.00000000 -0.00000200
                   Z  0.00000752  0.00000000  0.00000000 -0.00000044  0.00000000
               TOTAL  0.00000752  0.00000000  0.00000000  0.00000044  0.00000200

                           51
       FREQUENCY:      3823.05  
        SYMMETRY:         B3  
    REDUCED MASS:      1.08967
    IR INTENSITY:     15.55573

  1   FE           X -0.00006886
                   Y -0.00000000
                   Z  0.00000000
  2   N            X  0.03140731
                   Y -0.01187697
                   Z  0.01781527
  3   N            X  0.03140731
                   Y  0.01187697
                   Z  0.01781527
  4   N            X  0.03140731
                   Y  0.01187697
                   Z -0.01781527
  5   N            X  0.03140731
                   Y -0.01187697
                   Z -0.01781527
  6   H            X -0.18792307
                   Y  0.18388487
                   Z -0.26924103
  7   H            X -0.18792307
                   Y -0.18388487
                   Z -0.26924103
  8   H            X -0.18792307
                   Y -0.18388487
                   Z  0.26924103
  9   H            X -0.18792307
                   Y  0.18388487
                   Z  0.26924103
 10   H            X -0.16081490
                   Y  0.11555294
                   Z  0.11435877
 11   H            X -0.16081490
                   Y -0.11555294
                   Z  0.11435877
 12   H            X -0.16081490
                   Y -0.11555294
                   Z -0.11435877
 13   H            X -0.16081490
                   Y  0.11555294
                   Z -0.11435877
 14   H            X -0.08669083
                   Y -0.13414558
                   Z -0.09252988
 15   H            X -0.08669083
                   Y  0.13414558
                   Z -0.09252988
 16   H            X -0.08669083
                   Y  0.13414558
                   Z  0.09252988
 17   H            X -0.08669083
                   Y -0.13414558
                   Z  0.09252988

 TRANS. SAYVETZ    X -0.00000087
                   Y -0.00000000
                   Z -0.00000000
               TOTAL  0.00000087

   ROT. SAYVETZ    X  0.00000369
                   Y -0.00000000
                   Z -0.00000000
               TOTAL  0.00000369

 REFERENCE ON SAYVETZ CONDITIONS - A. SAYVETZ, J.CHEM.PHYS., 7, 383-389(1939).

 NOTE - THE MODES J,K ARE ORTHONORMALIZED ACCORDING TO
 SUM ON I   M(I) * (X(I,J)*X(I,K) + Y(I,J)*Y(I,K) + Z(I,J)*Z(I,K)) = DELTA(J,K)

  MODE FREQ(CM**-1)  SYMMETRY  RED. MASS  IR INTENS.
     1       1.915    B2       3.169761    0.000000
     2       0.534    B3       5.039111    0.000000
     3       0.341    B1       7.104977    0.000000
     4       0.377    B2       6.942959    0.000000
     5       0.757    B3       3.829983    0.000000
     6       2.399    B1       3.136536    0.000000
     7      46.403    A        1.007825    0.000000
     8      73.038    B2       1.022994    0.000658
     9      73.078    B1       1.023069    0.000659
    10      73.082    B3       1.023078    0.000678
    11     121.178    A        3.165978    0.000000
    12     121.239    A        3.166144    0.000000
    13     132.776    B1       3.813183    0.236258
    14     132.777    B3       3.812744    0.236388
    15     132.801    B2       3.813157    0.236101
    16     537.117    A        4.329274    0.000000
    17     569.848    B1       4.950227    0.365191
    18     569.897    B3       4.950848    0.365413
    19     569.966    B2       4.951048    0.365686
    20     812.322    B1       1.143077    0.000096
    21     812.329    B2       1.143071    0.000086
    22     812.340    B3       1.143075    0.000108
    23     849.128    A        1.150316    0.000000
    24     849.139    A        1.150299    0.000000
    25     862.416    B2       1.184251    1.228753
    26     862.416    B3       1.184231    1.229684
    27     862.468    B1       1.184263    1.232609
    28    1650.525    B3       1.175342    0.473113
    29    1650.526    B1       1.175350    0.473203
    30    1650.543    B2       1.175339    0.473891
    31    1703.633    A        1.160463    0.000000
    32    1849.309    B3       1.056727    0.745458
    33    1849.312    B2       1.056727    0.743532
    34    1849.316    B1       1.056726    0.742220
    35    1862.253    B1       1.056811    3.675776
    36    1862.264    B3       1.056812    3.669326
    37    1862.269    B2       1.056814    3.668563
    38    1862.528    A        1.057759    0.000000
    39    1862.538    A        1.057760    0.000000
    40    3675.351    B3       1.038399   38.319427
    41    3675.352    B2       1.038399   38.346574
    42    3675.365    B1       1.038397   38.286420
    43    3767.066    A        1.038234    0.000000
    44    3817.037    B2       1.089785    0.192486
    45    3817.040    B3       1.089784    0.190839
    46    3817.046    B1       1.089785    0.189774
    47    3817.562    A        1.089867    0.000000
    48    3817.575    A        1.089867    0.000000
    49    3823.047    B1       1.089665   15.564563
    50    3823.051    B2       1.089665   15.545295
    51    3823.053    B3       1.089665   15.555733

     -------------------------------
     THERMOCHEMISTRY AT T=  298.15 K
     -------------------------------

 USING IDEAL GAS, RIGID ROTOR, HARMONIC NORMAL MODE APPROXIMATIONS.
 P=  1.01325E+05 PASCAL.
 ALL FREQUENCIES ARE SCALED BY   1.00000
 THE MOMENTS OF INERTIA ARE (IN AMU*BOHR**2)
    701.76339   701.94920   702.13257
 THE ROTATIONAL SYMMETRY NUMBER IS  4.0
 THE ROTATIONAL CONSTANTS ARE (IN GHZ)
      2.56937     2.56869     2.56802
      7 -     51 VIBRATIONAL MODES ARE USED IN THERMOCHEMISTRY.
 THE HARMONIC ZERO POINT ENERGY IS (SCALED BY   1.000)
        0.174825 HARTREE/MOLECULE    38369.660139 CM**-1/MOLECULE 
      109.704473 KCAL/MOL              459.003517 KJ/MOL

               Q               LN Q
 ELEC.     6.00000E+00       1.791759
 TRANS.    5.43003E+07      17.810040
 ROT.      5.26307E+04      10.871055
 VIB.      1.39091E+04       9.540297
 TOT.      2.38501E+17      40.013152

              E         H         G         CV        CP        S
           KJ/MOL    KJ/MOL    KJ/MOL   J/MOL-K   J/MOL-K   J/MOL-K
 ELEC.      0.000     0.000    -4.442     0.000     0.000    14.897
 TRANS.     3.718     6.197   -44.150    12.472    20.786   168.866
 ROT.       3.718     3.718   -26.949    12.472    12.472   102.858
 VIB.     479.762   479.762   435.354   112.927   112.927   148.945
 TOTAL    487.198   489.677   359.813   137.870   146.184   435.566
 VIB. THERMAL CORRECTION E(T)-E(0) = H(T)-H(0) = 20758.111 J/MOL

              E         H         G         CV        CP        S
         KCAL/MOL  KCAL/MOL  KCAL/MOL CAL/MOL-K CAL/MOL-K CAL/MOL-K
 ELEC.      0.000     0.000    -1.062     0.000     0.000     3.561
 TRANS.     0.889     1.481   -10.552     2.981     4.968    40.360
 ROT.       0.889     0.889    -6.441     2.981     2.981    24.584
 VIB.     114.666   114.666   104.052    26.990    26.990    35.599
 TOTAL    116.443   117.036    85.997    32.952    34.939   104.103
 VIB. THERMAL CORRECTION E(T)-E(0) = H(T)-H(0) =  4961.308 CAL/MOL
 ......END OF NORMAL COORDINATE ANALYSIS......
 STEP CPU TIME =     0.00 TOTAL CPU TIME =        8.7 (    0.1 MIN)
 TOTAL WALL CLOCK TIME=       10.1 SECONDS, CPU UTILIZATION IS  86.01%
 AN INPUT FILE FOR -MOLPLT- HAS BEEN PUNCHED.
               580000  WORDS OF DYNAMIC MEMORY USED
 EXECUTION OF GAMESS TERMINATED NORMALLY Mon Nov 28 23:29:39 2016
 DDI: 263640 bytes (0.3 MB / 0 MWords) used by master data server.

 ----------------------------------------
 CPU timing information for all processes
 ========================================
 0: 8.658 + 0.29 = 8.688
 ----------------------------------------
 ddikick.x: exited gracefully.
unset echo
----- accounting info -----
Files used on the master node compute-3-0 were:
-rw-rw-r-- 1 sarom sarom  134202 Nov 29  2016 .//feamm.dat
-rw-rw-r-- 1 sarom sarom    3379 Nov 29  2016 .//feamm.F05
-rw-rw-r-- 1 sarom sarom 2192240 Nov 29  2016 .//feamm.F10
-rw-rw-r-- 1 sarom sarom  960432 Nov 29  2016 .//feamm.F18
-rw-rw-r-- 1 sarom sarom    3379 Nov 28 17:27 .//feamm.inp
-rw-rw-r-- 1 sarom sarom  174110 Nov 29  2016 .//feamm.log
Mon Nov 28 23:29:42 CST 2016
0.209u 0.256s 0:13.60 3.3%	0+0k 0+136io 0pf+0w
