-catch_rsh /opt/gridengine/default/spool/compute-0-6/active_jobs/23790.1/pe_hostfile
compute-0-6
The primary node assigned by SGE to this run is compute-0-6
Warning: no access to tty (Bad file descriptor).
Thus no job control in this shell.
source /home/sarom/gamess.github.2017-05-31.14.06/install.info
setenv GMS_PATH /home/sarom/gamess.github.2017-05-31.14.06
setenv GMS_BUILD_DIR /home/sarom/gamess.github.2017-05-31.14.06
setenv GMS_TARGET linux64
setenv GMS_FORTRAN gfortran
setenv GMS_GFORTRAN_VERNO 4.4
setenv GMS_MATHLIB mkl-so
setenv GMS_MATHLIB_PATH /share/apps/intel/compilers_and_libraries_2017.1.132/linux/mkl/lib/intel64
setenv GMS_MKL_VERNO 12
setenv GMS_DDI_COMM sockets
setenv GMS_LIBCCHEM false
setenv GMS_EIGEN_PATH
setenv GMS_PHI false
setenv GMS_SHMTYPE sysv
setenv GMS_OPENMP false
unset echo
n3o4-gbt
tests/rohf
----- GAMESS execution script 'rungms' -----
This job is running on host compute-0-6.local
under operating system Linux at Fri Jun 2 02:56:42 CDT 2017
Available scratch disk space (Kbyte units) at beginning of the job is
Filesystem           1K-blocks      Used Available Use% Mounted on
/dev/sda1             16126920   3867324  11440396  26% /
GAMESS temporary binary files will be written to /scratch
GAMESS supplementary output files will be written to /home/sarom/restart
Copying input file n3o4-gbt.inp to your run's scratch directory...
cp tests/rohf/n3o4-gbt.inp /scratch/n3o4-gbt.F05
unset echo
The generated host list is
compute-0-6.local
/home/sarom/gamess.github.2017-05-31.14.06/ddikick.x /home/sarom/gamess.github.2017-05-31.14.06/gamess.00.x n3o4-gbt -ddi 1 1 compute-0-6.local -scr /scratch

 Distributed Data Interface kickoff program.
 Initiating 1 compute processes on 1 nodes to run the following command:
 /home/sarom/gamess.github.2017-05-31.14.06/gamess.00.x n3o4-gbt 

          ******************************************************
          *         GAMESS VERSION = 20 APR 2017 (R1)          *
          *             FROM IOWA STATE UNIVERSITY             *
          * M.W.SCHMIDT, K.K.BALDRIDGE, J.A.BOATZ, S.T.ELBERT, *
          *   M.S.GORDON, J.H.JENSEN, S.KOSEKI, N.MATSUNAGA,   *
          *          K.A.NGUYEN, S.J.SU, T.L.WINDUS,           *
          *       TOGETHER WITH M.DUPUIS, J.A.MONTGOMERY       *
          *         J.COMPUT.CHEM.  14, 1347-1363(1993)        *
          **************** 64 BIT LINUX VERSION ****************

  SINCE 1993, STUDENTS AND POSTDOCS WORKING AT IOWA STATE UNIVERSITY
  AND ALSO IN THEIR VARIOUS JOBS AFTER LEAVING ISU HAVE MADE IMPORTANT
  CONTRIBUTIONS TO THE CODE:
     IVANA ADAMOVIC, CHRISTINE AIKENS, YURI ALEXEEV, POOJA ARORA,
     ANDREY ASADCHEV, ROB BELL, PRADIPTA BANDYOPADHYAY, JONATHAN BENTZ,
     BRETT BODE, KURT BRORSEN, CALEB CARLIN, GALINA CHABAN, WEI CHEN,
     CHEOL HO CHOI, PAUL DAY, ALBERT DEFUSCO, NUWAN DESILVA, TIM DUDLEY,
     DMITRI FEDOROV, GRAHAM FLETCHER, MARK FREITAG, KURT GLAESEMANN,
     DAN KEMP, GRANT MERRILL, NORIYUKI MINEZAWA, JONATHAN MULLIN,
     TAKESHI NAGATA, SEAN NEDD, HEATHER NETZLOFF, BOSILJKA NJEGIC, RYAN OLSON,
     MIKE PAK, SPENCER PRUITT, LUKE ROSKOP, JIM SHOEMAKER, LYUDMILA SLIPCHENKO,
     TONY SMITH, SAROM SOK LEANG, JIE SONG, TETSUYA TAKETSUGU, SIMON WEBB,
     PENG XU, SOOHAENG YOO, FEDERICO ZAHARIEV

  ADDITIONAL CODE HAS BEEN PROVIDED BY COLLABORATORS IN OTHER GROUPS:
     IOWA STATE UNIVERSITY:
          JOE IVANIC, AARON WEST, LAIMUTIS BYTAUTAS, KLAUS RUEDENBERG
     UNIVERSITY OF TOKYO: KIMIHIKO HIRAO, TAKAHITO NAKAJIMA,
          TAKAO TSUNEDA, MUNEAKI KAMIYA, SUSUMU YANAGISAWA,
          KIYOSHI YAGI, MAHITO CHIBA, SEIKEN TOKURA, NAOAKI KAWAKAMI
     UNIVERSITY OF AARHUS: FRANK JENSEN
     UNIVERSITY OF IOWA: VISVALDAS KAIRYS, HUI LI
     NATIONAL INST. OF STANDARDS AND TECHNOLOGY: WALT STEVENS, DAVID GARMER
     UNIVERSITY OF PISA: BENEDETTA MENNUCCI, JACOPO TOMASI
     UNIVERSITY OF MEMPHIS: HENRY KURTZ, PRAKASHAN KORAMBATH
     UNIVERSITY OF ALBERTA: TOBY ZENG, MARIUSZ KLOBUKOWSKI
     UNIVERSITY OF NEW ENGLAND: MARK SPACKMAN
     MIE UNIVERSITY: HIROAKI UMEDA
     NAT. INST. OF ADVANCED INDUSTRIAL SCIENCE AND TECHNOLOGY: KAZUO KITAURA
     MICHIGAN STATE UNIVERSITY:
          KAROL KOWALSKI, MARTA WLOCH, JEFFREY GOUR, JESSE LUTZ,
          WEI LI, PIOTR PIECUCH
     UNIVERSITY OF SILESIA: MONIKA MUSIAL, STANISLAW KUCHARSKI
     FACULTES UNIVERSITAIRES NOTRE-DAME DE LA PAIX:
          OLIVIER QUINET, BENOIT CHAMPAGNE
     UNIVERSITY OF CALIFORNIA - SANTA BARBARA: BERNARD KIRTMAN
     INSTITUTE FOR MOLECULAR SCIENCE:
          KAZUYA ISHIMURA, MICHIO KATOUDA, AND SHIGERU NAGASE
     UNIVERSITY OF NOTRE DAME: ANNA POMOGAEVA, DAN CHIPMAN
     KYUSHU UNIVERSITY:
          HARUYUKI NAKANO,
          FENG LONG GU, JACEK KORCHOWIEC, MARCIN MAKOWSKI, AND YURIKO AOKI,
          HIROTOSHI MORI AND EISAKU MIYOSHI
     PENNSYLVANIA STATE UNIVERSITY:
          TZVETELIN IORDANOV, CHET SWALINA, JONATHAN SKONE,
          SHARON HAMMES-SCHIFFER
     WASEDA UNIVERSITY:
          MASATO KOBAYASHI, TOMOKO AKAMA, TSUGUKI TOUMA,
          TAKESHI YOSHIKAWA, YASUHIRO IKABATA, JUNJI SEINO,
          YUYA NAKAJIMA, HIROMI NAKAI
     NANJING UNIVERSITY: SHUHUA LI
     UNIVERSITY OF NEBRASKA:
          PEIFENG SU, DEJUN SI, NANDUN THELLAMUREGE, YALI WANG, HUI LI
     UNIVERSITY OF ZURICH: ROBERTO PEVERATI, KIM BALDRIDGE
     N. COPERNICUS UNIVERSITY AND JACKSON STATE UNIVERSITY:
          MARIA BARYSZ
     UNIVERSITY OF COPENHAGEN: Jimmy Kromann, CASPER STEINMANN
     TOKYO INSTITUTE OF TECHNOLOGY: HIROYA NAKATA
     NAGOYA UNIVERSITY: YOSHIO NISHIMOTO, STEPHAN IRLE
     MOSCOW STATE UNIVERSITY: VLADIMIR MIRONOV

 EXECUTION OF GAMESS BEGUN Fri Jun  2 02:56:42 2017

            ECHO OF THE FIRST FEW INPUT CARDS -
 INPUT CARD>!    N3O4, i.e. dinitramide anion, only without the charge, so it's an          
 INPUT CARD>!    open shell.  The unpaired electron is in a b symmetry orbital,             
 INPUT CARD>!    making the electronic state 2-B.                                           
 INPUT CARD>!                                                                               
 INPUT CARD>!    A CI-singles is done to test the truth of Brillouin's Thm.                 
 INPUT CARD>!                                                                               
 INPUT CARD>!    ROHF has FINAL E= -462.4145369251 in 17 iterations.                        
 INPUT CARD>!                                                                               
 INPUT CARD>!    default run is GUGA which generates 790 CSFs,                              
 INPUT CARD>!    S.ATE # 1 ENERGY = -462.414536925 which is the ROHF energy, and            
 INPUT CARD>!    a CI coefficient of 1.000000 for CSF #10 which is the ROHF config.         
 INPUT CARD>!                                                                               
 INPUT CARD>!    switching to ORMAS which generates 2274 determinants, and                  
 INPUT CARD>!    S.ATE   1  ENERGY= -462.4281827129  S=  0.50  SZ=  0.50  SPACE SYM=B       
 INPUT CARD>!    the state has a CI coefficient of 0.9930787 for the ROHF determinant.      
 INPUT CARD>!                                                                               
 INPUT CARD>!    the run takes 7 seconds on 2.66 GHz Cloverton (18 Jul 2010)                
 INPUT CARD>!                                                                               
 INPUT CARD>!    The reason for ORMAS not getting a unit CI vector reproducing the          
 INPUT CARD>!    ROHF energy is the "singles" below includes some double excitations.       
 INPUT CARD>!    Namely, some of the ORMAS determinants will promote a beta electron        
 INPUT CARD>!    from filled to alpha space, while also exciting the alpha electron         
 INPUT CARD>!    from the alpha to virtual space.  This double excitation has three         
 INPUT CARD>!    unpaired e-: two alpha and one beta spin, so it obeys both Ms=1/2,         
 INPUT CARD>!    and the ORMAS occupancy rules MINE/MAXE, thus is used.                     
 INPUT CARD>!                                                                               
 INPUT CARD>!    The GUGA program has an option -INTACT- going back to Charlie Bender       
 INPUT CARD>!    and Fritz Schaefer, JCP 55, 4798-4803(1971) that includes the CSFs         
 INPUT CARD>!    if and only if they have a non-vanishing Hamiltonian element with          
 INPUT CARD>!    the ROHF configuration.  That's the very essence of Brillouin's Thm.       
 INPUT CARD>!    If the -INTACT- is turned off, we get 15610 CSFs, and E= -462.470394599    
 INPUT CARD>!    because the GUGA program considers "single" to mean one (1) electron       
 INPUT CARD>!    excited into the external space, regardless how many electrons are         
 INPUT CARD>!    excited from the filled to alpha orbital, so many doubles are added.       
 INPUT CARD>!                                                                               
 INPUT CARD> $contrl scftyp=rohf icharg=0 mult=2 cityp=guga runtyp=energy nzvar=15 $end     
 INPUT CARD> $system mwords=15 $end                                                         
 INPUT CARD>                                                                                
 INPUT CARD>!    the ORMAS CI program reads this input:                                     
 INPUT CARD>!      7 + 98 = 105 total MOs                                                   
 INPUT CARD>!      3*5 + 4*6 = 39 valence e- (the odd e- is in orb #27)                     
 INPUT CARD> $cidet  istsym=2 ncore=7 nact=98 nels=39 $end                                  
 INPUT CARD> $ormas  nspace=3 mstart(1)=8,27,28 mine(1)=37,0,0                              
 INPUT CARD>                                    maxe(1)=38,2,1 $end                         
 INPUT CARD>                                                                                
 INPUT CARD>!    the GUGA CI program reads this input:                                      
 INPUT CARD>!      7 + 19 + 1 + 78 = 105 total MOs                                          
 INPUT CARD>!    a check run will tell how big the MXNINT keyword needs to be,              
 INPUT CARD>!    large orbital spaces always require very big MXNINT values.                
 INPUT CARD> $cidrt  group=c2 istsym=2 iexcit=1 intact=.TRUE. mxnint=2000000                
   15000000 WORDS OF MEMORY AVAILABLE

     BASIS OPTIONS
     -------------
     GBASIS=N31          IGAUSS=       6      POLAR=POPN31  
     NDFUNC=       1     NFFUNC=       0     DIFFSP=       F
     NPFUNC=       0      DIFFS=       F     BASNAM=        


     RUN TITLE
     ---------
 N(NO2) radical...ROHF/6-31G(d) geometry                                         

 THE POINT GROUP OF THE MOLECULE IS CN      
 THE ORDER OF THE PRINCIPAL AXIS IS     2

 ATOM      ATOMIC                      COORDINATES (BOHR)
           CHARGE         X                   Y                   Z
 N           7.0     0.0000000000        0.0000000000       -1.7044647044
 N           7.0    -2.1477086514       -0.2845851251       -0.0971593603
 N           7.0     2.1477086514        0.2845851251       -0.0971593603
 O           8.0    -3.7139478595        1.2534871245       -0.4055390095
 O           8.0     3.7139478595       -1.2534871245       -0.4055390095
 O           8.0    -2.1036994816       -2.0676294251        1.2432665396
 O           8.0     2.1036994816        2.0676294251        1.2432665396

          INTERNUCLEAR DISTANCES (ANGS.)
          ------------------------------

                1 N          2 N          3 N          4 O          5 O     

   1 N       0.0000000    1.4275111 *  1.4275111 *  2.1851783 *  2.1851783 *
   2 N       1.4275111 *  0.0000000    2.2929052 *  1.1730404 *  3.1481771  
   3 N       1.4275111 *  2.2929052 *  0.0000000    3.1481771    1.1730404 *
   4 O       2.1851783 *  1.1730404 *  3.1481771    0.0000000    4.1485119  
   5 O       2.1851783 *  3.1481771    1.1730404 *  4.1485119    0.0000000  
   6 O       2.2067239 *  1.1806614 *  2.6671859 *  2.1391642 *  3.2286928  
   7 O       2.2067239 *  2.6671859 *  1.1806614 *  3.2286928    2.1391642 *

                6 O          7 O     

   1 N       2.2067239 *  2.2067239 *
   2 N       1.1806614 *  2.6671859 *
   3 N       2.6671859 *  1.1806614 *
   4 O       2.1391642 *  3.2286928  
   5 O       3.2286928    2.1391642 *
   6 O       0.0000000    3.1218126  
   7 O       3.1218126    0.0000000  

  * ... LESS THAN  3.000


     ATOMIC BASIS SET
     ----------------
 THE CONTRACTED PRIMITIVE FUNCTIONS HAVE BEEN UNNORMALIZED
 THE CONTRACTED BASIS FUNCTIONS ARE NOW NORMALIZED TO UNITY

  SHELL TYPE  PRIMITIVE        EXPONENT          CONTRACTION COEFFICIENT(S)

 N         

      1   S       1          4173.5114600    0.001834772160
      1   S       2           627.4579110    0.013994627002
      1   S       3           142.9020930    0.068586551812
      1   S       4            40.2343293    0.232240873040
      1   S       5            12.8202129    0.469069948082
      1   S       6             4.3904370    0.360455199063

      2   L       7            11.6263619   -0.114961181702    0.067579743878
      2   L       8             2.7162798   -0.169117478561    0.323907295893
      2   L       9             0.7722184    1.145851947027    0.740895139755

      3   L      10             0.2120315    1.000000000000    1.000000000000

      4   D      11             0.8000000    1.000000000000

 N         

      9   S      12          4173.5114600    0.001834772160
      9   S      13           627.4579110    0.013994627002
      9   S      14           142.9020930    0.068586551812
      9   S      15            40.2343293    0.232240873040
      9   S      16            12.8202129    0.469069948082
      9   S      17             4.3904370    0.360455199063

     10   L      18            11.6263619   -0.114961181702    0.067579743878
     10   L      19             2.7162798   -0.169117478561    0.323907295893
     10   L      20             0.7722184    1.145851947027    0.740895139755

     11   L      21             0.2120315    1.000000000000    1.000000000000

     12   D      22             0.8000000    1.000000000000

 O         

     17   S      23          5484.6716600    0.001831074430
     17   S      24           825.2349460    0.013950172200
     17   S      25           188.0469580    0.068445078098
     17   S      26            52.9645000    0.232714335992
     17   S      27            16.8975704    0.470192897984
     17   S      28             5.7996353    0.358520852987

     18   L      29            15.5396162   -0.110777549525    0.070874268231
     18   L      30             3.5999336   -0.148026262701    0.339752839147
     18   L      31             1.0137618    1.130767015354    0.727158577316

     19   L      32             0.2700058    1.000000000000    1.000000000000

     20   D      33             0.8000000    1.000000000000

 O         

     25   S      34          5484.6716600    0.001831074430
     25   S      35           825.2349460    0.013950172200
     25   S      36           188.0469580    0.068445078098
     25   S      37            52.9645000    0.232714335992
     25   S      38            16.8975704    0.470192897984
     25   S      39             5.7996353    0.358520852987

     26   L      40            15.5396162   -0.110777549525    0.070874268231
     26   L      41             3.5999336   -0.148026262701    0.339752839147
     26   L      42             1.0137618    1.130767015354    0.727158577316

     27   L      43             0.2700058    1.000000000000    1.000000000000

     28   D      44             0.8000000    1.000000000000

 TOTAL NUMBER OF BASIS SET SHELLS             =   28
 NUMBER OF CARTESIAN GAUSSIAN BASIS FUNCTIONS =  105
 NUMBER OF ELECTRONS                          =   53
 CHARGE OF MOLECULE                           =    0
 SPIN MULTIPLICITY                            =    2
 NUMBER OF OCCUPIED ORBITALS (ALPHA)          =   27
 NUMBER OF OCCUPIED ORBITALS (BETA )          =   26
 TOTAL NUMBER OF ATOMS                        =    7
 THE NUCLEAR REPULSION ENERGY IS      315.0441603715

     $CONTRL OPTIONS
     ---------------
 SCFTYP=ROHF         RUNTYP=ENERGY       EXETYP=RUN     
 MPLEVL=       0     CITYP =GUGA         CCTYP =NONE         VBTYP =NONE    
 DFTTYP=NONE         TDDFT =NONE    
 MULT  =       2     ICHARG=       0     NZVAR =      15     COORD =UNIQUE  
 PP    =NONE         RELWFN=NONE         LOCAL =NONE         NUMGRD=       F
 ISPHER=      -1     NOSYM =       0     MAXIT =      30     UNITS =ANGS    
 PLTORB=       F     MOLPLT=       F     AIMPAC=       F     FRIEND=        
 NPRINT=       7     IREST =       0     GEOM  =INPUT   
 NORMF =       0     NORMP =       0     ITOL  =      20     ICUT  =       9
 INTTYP=BEST         GRDTYP=BEST         QMTTOL= 1.0E-06

     $SYSTEM OPTIONS
     ---------------
  REPLICATED MEMORY=    15000000 WORDS (ON EVERY NODE).
 DISTRIBUTED MEMDDI=           0 MILLION WORDS IN AGGREGATE,
 MEMDDI DISTRIBUTED OVER   1 PROCESSORS IS           0 WORDS/PROCESSOR.
 TOTAL MEMORY REQUESTED ON EACH PROCESSOR=    15000000 WORDS.
 TIMLIM=      525600.00 MINUTES, OR     365.0 DAYS.
 PARALL= F  BALTYP=  DLB     KDIAG=    0  COREFL= F
 MXSEQ2=     300 MXSEQ3=     150  mem10=         0

          ----------------
          PROPERTIES INPUT
          ----------------

     MOMENTS            FIELD           POTENTIAL          DENSITY
 IEMOM =       1   IEFLD =       0   IEPOT =       0   IEDEN =       0
 WHERE =COMASS     WHERE =NUCLEI     WHERE =NUCLEI     WHERE =NUCLEI  
 OUTPUT=BOTH       OUTPUT=BOTH       OUTPUT=BOTH       OUTPUT=BOTH    
 IEMINT=       0   IEFINT=       0                     IEDINT=       0
                                                       MORB  =       0
          EXTRAPOLATION IN EFFECT
          SOSCF IN EFFECT
 ORBITAL PRINTING OPTION: NPREO=     1   105     2     1

     -------------------------------
     INTEGRAL TRANSFORMATION OPTIONS
     -------------------------------
     NWORD  =            0
     CUTOFF = 1.0E-09     MPTRAN =       0
     DIRTRF =       F     AOINTS =DUP     

          ----------------------
          INTEGRAL INPUT OPTIONS
          ----------------------
 NOPK  =       1 NORDER=       0 SCHWRZ=       T


 -----------------------------------------------
  STATISTICS ON AUTOMATIC COORDINATE GENERATION 
 -----------------------------------------------
  NUMBER OF USER SPECIFIED BONDS                             0
  NUMBER OF BONDS                                            6
  NUMBER OF ANGLES                                           7
  NUMBER OF TORSIONS                                         4
  NUMBER OF EXTRA COORD.                                     0
  NUMBER OF EXTRA COORD. FOR CONSTRAINTS                     0
  NUMBER OF CONSTRAINED COORD.                               0

  TOTAL NUMBER OF PRIMITIVES                                17
 -----------------------------------------------

   --- ENCODED Z MATRIX ---
 COORD  TYPE   I   J   K   L   M   N
    1      1    1   2
    2      1    1   3
    3      1    2   4
    4      1    2   6
    5      1    3   7
    6      1    3   5
    7      2    1   2   4
    8      2    1   2   6
    9      2    1   3   7
   10      2    1   3   5
   11      2    2   1   3
   12      2    4   2   6
   13      2    5   3   7
   14      3    2   1   3   7
   15      3    2   1   3   5
   16      3    3   1   2   6
   17      3    3   1   2   4

          INDEP./SYM. INTERNAL COORDINATES
          --------------------------------
 CRD  1=  -0.2141 (  1) -0.2141 (  2) -0.1730 (  8) -0.1730 (  9) -0.8294 ( 11)
           0.1060 ( 12)  0.1060 ( 13)  0.1591 ( 14) -0.1857 ( 15)  0.1591 ( 16)
          -0.1857 ( 17)
 CRD  2=   0.2475 (  7) -0.2108 (  8) -0.2108 (  9)  0.2475 ( 10) -0.5182 ( 14)
          -0.3389 ( 15) -0.5182 ( 16) -0.3389 ( 17)
 CRD  3=   0.3502 (  7) -0.4059 (  8)  0.4059 (  9) -0.3502 ( 10) -0.1717 ( 14)
          -0.4061 ( 15)  0.1717 ( 16)  0.4061 ( 17)
 CRD  4=   0.2889 (  1)  0.2889 (  2)  0.2181 (  3) -0.1515 (  4) -0.1515 (  5)
           0.2181 (  6)  0.4102 (  7) -0.2287 (  8) -0.2287 (  9)  0.4102 ( 10)
          -0.1740 ( 12) -0.1740 ( 13)  0.2748 ( 14)  0.1396 ( 15)  0.2748 ( 16)
           0.1396 ( 17)
 CRD  5=   0.2977 (  1)  0.2977 (  2) -0.2060 (  3) -0.2060 (  6)  0.3542 (  8)
           0.3542 (  9) -0.1867 ( 11) -0.3351 ( 12) -0.3351 ( 13)  0.1219 ( 14)
          -0.3091 ( 15)  0.1219 ( 16) -0.3091 ( 17)
 CRD  6=  -0.2893 (  1)  0.2893 (  2)  0.2308 (  3) -0.2308 (  6) -0.1304 (  7)
          -0.2546 (  8)  0.2546 (  9)  0.1304 ( 10)  0.4069 ( 12) -0.4069 ( 13)
          -0.1135 ( 14)  0.3098 ( 15)  0.1135 ( 16) -0.3098 ( 17)
 CRD  7=  -0.1153 (  1)  0.1153 (  2) -0.1799 (  3) -0.4363 (  4)  0.4363 (  5)
           0.1799 (  6)  0.2421 (  7) -0.2421 ( 10) -0.1749 ( 12)  0.1749 ( 13)
          -0.1693 ( 14)  0.3804 ( 15)  0.1693 ( 16) -0.3804 ( 17)
 CRD  8=  -0.2007 (  1) -0.2007 (  2) -0.3874 (  3) -0.4654 (  4) -0.4654 (  5)
          -0.3874 (  6)  0.1289 (  7)  0.1289 ( 10) -0.1818 ( 12) -0.1818 ( 13)
          -0.1036 ( 14)  0.1764 ( 15) -0.1036 ( 16)  0.1764 ( 17)
 CRD  9=  -0.3499 (  1)  0.3499 (  2) -0.4268 (  3) -0.1883 (  4)  0.1883 (  5)
           0.4268 (  6) -0.2392 (  7)  0.2392 ( 10)  0.1849 ( 12) -0.1849 ( 13)
           0.1226 ( 14) -0.2286 ( 15) -0.1226 ( 16)  0.2286 ( 17)
 CRD 10=  -0.1217 (  1) -0.1217 (  2) -0.2182 (  4) -0.2182 (  5) -0.1003 (  8)
          -0.1003 (  9)  0.4731 ( 11)  0.1613 ( 12)  0.1613 ( 13)  0.3007 ( 14)
          -0.4438 ( 15)  0.3007 ( 16) -0.4438 ( 17)
 CRD 11=  -0.2772 (  3)  0.3125 (  4) -0.3125 (  5)  0.2772 (  6) -0.5607 ( 14)
           0.5607 ( 16)
 CRD 12=  -0.3948 (  1) -0.3948 (  2)  0.4202 (  3)  0.4202 (  6)  0.2360 (  8)
           0.2360 (  9) -0.3112 ( 12) -0.3112 ( 13)
 CRD 13=   0.5193 (  1) -0.5193 (  2) -0.1456 (  3) -0.2308 (  4)  0.2308 (  5)
           0.1456 (  6) -0.1533 (  7) -0.1583 (  8)  0.1583 (  9)  0.1533 ( 10)
           0.3162 ( 12) -0.3162 ( 13)
 CRD 14=  -0.2524 (  1) -0.2524 (  2) -0.2818 (  3)  0.4552 (  4)  0.4552 (  5)
          -0.2818 (  6)  0.2716 (  7) -0.1204 (  8) -0.1204 (  9)  0.2716 ( 10)
           0.2249 ( 11) -0.1465 ( 12) -0.1465 ( 13)  0.1170 ( 14)  0.1170 ( 16)
 CRD 15=   0.3614 (  3) -0.3323 (  4)  0.3323 (  5) -0.3614 (  6) -0.2304 (  7)
           0.2602 (  8) -0.2602 (  9)  0.2304 ( 10) -0.3032 ( 14) -0.2037 ( 15)
           0.3032 ( 16)  0.2037 ( 17)

 THE DETERMINANT OF THE G MATRIX IS 10**(   -19)

 THE DETERMINANT OF THE G MATRIX IS 10**(   -19)
 * * * WARNING * * *
 YOUR B MATRIX HAS A SMALL DETERMINANT.
 THIS SUGGESTS YOU MAY HAVE BADLY CHOSEN COORDINATES.


                     --------------------
                     INTERNAL COORDINATES
                     --------------------

                 - - ATOMS - -         COORDINATE      COORDINATE
 NO.   TYPE    I  J  K  L  M  N        (BOHR,RAD)       (ANG,DEG)
 ----------------------------------------------------------------
   1 STRETCH   1  2                     2.6976048       1.4275111
   2 STRETCH   1  3                     2.6976048       1.4275111
   3 STRETCH   2  4                     2.2167250       1.1730404
   4 STRETCH   2  6                     2.2311265       1.1806614
   5 STRETCH   3  7                     2.2311265       1.1806614
   6 STRETCH   3  5                     2.2167250       1.1730404
   7 BEND      1  2  4                  1.9893513     113.9814321
   8 BEND      1  2  6                  2.0114910     115.2499423
   9 BEND      1  3  7                  2.0114910     115.2499423
  10 BEND      1  3  5                  1.9893513     113.9814321
  11 BEND      2  1  3                  1.8650030     106.8568035
  12 BEND      4  2  6                  2.2810375     130.6938225
  13 BEND      5  3  7                  2.2810375     130.6938225
  14 TORSION   2  1  3  7              -1.0733380     -61.4977349
  15 TORSION   2  1  3  5               2.1171918     121.3061535
  16 TORSION   3  1  2  6              -1.0733380     -61.4977349
  17 TORSION   3  1  2  4               2.1171918     121.3061535

     ------------------------------------------
     THE POINT GROUP IS CN , NAXIS= 2, ORDER= 2
     ------------------------------------------

     DIMENSIONS OF THE SYMMETRY SUBSPACES ARE
 A   =   54     B   =   51

 ..... DONE SETTING UP THE RUN .....
 STEP CPU TIME =     0.02 TOTAL CPU TIME =        0.0 (    0.0 MIN)
 TOTAL WALL CLOCK TIME=        0.0 SECONDS, CPU UTILIZATION IS 100.00%

          ********************
          1 ELECTRON INTEGRALS
          ********************
 ...... END OF ONE-ELECTRON INTEGRALS ......
 STEP CPU TIME =     0.00 TOTAL CPU TIME =        0.0 (    0.0 MIN)
 TOTAL WALL CLOCK TIME=        0.0 SECONDS, CPU UTILIZATION IS 100.00%

          -------------
          GUESS OPTIONS
          -------------
          GUESS =HUCKEL            NORB  =       0          NORDER=       0
          MIX   =       F          PRTMO =       F          PUNMO =       F
          TOLZ  = 1.0E-08          TOLE  = 1.0E-05
          SYMDEN=       F          PURIFY=       F

 INITIAL GUESS ORBITALS GENERATED BY HUCKEL   ROUTINE.
 HUCKEL GUESS REQUIRES     90846 WORDS.

 SYMMETRIES FOR INITIAL GUESS ORBITALS FOLLOW.  ALPHA SET(S).
    27 ORBITALS ARE OCCUPIED (    7 CORE ORBITALS).
     8=A        9=B       10=B       11=A       12=A       13=B       14=A   
    15=B       16=A       17=B       18=B       19=A       20=A       21=A   
    22=B       23=B       24=A       25=A       26=B       27=B       28=A   
    29=B       30=B       31=A       32=A       33=A       34=A       35=A   
    36=A       37=A   

 SYMMETRIES FOR INITIAL GUESS ORBITALS FOLLOW.   BETA SET(S).
    26 ORBITALS ARE OCCUPIED (    7 CORE ORBITALS).
     8=A        9=B       10=B       11=A       12=A       13=B       14=A   
    15=B       16=A       17=B       18=B       19=A       20=A       21=A   
    22=B       23=B       24=A       25=A       26=B       27=B       28=A   
    29=B       30=B       31=A       32=A       33=A       34=A       35=A   
    36=A   
 ...... END OF INITIAL ORBITAL SELECTION ......
 STEP CPU TIME =     0.02 TOTAL CPU TIME =        0.0 (    0.0 MIN)
 TOTAL WALL CLOCK TIME=        0.0 SECONDS, CPU UTILIZATION IS  80.00%

                    ----------------------
                    AO INTEGRAL TECHNOLOGY
                    ----------------------
     S,P,L SHELL ROTATED AXIS INTEGRALS, REPROGRAMMED BY
        KAZUYA ISHIMURA (IMS) AND JOSE SIERRA (SYNSTAR).
     S,P,D,L SHELL ROTATED AXIS INTEGRALS PROGRAMMED BY
        KAZUYA ISHIMURA (INSTITUTE FOR MOLECULAR SCIENCE).
     S,P,D,F,G SHELL TO TOTAL QUARTET ANGULAR MOMENTUM SUM 5,
        ERIC PROGRAM BY GRAHAM FLETCHER (ELORET AND NASA ADVANCED
        SUPERCOMPUTING DIVISION, AMES RESEARCH CENTER).
     S,P,D,F,G,L SHELL GENERAL RYS QUADRATURE PROGRAMMED BY
        MICHEL DUPUIS (PACIFIC NORTHWEST NATIONAL LABORATORY).

          --------------------
          2 ELECTRON INTEGRALS
          --------------------

 THE -PK- OPTION IS OFF, THE INTEGRALS ARE NOT IN SUPERMATRIX FORM.
 STORING   15000 INTEGRALS/RECORD ON DISK, USING 12 BYTES/INTEGRAL.
 TWO ELECTRON INTEGRAL EVALUATION REQUIRES   90802 WORDS OF MEMORY.
 SCHWARZ INEQUALITY OVERHEAD:      5530 INTEGRALS, T=        0.00
 II,JST,KST,LST =  1  1  1  1 NREC =         1 INTLOC =    1
 II,JST,KST,LST =  2  1  1  1 NREC =         1 INTLOC =    2
 II,JST,KST,LST =  3  1  1  1 NREC =         1 INTLOC =   34
 II,JST,KST,LST =  4  1  1  1 NREC =         1 INTLOC =  214
 II,JST,KST,LST =  5  1  1  1 NREC =         1 INTLOC = 1189
 II,JST,KST,LST =  6  1  1  1 NREC =         1 INTLOC = 1189
 II,JST,KST,LST =  7  1  1  1 NREC =         1 INTLOC = 1189
 II,JST,KST,LST =  8  1  1  1 NREC =         1 INTLOC = 1189
 II,JST,KST,LST =  9  1  1  1 NREC =         1 INTLOC = 1189
 II,JST,KST,LST = 10  1  1  1 NREC =         1 INTLOC = 3331
 II,JST,KST,LST = 11  1  1  1 NREC =         2 INTLOC = 9614
 II,JST,KST,LST = 12  1  1  1 NREC =         5 INTLOC =14448
 II,JST,KST,LST = 13  1  1  1 NREC =        17 INTLOC = 1232
 II,JST,KST,LST = 14  1  1  1 NREC =        17 INTLOC = 1232
 II,JST,KST,LST = 15  1  1  1 NREC =        17 INTLOC = 1232
 II,JST,KST,LST = 16  1  1  1 NREC =        17 INTLOC = 1232
 II,JST,KST,LST = 17  1  1  1 NREC =        17 INTLOC = 1232
 II,JST,KST,LST = 18  1  1  1 NREC =        19 INTLOC = 5788
 II,JST,KST,LST = 19  1  1  1 NREC =        34 INTLOC = 4162
 II,JST,KST,LST = 20  1  1  1 NREC =        60 INTLOC =   20
 II,JST,KST,LST = 21  1  1  1 NREC =       111 INTLOC = 3756
 II,JST,KST,LST = 22  1  1  1 NREC =       111 INTLOC = 3756
 II,JST,KST,LST = 23  1  1  1 NREC =       111 INTLOC = 3756
 II,JST,KST,LST = 24  1  1  1 NREC =       111 INTLOC = 3756
 II,JST,KST,LST = 25  1  1  1 NREC =       111 INTLOC = 3756
 II,JST,KST,LST = 26  1  1  1 NREC =       120 INTLOC = 1989
 II,JST,KST,LST = 27  1  1  1 NREC =       175 INTLOC = 3267
 II,JST,KST,LST = 28  1  1  1 NREC =       261 INTLOC =11167
 SCHWARZ INEQUALITY TEST SKIPPED        9753 INTEGRAL BLOCKS.
 TOTAL NUMBER OF NONZERO TWO-ELECTRON INTEGRALS =             6384229
        426 INTEGRAL RECORDS WERE STORED ON DISK FILE  8.
  ...... END OF TWO-ELECTRON INTEGRALS .....
 STEP CPU TIME =     0.31 TOTAL CPU TIME =        0.3 (    0.0 MIN)
 TOTAL WALL CLOCK TIME=        0.4 SECONDS, CPU UTILIZATION IS  97.22%

          ---------------------------
                 ROHF SCF CALCULATION
          ---------------------------

     NUCLEAR ENERGY =       315.0441603715
     MAXIT = 30     NPUNCH=  2     MULT=  2
     EXTRAP=T  DAMP=F  SHIFT=F  RSTRCT=F  DIIS=F  SOSCF=T
     DENSITY MATRIX CONV=  1.00E-06
     ROHF CANONICALIZATION PARAMETERS
             C-C     O-O     V-V
     ALPHA -0.5000  0.5000  1.5000
     BETA   1.5000  0.5000 -0.5000
     SOSCF WILL OPTIMIZE    2132 ORBITAL ROTATION ANGLES. SOGTOL= 2.500E-01
     MEMORY REQUIRED FOR UHF/ROHF ITERS=    143488 WORDS.

 ITER EX      TOTAL ENERGY        E CHANGE  DENSITY CHANGE    ORB. GRAD 
   1  0     -460.2510092255  -460.2510092255   0.549151457   0.000000000
   2  1     -461.6984866863    -1.4474774607   0.418231930   0.264320005
          ---------------START SECOND ORDER SCF---------------
   3  2     -461.9888803796    -0.2903936934   0.260778912   0.186568831
   4  3     -462.1960371255    -0.2071567458   0.106224237   0.137311754
   5  4     -462.4113943497    -0.2153572243   0.035106160   0.014832719
   6  5     -462.4133119892    -0.0019176395   0.015577190   0.010407378
   7  6     -462.4144159503    -0.0011039611   0.003576168   0.001870969
   8  7     -462.4144951703    -0.0000792200   0.002363142   0.000656141
   9  8     -462.4145290689    -0.0000338986   0.000768106   0.000599402
  10  9     -462.4145348244    -0.0000057554   0.000604851   0.000207478
  11 10     -462.4145366924    -0.0000018681   0.000161122   0.000065873
  12 11     -462.4145369037    -0.0000002112   0.000040371   0.000019064
  13 12     -462.4145369223    -0.0000000186   0.000015683   0.000007789
  14 13     -462.4145369246    -0.0000000023   0.000005546   0.000003351
  15 14     -462.4145369249    -0.0000000003   0.000003620   0.000002172
  16 15     -462.4145369251    -0.0000000001   0.000001965   0.000000910
  17 16     -462.4145369251    -0.0000000000   0.000000797   0.000000422

          -----------------
          DENSITY CONVERGED
          -----------------
     TIME TO FORM FOCK OPERATORS=       1.6 SECONDS (       0.1 SEC/ITER)
     TIME TO SOLVE SCF EQUATIONS=       0.1 SECONDS (       0.0 SEC/ITER)

 FINAL ROHF ENERGY IS     -462.4145369251 AFTER  17 ITERATIONS

          --------------------
          SPIN SZ   =    0.500
          S-SQUARED =    0.750
          --------------------

          ------------
          EIGENVECTORS
          ------------

                      1          2          3          4          5
                  -20.6850   -20.6850   -20.6788   -20.6788   -15.9585
                     B          A          B          A          B   
    1  N  1  S   -0.000000  -0.000001   0.000000  -0.000004  -0.000000
    2  N  1  S   -0.000000  -0.000063   0.000000  -0.000062  -0.000000
    3  N  1  X    0.000088  -0.000000   0.000047   0.000000  -0.000313
    4  N  1  Y   -0.000013  -0.000000   0.000037   0.000000  -0.000036
    5  N  1  Z   -0.000000  -0.000041   0.000000  -0.000077  -0.000000
    6  N  1  S   -0.000000   0.000014   0.000000   0.000047  -0.000000
    7  N  1  X    0.000257  -0.000000   0.000290   0.000000  -0.000866
    8  N  1  Y    0.000069  -0.000000   0.000034   0.000000  -0.000361
    9  N  1  Z   -0.000000   0.000086   0.000000   0.000067  -0.000000
   10  N  1 XX   -0.000000  -0.000078   0.000000   0.000044  -0.000000
   11  N  1 YY   -0.000000  -0.000009   0.000000  -0.000042  -0.000000
   12  N  1 ZZ   -0.000000   0.000035   0.000000  -0.000058  -0.000000
   13  N  1 XY   -0.000000   0.000039   0.000000  -0.000086  -0.000000
   14  N  1 XZ    0.000025  -0.000000   0.000041   0.000000  -0.000026
   15  N  1 YZ   -0.000053  -0.000000   0.000042   0.000000  -0.000018
   16  N  2  S    0.000013   0.000041   0.000014   0.000040   0.703722
   17  N  2  S    0.000168   0.000261   0.000177   0.000283   0.017228
   18  N  2  X    0.000025   0.000053   0.000021   0.000034   0.000049
   19  N  2  Y   -0.000013  -0.000005  -0.000006   0.000001   0.000002
   20  N  2  Z   -0.000025  -0.000021  -0.000026  -0.000014  -0.000020
   21  N  2  S   -0.000035  -0.000493  -0.000080  -0.000474  -0.001525
   22  N  2  X    0.000579   0.000187   0.000396   0.000138  -0.001218
   23  N  2  Y   -0.000167  -0.000113   0.000149  -0.000031   0.000488
   24  N  2  Z   -0.000104  -0.000092  -0.000270  -0.000117   0.000238
   25  N  2 XX   -0.000396  -0.000350  -0.000010   0.000020  -0.002199
   26  N  2 YY   -0.000500  -0.000430  -0.000606  -0.000538  -0.001926
   27  N  2 ZZ   -0.000048   0.000031  -0.000288  -0.000233  -0.002273
   28  N  2 XY    0.000518   0.000491   0.000101   0.000077  -0.000277
   29  N  2 XZ   -0.000137  -0.000134  -0.000068  -0.000059   0.000073
   30  N  2 YZ    0.000142   0.000150   0.000469   0.000478  -0.000242
   31  N  3  S   -0.000013   0.000041  -0.000014   0.000040  -0.703722
   32  N  3  S   -0.000168   0.000261  -0.000177   0.000283  -0.017228
   33  N  3  X    0.000025  -0.000053   0.000021  -0.000034   0.000049
   34  N  3  Y   -0.000013   0.000005  -0.000006  -0.000001   0.000002
   35  N  3  Z    0.000025  -0.000021   0.000026  -0.000014   0.000020
   36  N  3  S    0.000035  -0.000493   0.000080  -0.000474   0.001525
   37  N  3  X    0.000579  -0.000187   0.000396  -0.000138  -0.001218
   38  N  3  Y   -0.000167   0.000113   0.000149   0.000031   0.000488
   39  N  3  Z    0.000104  -0.000092   0.000270  -0.000117  -0.000238
   40  N  3 XX    0.000396  -0.000350   0.000010   0.000020   0.002199
   41  N  3 YY    0.000500  -0.000430   0.000606  -0.000538   0.001926
   42  N  3 ZZ    0.000048   0.000031   0.000288  -0.000233   0.002273
   43  N  3 XY   -0.000518   0.000491  -0.000101   0.000077   0.000277
   44  N  3 XZ   -0.000137   0.000134  -0.000068   0.000059   0.000073
   45  N  3 YZ    0.000142  -0.000150   0.000469  -0.000478  -0.000242
   46  O  4  S    0.703379   0.703384   0.002802   0.003157  -0.000174
   47  O  4  S    0.014967   0.014989   0.000017   0.000029   0.000159
   48  O  4  X    0.001082   0.001075   0.000072   0.000074   0.000033
   49  O  4  Y   -0.001041  -0.001037  -0.000014  -0.000008  -0.000081
   50  O  4  Z    0.000200   0.000197  -0.000029  -0.000031   0.000026
   51  O  4  S    0.003036   0.002844   0.000412   0.000403  -0.000601
   52  O  4  X   -0.000055  -0.000067   0.000199   0.000231  -0.000153
   53  O  4  Y   -0.000032   0.000056  -0.000193  -0.000160   0.000311
   54  O  4  Z    0.000013   0.000009   0.000014  -0.000005  -0.000074
   55  O  4 XX   -0.002571  -0.002548   0.000122   0.000148  -0.000071
   56  O  4 YY   -0.002604  -0.002607  -0.000069  -0.000068  -0.000035
   57  O  4 ZZ   -0.002779  -0.002756  -0.000105  -0.000082   0.000057
   58  O  4 XY   -0.000227  -0.000208  -0.000125  -0.000109   0.000136
   59  O  4 XZ   -0.000034  -0.000032  -0.000062  -0.000066   0.000031
   60  O  4 YZ   -0.000110  -0.000103   0.000035   0.000046   0.000043
   61  O  5  S   -0.703379   0.703384  -0.002802   0.003157   0.000174
   62  O  5  S   -0.014967   0.014989  -0.000017   0.000029  -0.000159
   63  O  5  X    0.001082  -0.001075   0.000072  -0.000074   0.000033
   64  O  5  Y   -0.001041   0.001037  -0.000014   0.000008  -0.000081
   65  O  5  Z   -0.000200   0.000197   0.000029  -0.000031  -0.000026
   66  O  5  S   -0.003036   0.002844  -0.000412   0.000403   0.000601
   67  O  5  X   -0.000055   0.000067   0.000199  -0.000231  -0.000153
   68  O  5  Y   -0.000032  -0.000056  -0.000193   0.000160   0.000311
   69  O  5  Z   -0.000013   0.000009  -0.000014  -0.000005   0.000074
   70  O  5 XX    0.002571  -0.002548  -0.000122   0.000148   0.000071
   71  O  5 YY    0.002604  -0.002607   0.000069  -0.000068   0.000035
   72  O  5 ZZ    0.002779  -0.002756   0.000105  -0.000082  -0.000057
   73  O  5 XY    0.000227  -0.000208   0.000125  -0.000109  -0.000136
   74  O  5 XZ   -0.000034   0.000032  -0.000062   0.000066   0.000031
   75  O  5 YZ   -0.000110   0.000103   0.000035  -0.000046   0.000043
   76  O  6  S   -0.002813  -0.003156   0.703374   0.703388  -0.000181
   77  O  6  S   -0.000088  -0.000090   0.014965   0.015014   0.000059
   78  O  6  X    0.000041   0.000054  -0.000003   0.000011  -0.000001
   79  O  6  Y    0.000017   0.000017   0.001176   0.001181   0.000106
   80  O  6  Z   -0.000044  -0.000045  -0.000897  -0.000901  -0.000045
   81  O  6  S    0.000190   0.000240   0.002904   0.002640   0.000558
   82  O  6  X   -0.000001   0.000040  -0.000044  -0.000036   0.000146
   83  O  6  Y    0.000157   0.000183  -0.000051  -0.000117   0.000023
   84  O  6  Z   -0.000122  -0.000136   0.000067   0.000125  -0.000147
   85  O  6 XX   -0.000036  -0.000012  -0.002729  -0.002676  -0.000018
   86  O  6 YY    0.000009   0.000028  -0.002588  -0.002545  -0.000067
   87  O  6 ZZ    0.000050   0.000077  -0.002688  -0.002644  -0.000018
   88  O  6 XY    0.000087   0.000102  -0.000036  -0.000031   0.000021
   89  O  6 XZ   -0.000091  -0.000099  -0.000055  -0.000056   0.000027
   90  O  6 YZ   -0.000136  -0.000120  -0.000235  -0.000210   0.000125
   91  O  7  S    0.002813  -0.003156  -0.703374   0.703388   0.000181
   92  O  7  S    0.000088  -0.000090  -0.014965   0.015014  -0.000059
   93  O  7  X    0.000041  -0.000054  -0.000003  -0.000011  -0.000001
   94  O  7  Y    0.000017  -0.000017   0.001176  -0.001181   0.000106
   95  O  7  Z    0.000044  -0.000045   0.000897  -0.000901   0.000045
   96  O  7  S   -0.000190   0.000240  -0.002904   0.002640  -0.000558
   97  O  7  X   -0.000001  -0.000040  -0.000044   0.000036   0.000146
   98  O  7  Y    0.000157  -0.000183  -0.000051   0.000117   0.000023
   99  O  7  Z    0.000122  -0.000136  -0.000067   0.000125   0.000147
  100  O  7 XX    0.000036  -0.000012   0.002729  -0.002676   0.000018
  101  O  7 YY   -0.000009   0.000028   0.002588  -0.002545   0.000067
  102  O  7 ZZ   -0.000050   0.000077   0.002688  -0.002644   0.000018
  103  O  7 XY   -0.000087   0.000102   0.000036  -0.000031  -0.000021
  104  O  7 XZ   -0.000091   0.000099  -0.000055   0.000056   0.000027
  105  O  7 YZ   -0.000136   0.000120  -0.000235   0.000210   0.000125

                      6          7          8          9         10
                  -15.9584   -15.7479    -1.7409    -1.7162    -1.5145
                     A          A          A          B          B   
    1  N  1  S    0.001622   0.995716  -0.039271  -0.000000  -0.000000
    2  N  1  S    0.000251   0.023196   0.093116  -0.000000  -0.000000
    3  N  1  X   -0.000000  -0.000000   0.000000  -0.055022   0.009840
    4  N  1  Y   -0.000000  -0.000000   0.000000  -0.007327  -0.017071
    5  N  1  Z    0.000237   0.002574   0.052604  -0.000000  -0.000000
    6  N  1  S    0.001075  -0.004339  -0.010151  -0.000000  -0.000000
    7  N  1  X   -0.000000  -0.000000   0.000000   0.017378   0.004330
    8  N  1  Y   -0.000000  -0.000000   0.000000   0.002684  -0.006064
    9  N  1  Z    0.000252  -0.001993   0.000827  -0.000000  -0.000000
   10  N  1 XX   -0.000120  -0.002968   0.012776  -0.000000  -0.000000
   11  N  1 YY   -0.000106  -0.003058  -0.002569  -0.000000  -0.000000
   12  N  1 ZZ   -0.000107  -0.002868   0.010775  -0.000000  -0.000000
   13  N  1 XY    0.000008   0.000042   0.002379  -0.000000  -0.000000
   14  N  1 XZ   -0.000000  -0.000000   0.000000  -0.012402  -0.000140
   15  N  1 YZ   -0.000000  -0.000000   0.000000  -0.000939  -0.005557
   16  N  2  S    0.703662  -0.001260  -0.115940  -0.115908  -0.002834
   17  N  2  S    0.016990   0.000177   0.263415   0.257201   0.006233
   18  N  2  X   -0.000051   0.000093  -0.032711  -0.058374   0.090914
   19  N  2  Y   -0.000002   0.000043  -0.003681  -0.003063  -0.198404
   20  N  2  Z   -0.000014  -0.000041   0.025052   0.030100   0.099702
   21  N  2  S   -0.000710  -0.000212   0.102052   0.118610   0.002082
   22  N  2  X   -0.000198   0.001041   0.028645   0.030364   0.000624
   23  N  2  Y   -0.000187   0.000106  -0.005721   0.003269   0.000317
   24  N  2  Z    0.000317  -0.000439  -0.012541  -0.017762   0.000069
   25  N  2 XX   -0.002329  -0.000305   0.002962  -0.001954  -0.012469
   26  N  2 YY   -0.002100  -0.000043   0.010999   0.009628   0.004175
   27  N  2 ZZ   -0.002397  -0.000208  -0.002806  -0.004813   0.007862
   28  N  2 XY   -0.000219   0.000030  -0.011200  -0.012558   0.012218
   29  N  2 XZ    0.000063   0.000281   0.000046   0.001905  -0.002290
   30  N  2 YZ   -0.000278   0.000071  -0.013891  -0.013960  -0.011255
   31  N  3  S    0.703662  -0.001260  -0.115940   0.115908   0.002834
   32  N  3  S    0.016990   0.000177   0.263415  -0.257201  -0.006233
   33  N  3  X    0.000051  -0.000093   0.032711  -0.058374   0.090914
   34  N  3  Y    0.000002  -0.000043   0.003681  -0.003063  -0.198404
   35  N  3  Z   -0.000014  -0.000041   0.025052  -0.030100  -0.099702
   36  N  3  S   -0.000710  -0.000212   0.102052  -0.118610  -0.002082
   37  N  3  X    0.000198  -0.001041  -0.028645   0.030364   0.000624
   38  N  3  Y    0.000187  -0.000106   0.005721   0.003269   0.000317
   39  N  3  Z    0.000317  -0.000439  -0.012541   0.017762  -0.000069
   40  N  3 XX   -0.002329  -0.000305   0.002962   0.001954   0.012469
   41  N  3 YY   -0.002100  -0.000043   0.010999  -0.009628  -0.004175
   42  N  3 ZZ   -0.002397  -0.000208  -0.002806   0.004813  -0.007862
   43  N  3 XY   -0.000219   0.000030  -0.011200   0.012558  -0.012218
   44  N  3 XZ   -0.000063  -0.000281  -0.000046   0.001905  -0.002290
   45  N  3 YZ    0.000278  -0.000071   0.013891  -0.013960  -0.011255
   46  O  4  S   -0.000195  -0.000059  -0.073411  -0.080431   0.096278
   47  O  4  S    0.000073  -0.000258   0.162729   0.180735  -0.214602
   48  O  4  X    0.000069   0.000011   0.057834   0.060382  -0.059754
   49  O  4  Y   -0.000090  -0.000026  -0.058317  -0.064020   0.044853
   50  O  4  Z    0.000035  -0.000067   0.012311   0.014662  -0.001526
   51  O  4  S    0.000286   0.001402   0.128007   0.131982  -0.199975
   52  O  4  X    0.000005   0.000467   0.022679   0.019314  -0.033183
   53  O  4  Y    0.000009  -0.000465  -0.027029  -0.028887   0.023883
   54  O  4  Z   -0.000042   0.000082   0.008171   0.009001  -0.000623
   55  O  4 XX   -0.000126  -0.000105   0.005045   0.005250  -0.008270
   56  O  4 YY   -0.000043  -0.000084   0.007318   0.009565  -0.002145
   57  O  4 ZZ    0.000003  -0.000203  -0.001988  -0.001227   0.003125
   58  O  4 XY    0.000080  -0.000089  -0.010367  -0.011312   0.008899
   59  O  4 XZ    0.000042   0.000001   0.003512   0.003686   0.000303
   60  O  4 YZ    0.000025  -0.000084  -0.002778  -0.003443  -0.000129
   61  O  5  S   -0.000195  -0.000059  -0.073411   0.080431  -0.096278
   62  O  5  S    0.000073  -0.000258   0.162729  -0.180735   0.214602
   63  O  5  X   -0.000069  -0.000011  -0.057834   0.060382  -0.059754
   64  O  5  Y    0.000090   0.000026   0.058317  -0.064020   0.044853
   65  O  5  Z    0.000035  -0.000067   0.012311  -0.014662   0.001526
   66  O  5  S    0.000286   0.001402   0.128007  -0.131982   0.199975
   67  O  5  X   -0.000005  -0.000467  -0.022679   0.019314  -0.033183
   68  O  5  Y   -0.000009   0.000465   0.027029  -0.028887   0.023883
   69  O  5  Z   -0.000042   0.000082   0.008171  -0.009001   0.000623
   70  O  5 XX   -0.000126  -0.000105   0.005045  -0.005250   0.008270
   71  O  5 YY   -0.000043  -0.000084   0.007318  -0.009565   0.002145
   72  O  5 ZZ    0.000003  -0.000203  -0.001988   0.001227  -0.003125
   73  O  5 XY    0.000080  -0.000089  -0.010367   0.011312  -0.008899
   74  O  5 XZ   -0.000042  -0.000001  -0.003512   0.003686   0.000303
   75  O  5 YZ   -0.000025   0.000084   0.002778  -0.003443  -0.000129
   76  O  6  S   -0.000185  -0.000069  -0.072253  -0.074680  -0.103139
   77  O  6  S    0.000085  -0.000338   0.164167   0.166223   0.228606
   78  O  6  X   -0.000045  -0.000017  -0.000694  -0.006703   0.009801
   79  O  6  Y    0.000086  -0.000024   0.066044   0.066894   0.059814
   80  O  6  Z   -0.000057   0.000005  -0.048533  -0.048495  -0.051355
   81  O  6  S    0.000038   0.001478   0.106640   0.122959   0.217122
   82  O  6  X    0.000036   0.000038  -0.006758  -0.006645   0.007457
   83  O  6  Y   -0.000084   0.000492   0.024488   0.028221   0.033543
   84  O  6  Z    0.000064  -0.000510  -0.014516  -0.016972  -0.029593
   85  O  6 XX   -0.000039  -0.000184  -0.001203  -0.002804  -0.002616
   86  O  6 YY   -0.000082  -0.000139   0.011562   0.010387   0.005818
   87  O  6 ZZ   -0.000076  -0.000196   0.004682   0.003139   0.003903
   88  O  6 XY   -0.000017  -0.000042  -0.001809  -0.002454   0.002512
   89  O  6 XZ    0.000062  -0.000053   0.001923   0.002437  -0.002525
   90  O  6 YZ    0.000105  -0.000141  -0.009226  -0.010270  -0.010116
   91  O  7  S   -0.000185  -0.000069  -0.072253   0.074680   0.103139
   92  O  7  S    0.000085  -0.000338   0.164167  -0.166223  -0.228606
   93  O  7  X    0.000045   0.000017   0.000694  -0.006703   0.009801
   94  O  7  Y   -0.000086   0.000024  -0.066044   0.066894   0.059814
   95  O  7  Z   -0.000057   0.000005  -0.048533   0.048495   0.051355
   96  O  7  S    0.000038   0.001478   0.106640  -0.122959  -0.217122
   97  O  7  X   -0.000036  -0.000038   0.006758  -0.006645   0.007457
   98  O  7  Y    0.000084  -0.000492  -0.024488   0.028221   0.033543
   99  O  7  Z    0.000064  -0.000510  -0.014516   0.016972   0.029593
  100  O  7 XX   -0.000039  -0.000184  -0.001203   0.002804   0.002616
  101  O  7 YY   -0.000082  -0.000139   0.011562  -0.010387  -0.005818
  102  O  7 ZZ   -0.000076  -0.000196   0.004682  -0.003139  -0.003903
  103  O  7 XY   -0.000017  -0.000042  -0.001809   0.002454  -0.002512
  104  O  7 XZ   -0.000062   0.000053  -0.001923   0.002437  -0.002525
  105  O  7 YZ   -0.000105   0.000141   0.009226  -0.010270  -0.010116

                     11         12         13         14         15
                   -1.5139    -1.2713    -1.0392    -0.8855    -0.8641
                     A          A          B          A          B   
    1  N  1  S    0.002127  -0.151241  -0.000000  -0.047161  -0.000000
    2  N  1  S   -0.003082   0.338397  -0.000000   0.099091  -0.000000
    3  N  1  X    0.000000  -0.000000   0.285072   0.000000  -0.132194
    4  N  1  Y    0.000000  -0.000000   0.042496   0.000000  -0.025785
    5  N  1  Z   -0.014020   0.142600  -0.000000  -0.016542  -0.000000
    6  N  1  S   -0.005110   0.280734  -0.000000   0.181892  -0.000000
    7  N  1  X    0.000000  -0.000000   0.065068   0.000000  -0.069698
    8  N  1  Y    0.000000  -0.000000   0.007456   0.000000  -0.008412
    9  N  1  Z   -0.006937   0.078270  -0.000000   0.016227  -0.000000
   10  N  1 XX    0.005447   0.014829  -0.000000  -0.002452  -0.000000
   11  N  1 YY   -0.000127  -0.014914  -0.000000  -0.002350  -0.000000
   12  N  1 ZZ   -0.004314   0.015405  -0.000000  -0.005131  -0.000000
   13  N  1 XY   -0.005165   0.003795  -0.000000  -0.000354  -0.000000
   14  N  1 XZ    0.000000  -0.000000   0.038999   0.000000  -0.014136
   15  N  1 YZ    0.000000  -0.000000   0.004933   0.000000  -0.004386
   16  N  2  S    0.000023  -0.027666   0.076712   0.069569   0.043714
   17  N  2  S    0.000239   0.070258  -0.185333  -0.190433  -0.119175
   18  N  2  X   -0.104167   0.194136  -0.175765   0.104597   0.146130
   19  N  2  Y    0.194261   0.037134  -0.008387   0.012463  -0.010820
   20  N  2  Z   -0.096396  -0.125987   0.162313  -0.082627  -0.185631
   21  N  2  S   -0.001014   0.087108  -0.239522  -0.179919  -0.110446
   22  N  2  X   -0.003638   0.034594  -0.090893   0.014602   0.047438
   23  N  2  Y    0.002238  -0.001927   0.000356   0.006571  -0.017980
   24  N  2  Z   -0.000981  -0.016370   0.062542  -0.016365  -0.065706
   25  N  2 XX    0.011122   0.017921  -0.002522  -0.001140   0.000048
   26  N  2 YY   -0.003510  -0.008089   0.005414   0.001603   0.004353
   27  N  2 ZZ   -0.008675   0.004232  -0.004536   0.001057   0.002810
   28  N  2 XY   -0.013910   0.005677  -0.003475   0.000178  -0.001879
   29  N  2 XZ    0.002744  -0.015675   0.012075   0.000391   0.001278
   30  N  2 YZ    0.010691   0.002212   0.002511  -0.000587  -0.003251
   31  N  3  S    0.000023  -0.027666  -0.076712   0.069569  -0.043714
   32  N  3  S    0.000239   0.070258   0.185333  -0.190433   0.119175
   33  N  3  X    0.104167  -0.194136  -0.175765  -0.104597   0.146130
   34  N  3  Y   -0.194261  -0.037134  -0.008387  -0.012463  -0.010820
   35  N  3  Z   -0.096396  -0.125987  -0.162313  -0.082627   0.185631
   36  N  3  S   -0.001014   0.087108   0.239522  -0.179919   0.110446
   37  N  3  X    0.003638  -0.034594  -0.090893  -0.014602   0.047438
   38  N  3  Y   -0.002238   0.001927   0.000356  -0.006571  -0.017980
   39  N  3  Z   -0.000981  -0.016370  -0.062542  -0.016365   0.065706
   40  N  3 XX    0.011122   0.017921   0.002522  -0.001140  -0.000048
   41  N  3 YY   -0.003510  -0.008089  -0.005414   0.001603  -0.004353
   42  N  3 ZZ   -0.008675   0.004232   0.004536   0.001057  -0.002810
   43  N  3 XY   -0.013910   0.005677   0.003475   0.000178   0.001879
   44  N  3 XZ   -0.002744   0.015675   0.012075  -0.000391   0.001278
   45  N  3 YZ   -0.010691  -0.002212   0.002511   0.000587  -0.003251
   46  O  4  S   -0.101397   0.045208  -0.063961  -0.071148  -0.056201
   47  O  4  S    0.226239  -0.099353   0.148626   0.162903   0.125921
   48  O  4  X    0.060953   0.025027  -0.085129  -0.095159  -0.067106
   49  O  4  Y   -0.049544   0.029011   0.016729   0.164826   0.147477
   50  O  4  Z    0.002193  -0.035383   0.056991  -0.080801  -0.144305
   51  O  4  S    0.207943  -0.121000   0.189198   0.253217   0.218557
   52  O  4  X    0.033651  -0.000808  -0.025140  -0.037724  -0.024788
   53  O  4  Y   -0.025721   0.019515   0.005758   0.077859   0.065223
   54  O  4  Z    0.000019  -0.016752   0.022416  -0.042535  -0.073700
   55  O  4 XX    0.008201   0.005049  -0.005644  -0.002168  -0.001787
   56  O  4 YY    0.002901  -0.005187   0.001252  -0.010287  -0.008930
   57  O  4 ZZ   -0.003226   0.000899   0.003999   0.003375   0.000893
   58  O  4 XY   -0.009563   0.002451   0.005288   0.013554   0.010719
   59  O  4 XZ   -0.000535  -0.003251   0.003657  -0.006903  -0.011438
   60  O  4 YZ   -0.000030   0.005350  -0.005213   0.006004   0.010275
   61  O  5  S   -0.101397   0.045208   0.063961  -0.071148   0.056201
   62  O  5  S    0.226239  -0.099353  -0.148626   0.162903  -0.125921
   63  O  5  X   -0.060953  -0.025027  -0.085129   0.095159  -0.067106
   64  O  5  Y    0.049544  -0.029011   0.016729  -0.164826   0.147477
   65  O  5  Z    0.002193  -0.035383  -0.056991  -0.080801   0.144305
   66  O  5  S    0.207943  -0.121000  -0.189198   0.253217  -0.218557
   67  O  5  X   -0.033651   0.000808  -0.025140   0.037724  -0.024788
   68  O  5  Y    0.025721  -0.019515   0.005758  -0.077859   0.065223
   69  O  5  Z    0.000019  -0.016752  -0.022416  -0.042535   0.073700
   70  O  5 XX    0.008201   0.005049   0.005644  -0.002168   0.001787
   71  O  5 YY    0.002901  -0.005187  -0.001252  -0.010287   0.008930
   72  O  5 ZZ   -0.003226   0.000899  -0.003999   0.003375  -0.000893
   73  O  5 XY   -0.009563   0.002451  -0.005288   0.013554  -0.010719
   74  O  5 XZ    0.000535   0.003251   0.003657   0.006903  -0.011438
   75  O  5 YZ    0.000030  -0.005350  -0.005213  -0.006004   0.010275
   76  O  6  S    0.098114   0.054069  -0.054878  -0.073081  -0.059249
   77  O  6  S   -0.217984  -0.114435   0.128056   0.164609   0.133127
   78  O  6  X   -0.011962   0.048662  -0.052970   0.063092   0.093386
   79  O  6  Y   -0.057282  -0.019219  -0.020969  -0.171711  -0.191821
   80  O  6  Z    0.048536  -0.010471   0.068320   0.087977   0.037919
   81  O  6  S   -0.203730  -0.161503   0.175699   0.268127   0.219554
   82  O  6  X   -0.007445   0.013686  -0.017544   0.038455   0.049062
   83  O  6  Y   -0.031670  -0.024252   0.000265  -0.077557  -0.091381
   84  O  6  Z    0.026538   0.010677   0.019615   0.034676   0.012721
   85  O  6 XX    0.002351   0.003005   0.002998   0.005171   0.005683
   86  O  6 YY   -0.005744  -0.002055   0.003360  -0.014947  -0.018863
   87  O  6 ZZ   -0.003787   0.004127  -0.004353  -0.002323   0.003528
   88  O  6 XY   -0.003010   0.005453  -0.005049   0.004689   0.005905
   89  O  6 XZ    0.002593  -0.003332   0.003230  -0.004572  -0.005710
   90  O  6 YZ    0.009320   0.003237   0.004902   0.012472   0.010308
   91  O  7  S    0.098114   0.054069   0.054878  -0.073081   0.059249
   92  O  7  S   -0.217984  -0.114435  -0.128056   0.164609  -0.133127
   93  O  7  X    0.011962  -0.048662  -0.052970  -0.063092   0.093386
   94  O  7  Y    0.057282   0.019219  -0.020969   0.171711  -0.191821
   95  O  7  Z    0.048536  -0.010471  -0.068320   0.087977  -0.037919
   96  O  7  S   -0.203730  -0.161503  -0.175699   0.268127  -0.219554
   97  O  7  X    0.007445  -0.013686  -0.017544  -0.038455   0.049062
   98  O  7  Y    0.031670   0.024252   0.000265   0.077557  -0.091381
   99  O  7  Z    0.026538   0.010677  -0.019615   0.034676  -0.012721
  100  O  7 XX    0.002351   0.003005  -0.002998   0.005171  -0.005683
  101  O  7 YY   -0.005744  -0.002055  -0.003360  -0.014947   0.018863
  102  O  7 ZZ   -0.003787   0.004127   0.004353  -0.002323  -0.003528
  103  O  7 XY   -0.003010   0.005453   0.005049   0.004689  -0.005905
  104  O  7 XZ   -0.002593   0.003332   0.003230   0.004572  -0.005710
  105  O  7 YZ   -0.009320  -0.003237   0.004902  -0.012472   0.010308

                     16         17         18         19         20
                   -0.8439    -0.8009    -0.7979    -0.7893    -0.6680
                     A          B          A          B          A   
    1  N  1  S    0.044343   0.000000  -0.000794  -0.000000  -0.131025
    2  N  1  S   -0.108178   0.000000   0.003692  -0.000000   0.308047
    3  N  1  X    0.000000  -0.016594  -0.000000  -0.032507  -0.000000
    4  N  1  Y    0.000000   0.052426  -0.000000   0.021378  -0.000000
    5  N  1  Z    0.131705   0.000000  -0.011297  -0.000000  -0.214666
    6  N  1  S   -0.133857   0.000000  -0.005599  -0.000000   0.508570
    7  N  1  X    0.000000   0.002175  -0.000000  -0.013932  -0.000000
    8  N  1  Y    0.000000   0.003161  -0.000000   0.011338  -0.000000
    9  N  1  Z    0.055179   0.000000  -0.005693  -0.000000  -0.088942
   10  N  1 XX   -0.015184   0.000000   0.003722  -0.000000  -0.005209
   11  N  1 YY   -0.005989   0.000000  -0.000947  -0.000000   0.004854
   12  N  1 ZZ    0.020733   0.000000  -0.001715  -0.000000  -0.012619
   13  N  1 XY   -0.008113   0.000000  -0.008258  -0.000000  -0.000547
   14  N  1 XZ    0.000000  -0.002399  -0.000000  -0.013120  -0.000000
   15  N  1 YZ    0.000000   0.008751  -0.000000   0.002647  -0.000000
   16  N  2  S   -0.001224   0.002065  -0.000614  -0.004677   0.026551
   17  N  2  S   -0.001212  -0.003035  -0.001040   0.007573  -0.067497
   18  N  2  X    0.175744  -0.045912  -0.074002   0.235040  -0.052868
   19  N  2  Y    0.132316   0.268449   0.261877   0.102658   0.012856
   20  N  2  Z    0.219987  -0.035870  -0.052251   0.204022   0.133648
   21  N  2  S    0.020540  -0.014214   0.014988   0.024462  -0.093686
   22  N  2  X    0.095075  -0.015055  -0.019846   0.115234  -0.065969
   23  N  2  Y    0.056325   0.109483   0.099871   0.062821   0.017778
   24  N  2  Z    0.109846  -0.011644  -0.006883   0.099685   0.080002
   25  N  2 XX   -0.000769  -0.001062  -0.000923  -0.009169   0.004007
   26  N  2 YY   -0.001805   0.000753  -0.000836   0.003146  -0.016885
   27  N  2 ZZ    0.000674   0.002402  -0.000161   0.006503   0.015018
   28  N  2 XY   -0.005575  -0.000854  -0.003453  -0.004501   0.012059
   29  N  2 XZ    0.001213  -0.001445   0.000163  -0.003780  -0.025325
   30  N  2 YZ    0.002129   0.000400   0.001397  -0.001324   0.007242
   31  N  3  S   -0.001224  -0.002065  -0.000614   0.004677   0.026551
   32  N  3  S   -0.001212   0.003035  -0.001040  -0.007573  -0.067497
   33  N  3  X   -0.175744  -0.045912   0.074002   0.235040   0.052868
   34  N  3  Y   -0.132316   0.268449  -0.261877   0.102658  -0.012856
   35  N  3  Z    0.219987   0.035870  -0.052251  -0.204022   0.133648
   36  N  3  S    0.020540   0.014214   0.014988  -0.024462  -0.093686
   37  N  3  X   -0.095075  -0.015055   0.019846   0.115234   0.065969
   38  N  3  Y   -0.056325   0.109483  -0.099871   0.062821  -0.017778
   39  N  3  Z    0.109846   0.011644  -0.006883  -0.099685   0.080002
   40  N  3 XX   -0.000769   0.001062  -0.000923   0.009169   0.004007
   41  N  3 YY   -0.001805  -0.000753  -0.000836  -0.003146  -0.016885
   42  N  3 ZZ    0.000674  -0.002402  -0.000161  -0.006503   0.015018
   43  N  3 XY   -0.005575   0.000854  -0.003453   0.004501   0.012059
   44  N  3 XZ   -0.001213  -0.001445  -0.000163  -0.003780   0.025325
   45  N  3 YZ   -0.002129   0.000400  -0.001397  -0.001324  -0.007242
   46  O  4  S   -0.018245   0.051154   0.055166  -0.024080  -0.001884
   47  O  4  S    0.039210  -0.114759  -0.123667   0.053458   0.011623
   48  O  4  X    0.028379   0.218188   0.221978   0.031064  -0.116345
   49  O  4  Y    0.136524  -0.078212  -0.107847   0.211939  -0.011373
   50  O  4  Z    0.123540   0.032387   0.027314   0.099221   0.185862
   51  O  4  S    0.081450  -0.217464  -0.236916   0.105905  -0.009925
   52  O  4  X    0.019914   0.107187   0.107420   0.022685  -0.076644
   53  O  4  Y    0.066223  -0.032613  -0.046835   0.111909  -0.000394
   54  O  4  Z    0.068051   0.019479   0.013787   0.057884   0.113127
   55  O  4 XX    0.009062   0.016538   0.015519   0.010613  -0.004100
   56  O  4 YY   -0.017020  -0.002200   0.000182  -0.021176   0.001905
   57  O  4 ZZ    0.003624  -0.004104  -0.004941   0.005174   0.006640
   58  O  4 XY    0.006813  -0.013136  -0.014651   0.010372   0.004887
   59  O  4 XZ    0.012348   0.004856   0.003880   0.010702   0.008730
   60  O  4 YZ   -0.008946  -0.002853  -0.002007  -0.007405  -0.010042
   61  O  5  S   -0.018245  -0.051154   0.055166   0.024080  -0.001884
   62  O  5  S    0.039210   0.114759  -0.123667  -0.053458   0.011623
   63  O  5  X   -0.028379   0.218188  -0.221978   0.031064   0.116345
   64  O  5  Y   -0.136524  -0.078212   0.107847   0.211939   0.011373
   65  O  5  Z    0.123540  -0.032387   0.027314  -0.099221   0.185862
   66  O  5  S    0.081450   0.217464  -0.236916  -0.105905  -0.009925
   67  O  5  X   -0.019914   0.107187  -0.107420   0.022685   0.076644
   68  O  5  Y   -0.066223  -0.032613   0.046835   0.111909   0.000394
   69  O  5  Z    0.068051  -0.019479   0.013787  -0.057884   0.113127
   70  O  5 XX    0.009062  -0.016538   0.015519  -0.010613  -0.004100
   71  O  5 YY   -0.017020   0.002200   0.000182   0.021176   0.001905
   72  O  5 ZZ    0.003624   0.004104  -0.004941  -0.005174   0.006640
   73  O  5 XY    0.006813   0.013136  -0.014651  -0.010372   0.004887
   74  O  5 XZ   -0.012348   0.004856  -0.003880   0.010702  -0.008730
   75  O  5 YZ    0.008946  -0.002853   0.002007  -0.007405   0.010042
   76  O  6  S    0.014229  -0.058175  -0.053790   0.008163   0.000200
   77  O  6  S   -0.030960   0.128738   0.121868  -0.020193   0.004906
   78  O  6  X    0.126018  -0.018831  -0.018823   0.139553  -0.183265
   79  O  6  Y    0.114742  -0.135602  -0.142970   0.130799   0.092021
   80  O  6  Z    0.097413   0.202838   0.191620   0.083252   0.129128
   81  O  6  S   -0.064832   0.251861   0.221308  -0.037899  -0.007610
   82  O  6  X    0.065790  -0.007296  -0.007719   0.076327  -0.112765
   83  O  6  Y    0.055770  -0.057933  -0.069186   0.072642   0.054651
   84  O  6  Z    0.060335   0.099030   0.097011   0.049162   0.083161
   85  O  6 XX    0.001241   0.004808   0.006402  -0.001787   0.000858
   86  O  6 YY    0.017573  -0.004520  -0.005074   0.017108   0.011643
   87  O  6 ZZ   -0.015598  -0.013015  -0.010602  -0.015344  -0.009044
   88  O  6 XY    0.010432  -0.000792  -0.001795   0.012442  -0.006992
   89  O  6 XZ   -0.006898   0.000740   0.001554  -0.009052   0.005663
   90  O  6 YZ    0.003268   0.017168   0.017023   0.000996   0.003676
   91  O  7  S    0.014229   0.058175  -0.053790  -0.008163   0.000200
   92  O  7  S   -0.030960  -0.128738   0.121868   0.020193   0.004906
   93  O  7  X   -0.126018  -0.018831   0.018823   0.139553   0.183265
   94  O  7  Y   -0.114742  -0.135602   0.142970   0.130799  -0.092021
   95  O  7  Z    0.097413  -0.202838   0.191620  -0.083252   0.129128
   96  O  7  S   -0.064832  -0.251861   0.221308   0.037899  -0.007610
   97  O  7  X   -0.065790  -0.007296   0.007719   0.076327   0.112765
   98  O  7  Y   -0.055770  -0.057933   0.069186   0.072642  -0.054651
   99  O  7  Z    0.060335  -0.099030   0.097011  -0.049162   0.083161
  100  O  7 XX    0.001241  -0.004808   0.006402   0.001787   0.000858
  101  O  7 YY    0.017573   0.004520  -0.005074  -0.017108   0.011643
  102  O  7 ZZ   -0.015598   0.013015  -0.010602   0.015344  -0.009044
  103  O  7 XY    0.010432   0.000792  -0.001795  -0.012442  -0.006992
  104  O  7 XZ    0.006898   0.000740  -0.001554  -0.009052  -0.005663
  105  O  7 YZ   -0.003268   0.017168  -0.017023   0.000996  -0.003676

                     21         22         23         24         25
                   -0.5752    -0.5686    -0.5404    -0.5306    -0.5193
                     B          A          B          A          A   
    1  N  1  S   -0.000000   0.004239  -0.000000   0.036616   0.013648
    2  N  1  S   -0.000000  -0.006886  -0.000000  -0.081735  -0.011610
    3  N  1  X    0.076281   0.000000  -0.270547   0.000000  -0.000000
    4  N  1  Y   -0.052198   0.000000  -0.060261   0.000000  -0.000000
    5  N  1  Z   -0.000000   0.173611  -0.000000   0.388898   0.131528
    6  N  1  S   -0.000000  -0.019594  -0.000000  -0.144796  -0.141559
    7  N  1  X    0.048574   0.000000  -0.144875   0.000000  -0.000000
    8  N  1  Y   -0.035063   0.000000  -0.045730   0.000000  -0.000000
    9  N  1  Z   -0.000000   0.125234  -0.000000   0.272592   0.045527
   10  N  1 XX   -0.000000   0.000260  -0.000000   0.002361   0.005997
   11  N  1 YY   -0.000000  -0.005165  -0.000000  -0.013828  -0.003704
   12  N  1 ZZ   -0.000000   0.012347  -0.000000   0.028136   0.014066
   13  N  1 XY   -0.000000   0.003433  -0.000000   0.001251  -0.000273
   14  N  1 XZ    0.004332   0.000000  -0.023543   0.000000  -0.000000
   15  N  1 YZ   -0.003978   0.000000  -0.001042   0.000000  -0.000000
   16  N  2  S   -0.002173   0.001781  -0.002457  -0.006703  -0.002747
   17  N  2  S    0.012559  -0.008314  -0.005879   0.024679  -0.002864
   18  N  2  X   -0.032873   0.002891   0.107745   0.092927   0.026225
   19  N  2  Y    0.048036   0.027760   0.026559   0.007187  -0.001529
   20  N  2  Z   -0.002771  -0.064801  -0.065536  -0.072159  -0.039514
   21  N  2  S   -0.036950   0.019325   0.095474   0.035158   0.084131
   22  N  2  X    0.025111   0.009705   0.035945   0.014600   0.034724
   23  N  2  Y   -0.041809  -0.040979   0.017605  -0.006959  -0.000020
   24  N  2  Z    0.015455   0.004616  -0.008344  -0.023690  -0.018358
   25  N  2 XX    0.017033   0.033704   0.019103   0.015020   0.023548
   26  N  2 YY   -0.000923  -0.014217  -0.021718  -0.001262  -0.045409
   27  N  2 ZZ   -0.014051  -0.019589   0.002472  -0.005691   0.019941
   28  N  2 XY   -0.032160  -0.010299   0.014435   0.027555   0.002598
   29  N  2 XZ    0.012867  -0.008407  -0.038950  -0.025350   0.014942
   30  N  2 YZ    0.014413   0.024830   0.023493   0.004018  -0.015365
   31  N  3  S    0.002173   0.001781   0.002457  -0.006703  -0.002747
   32  N  3  S   -0.012559  -0.008314   0.005879   0.024679  -0.002864
   33  N  3  X   -0.032873  -0.002891   0.107745  -0.092927  -0.026225
   34  N  3  Y    0.048036  -0.027760   0.026559  -0.007187   0.001529
   35  N  3  Z    0.002771  -0.064801   0.065536  -0.072159  -0.039514
   36  N  3  S    0.036950   0.019325  -0.095474   0.035158   0.084131
   37  N  3  X    0.025111  -0.009705   0.035945  -0.014600  -0.034724
   38  N  3  Y   -0.041809   0.040979   0.017605   0.006959   0.000020
   39  N  3  Z   -0.015455   0.004616   0.008344  -0.023690  -0.018358
   40  N  3 XX   -0.017033   0.033704  -0.019103   0.015020   0.023548
   41  N  3 YY    0.000923  -0.014217   0.021718  -0.001262  -0.045409
   42  N  3 ZZ    0.014051  -0.019589  -0.002472  -0.005691   0.019941
   43  N  3 XY    0.032160  -0.010299  -0.014435   0.027555   0.002598
   44  N  3 XZ    0.012867   0.008407  -0.038950   0.025350  -0.014942
   45  N  3 YZ    0.014413  -0.024830   0.023493  -0.004018   0.015365
   46  O  4  S   -0.001063  -0.001361  -0.000013  -0.001190  -0.000213
   47  O  4  S   -0.001059   0.003747   0.002723   0.005727   0.002437
   48  O  4  X   -0.056193  -0.208304  -0.226335  -0.036302  -0.176387
   49  O  4  Y   -0.185220  -0.210414  -0.042329   0.087768  -0.182971
   50  O  4  Z    0.166339   0.269697   0.302679   0.023588  -0.210388
   51  O  4  S    0.035494   0.013346  -0.014726   0.004297  -0.006798
   52  O  4  X   -0.029084  -0.142634  -0.170121  -0.030706  -0.143232
   53  O  4  Y   -0.140024  -0.146189  -0.026252   0.060123  -0.141782
   54  O  4  Z    0.113709   0.190645   0.222192   0.024025  -0.161577
   55  O  4 XX   -0.006725  -0.013124  -0.008320   0.003832  -0.013122
   56  O  4 YY    0.008886   0.012139   0.001427  -0.005342   0.014612
   57  O  4 ZZ   -0.000871   0.001737   0.005246   0.001827  -0.001226
   58  O  4 XY   -0.006345  -0.000497   0.007125   0.004203  -0.001158
   59  O  4 XZ    0.007079   0.008120   0.008570  -0.001369  -0.012887
   60  O  4 YZ   -0.006863  -0.008263  -0.009294   0.001492   0.009322
   61  O  5  S    0.001063  -0.001361   0.000013  -0.001190  -0.000213
   62  O  5  S    0.001059   0.003747  -0.002723   0.005727   0.002437
   63  O  5  X   -0.056193   0.208304  -0.226335   0.036302   0.176387
   64  O  5  Y   -0.185220   0.210414  -0.042329  -0.087768   0.182971
   65  O  5  Z   -0.166339   0.269697  -0.302679   0.023588  -0.210388
   66  O  5  S   -0.035494   0.013346   0.014726   0.004297  -0.006798
   67  O  5  X   -0.029084   0.142634  -0.170121   0.030706   0.143232
   68  O  5  Y   -0.140024   0.146189  -0.026252  -0.060123   0.141782
   69  O  5  Z   -0.113709   0.190645  -0.222192   0.024025  -0.161577
   70  O  5 XX    0.006725  -0.013124   0.008320   0.003832  -0.013122
   71  O  5 YY   -0.008886   0.012139  -0.001427  -0.005342   0.014612
   72  O  5 ZZ    0.000871   0.001737  -0.005246   0.001827  -0.001226
   73  O  5 XY    0.006345  -0.000497  -0.007125   0.004203  -0.001158
   74  O  5 XZ    0.007079  -0.008120   0.008570   0.001369   0.012887
   75  O  5 YZ   -0.006863   0.008263  -0.009294  -0.001492  -0.009322
   76  O  6  S    0.001426  -0.000777  -0.001068  -0.000578   0.000207
   77  O  6  S   -0.006103   0.006090   0.003351   0.009096   0.002861
   78  O  6  X    0.367696   0.138686  -0.165786  -0.357181   0.031500
   79  O  6  Y   -0.115134  -0.174535  -0.083083  -0.048560   0.148957
   80  O  6  Z   -0.074728  -0.036257   0.089475   0.039033   0.253554
   81  O  6  S   -0.009021  -0.020184  -0.000024  -0.017218  -0.017038
   82  O  6  X    0.258668   0.091953  -0.127801  -0.271016   0.018501
   83  O  6  Y   -0.079647  -0.129412  -0.064427  -0.042387   0.113907
   84  O  6  Z   -0.050018  -0.018996   0.064619   0.031829   0.202495
   85  O  6 XX    0.002251   0.004846   0.002000   0.002600   0.002842
   86  O  6 YY   -0.007713  -0.011419  -0.005945  -0.002525   0.014051
   87  O  6 ZZ    0.001971   0.006972  -0.000523   0.004554  -0.014697
   88  O  6 XY    0.013591   0.005096  -0.003860  -0.013763   0.003447
   89  O  6 XZ   -0.012402  -0.005373   0.002182   0.010095  -0.000362
   90  O  6 YZ    0.000506   0.003499   0.005925   0.002890   0.006368
   91  O  7  S   -0.001426  -0.000777   0.001068  -0.000578   0.000207
   92  O  7  S    0.006103   0.006090  -0.003351   0.009096   0.002861
   93  O  7  X    0.367696  -0.138686  -0.165786   0.357181  -0.031500
   94  O  7  Y   -0.115134   0.174535  -0.083083   0.048560  -0.148957
   95  O  7  Z    0.074728  -0.036257  -0.089475   0.039033   0.253554
   96  O  7  S    0.009021  -0.020184   0.000024  -0.017218  -0.017038
   97  O  7  X    0.258668  -0.091953  -0.127801   0.271016  -0.018501
   98  O  7  Y   -0.079647   0.129412  -0.064427   0.042387  -0.113907
   99  O  7  Z    0.050018  -0.018996  -0.064619   0.031829   0.202495
  100  O  7 XX   -0.002251   0.004846  -0.002000   0.002600   0.002842
  101  O  7 YY    0.007713  -0.011419   0.005945  -0.002525   0.014051
  102  O  7 ZZ   -0.001971   0.006972   0.000523   0.004554  -0.014697
  103  O  7 XY   -0.013591   0.005096   0.003860  -0.013763   0.003447
  104  O  7 XZ   -0.012402   0.005373   0.002182  -0.010095   0.000362
  105  O  7 YZ    0.000506  -0.003499   0.005925  -0.002890  -0.006368

                     26         27         28         29         30
                   -0.5152    -0.3002     0.0489     0.0568     0.2294
                     B          B          A          B          A   
    1  N  1  S    0.000000  -0.000000  -0.038490   0.000000  -0.119268
    2  N  1  S    0.000000  -0.000000   0.059544   0.000000   0.224484
    3  N  1  X   -0.078201  -0.099232   0.000000   0.116902  -0.000000
    4  N  1  Y   -0.008575   0.692646   0.000000  -0.108114  -0.000000
    5  N  1  Z    0.000000  -0.000000  -0.019581   0.000000   0.386031
    6  N  1  S    0.000000  -0.000000   0.392436   0.000000   1.557250
    7  N  1  X   -0.068635  -0.033315   0.000000   0.231593  -0.000000
    8  N  1  Y   -0.005046   0.409145   0.000000  -0.086901  -0.000000
    9  N  1  Z    0.000000  -0.000000   0.053136   0.000000   0.987646
   10  N  1 XX    0.000000  -0.000000  -0.046149   0.000000  -0.053715
   11  N  1 YY    0.000000  -0.000000   0.003693   0.000000   0.038657
   12  N  1 ZZ    0.000000  -0.000000   0.012999   0.000000  -0.019519
   13  N  1 XY    0.000000  -0.000000  -0.030469   0.000000  -0.012157
   14  N  1 XZ   -0.005744  -0.006290   0.000000  -0.020742  -0.000000
   15  N  1 YZ   -0.001831   0.028006   0.000000   0.007626  -0.000000
   16  N  2  S    0.000308  -0.000967   0.022924  -0.024976   0.088426
   17  N  2  S    0.007173   0.004878  -0.055312   0.052755  -0.132212
   18  N  2  X    0.029039   0.015469   0.054836   0.242647  -0.291710
   19  N  2  Y    0.005798  -0.019810   0.190679   0.217635  -0.108534
   20  N  2  Z   -0.010482   0.002897   0.323115   0.207386   0.090675
   21  N  2  S   -0.024354   0.010934  -0.261495   0.287897  -1.469664
   22  N  2  X   -0.010212  -0.029429   0.066854   0.252631  -0.509994
   23  N  2  Y    0.000564   0.049333   0.202551   0.261541  -0.106100
   24  N  2  Z    0.000858  -0.043721   0.329215   0.189294   0.177940
   25  N  2 XX    0.018986   0.000279   0.016954   0.012166   0.033043
   26  N  2 YY   -0.043338   0.004964   0.002430  -0.001430   0.013228
   27  N  2 ZZ    0.031019  -0.002749  -0.017076  -0.017185   0.000650
   28  N  2 XY   -0.000626   0.020349   0.010968   0.008699  -0.007580
   29  N  2 XZ    0.011714   0.002115   0.008480   0.008254  -0.019089
   30  N  2 YZ   -0.014147  -0.014527  -0.008443   0.001021  -0.010479
   31  N  3  S   -0.000308   0.000967   0.022924   0.024976   0.088426
   32  N  3  S   -0.007173  -0.004878  -0.055312  -0.052755  -0.132212
   33  N  3  X    0.029039   0.015469  -0.054836   0.242647   0.291710
   34  N  3  Y    0.005798  -0.019810  -0.190679   0.217635   0.108534
   35  N  3  Z    0.010482  -0.002897   0.323115  -0.207386   0.090675
   36  N  3  S    0.024354  -0.010934  -0.261495  -0.287897  -1.469664
   37  N  3  X   -0.010212  -0.029429  -0.066854   0.252631   0.509994
   38  N  3  Y    0.000564   0.049333  -0.202551   0.261541   0.106100
   39  N  3  Z   -0.000858   0.043721   0.329215  -0.189294   0.177940
   40  N  3 XX   -0.018986  -0.000279   0.016954  -0.012166   0.033043
   41  N  3 YY    0.043338  -0.004964   0.002430   0.001430   0.013228
   42  N  3 ZZ   -0.031019   0.002749  -0.017076   0.017185   0.000650
   43  N  3 XY    0.000626  -0.020349   0.010968  -0.008699  -0.007580
   44  N  3 XZ    0.011714   0.002115  -0.008480   0.008254   0.019089
   45  N  3 YZ   -0.014147  -0.014527   0.008443   0.001021   0.010479
   46  O  4  S    0.000459   0.007876  -0.003501   0.002161  -0.020834
   47  O  4  S   -0.001432  -0.010066   0.004975  -0.000929   0.055886
   48  O  4  X   -0.178130  -0.095122  -0.065235  -0.131984   0.136906
   49  O  4  Y   -0.177055  -0.043100  -0.146630  -0.137155  -0.032651
   50  O  4  Z   -0.165576   0.023351  -0.190341  -0.175653  -0.018439
   51  O  4  S    0.001174  -0.079279   0.045270  -0.056512   0.226669
   52  O  4  X   -0.132735  -0.092544  -0.064488  -0.176565   0.271268
   53  O  4  Y   -0.136843  -0.024072  -0.178529  -0.153539  -0.057621
   54  O  4  Z   -0.128735   0.024568  -0.232718  -0.199463  -0.021172
   55  O  4 XX   -0.012142  -0.004568   0.001666   0.006196   0.000026
   56  O  4 YY    0.012197   0.007616  -0.002485  -0.004837   0.015018
   57  O  4 ZZ   -0.001314   0.004449  -0.001149   0.001055  -0.003235
   58  O  4 XY   -0.001442   0.002732   0.000020   0.002494  -0.003307
   59  O  4 XZ   -0.009913   0.000100   0.004502   0.003409  -0.000818
   60  O  4 YZ    0.006853  -0.002734  -0.005518  -0.000297  -0.008276
   61  O  5  S   -0.000459  -0.007876  -0.003501  -0.002161  -0.020834
   62  O  5  S    0.001432   0.010066   0.004975   0.000929   0.055886
   63  O  5  X   -0.178130  -0.095122   0.065235  -0.131984  -0.136906
   64  O  5  Y   -0.177055  -0.043100   0.146630  -0.137155   0.032651
   65  O  5  Z    0.165576  -0.023351  -0.190341   0.175653  -0.018439
   66  O  5  S   -0.001174   0.079279   0.045270   0.056512   0.226669
   67  O  5  X   -0.132735  -0.092544   0.064488  -0.176565  -0.271268
   68  O  5  Y   -0.136843  -0.024072   0.178529  -0.153539   0.057621
   69  O  5  Z    0.128735  -0.024568  -0.232718   0.199463  -0.021172
   70  O  5 XX    0.012142   0.004568   0.001666  -0.006196   0.000026
   71  O  5 YY   -0.012197  -0.007616  -0.002485   0.004837   0.015018
   72  O  5 ZZ    0.001314  -0.004449  -0.001149  -0.001055  -0.003235
   73  O  5 XY    0.001442  -0.002732   0.000020  -0.002494  -0.003307
   74  O  5 XZ   -0.009913   0.000100  -0.004502   0.003409   0.000818
   75  O  5 YZ    0.006853  -0.002734   0.005518  -0.000297   0.008276
   76  O  6  S    0.000088  -0.007368  -0.001451   0.001404  -0.018296
   77  O  6  S   -0.002447   0.008422   0.001025  -0.003315   0.046104
   78  O  6  X    0.075491   0.052377  -0.090418  -0.102985   0.086639
   79  O  6  Y    0.183842  -0.021935  -0.119405  -0.147118   0.104642
   80  O  6  Z    0.275877  -0.081956  -0.201486  -0.133163  -0.021174
   81  O  6  S    0.010314   0.076770   0.040925  -0.010490   0.256479
   82  O  6  X    0.066250   0.050460  -0.099991  -0.139648   0.144748
   83  O  6  Y    0.144082  -0.004335  -0.133839  -0.174875   0.196234
   84  O  6  Z    0.207754  -0.076557  -0.250748  -0.161782  -0.116420
   85  O  6 XX    0.000987  -0.003883   0.001706  -0.003276   0.000609
   86  O  6 YY    0.015237  -0.006516   0.005504   0.005411   0.005689
   87  O  6 ZZ   -0.019083   0.002325  -0.006564  -0.004582   0.004032
   88  O  6 XY    0.006457   0.004519  -0.000524   0.004256  -0.011913
   89  O  6 XZ   -0.004184  -0.002688   0.000524  -0.003896  -0.000450
   90  O  6 YZ    0.005757  -0.003333  -0.000153   0.002031  -0.009460
   91  O  7  S   -0.000088   0.007368  -0.001451  -0.001404  -0.018296
   92  O  7  S    0.002447  -0.008422   0.001025   0.003315   0.046104
   93  O  7  X    0.075491   0.052377   0.090418  -0.102985  -0.086639
   94  O  7  Y    0.183842  -0.021935   0.119405  -0.147118  -0.104642
   95  O  7  Z   -0.275877   0.081956  -0.201486   0.133163  -0.021174
   96  O  7  S   -0.010314  -0.076770   0.040925   0.010490   0.256479
   97  O  7  X    0.066250   0.050460   0.099991  -0.139648  -0.144748
   98  O  7  Y    0.144082  -0.004335   0.133839  -0.174875  -0.196234
   99  O  7  Z   -0.207754   0.076557  -0.250748   0.161782  -0.116420
  100  O  7 XX   -0.000987   0.003883   0.001706   0.003276   0.000609
  101  O  7 YY   -0.015237   0.006516   0.005504  -0.005411   0.005689
  102  O  7 ZZ    0.019083  -0.002325  -0.006564   0.004582   0.004032
  103  O  7 XY   -0.006457  -0.004519  -0.000524  -0.004256  -0.011913
  104  O  7 XZ   -0.004184  -0.002688  -0.000524  -0.003896   0.000450
  105  O  7 YZ    0.005757  -0.003333   0.000153   0.002031   0.009460

                     31         32         33         34         35
                    0.2915     0.4620     0.4664     0.5716     0.6024
                     B          A          B          A          B   
    1  N  1  S    0.000000  -0.026405   0.000000  -0.012983   0.000000
    2  N  1  S    0.000000  -0.013518   0.000000   0.026363   0.000000
    3  N  1  X    0.494730   0.000000   0.076753  -0.000000   0.094973
    4  N  1  Y    0.104156   0.000000   0.015480  -0.000000  -0.156978
    5  N  1  Z    0.000000   0.092435   0.000000  -0.013894   0.000000
    6  N  1  S    0.000000   0.647316   0.000000   0.495977   0.000000
    7  N  1  X    1.230552   0.000000  -0.282119  -0.000000   0.696098
    8  N  1  Y    0.218724   0.000000  -0.221429  -0.000000  -0.711711
    9  N  1  Z    0.000000   0.169723   0.000000   0.602577   0.000000
   10  N  1 XX    0.000000  -0.058905   0.000000   0.053776   0.000000
   11  N  1 YY    0.000000   0.009513   0.000000  -0.014078   0.000000
   12  N  1 ZZ    0.000000  -0.026109   0.000000  -0.014969   0.000000
   13  N  1 XY    0.000000   0.011500   0.000000  -0.048994   0.000000
   14  N  1 XZ   -0.027873   0.000000   0.012520  -0.000000   0.011594
   15  N  1 YZ   -0.003793   0.000000   0.019663  -0.000000   0.047594
   16  N  2  S   -0.076921  -0.056632  -0.071109  -0.017945   0.010111
   17  N  2  S    0.171578  -0.066539   0.071753   0.105094  -0.077459
   18  N  2  X    0.167786  -0.273727  -0.199003  -0.149304  -0.112268
   19  N  2  Y   -0.081910  -0.106326  -0.004697   0.242436   0.213053
   20  N  2  Z   -0.287883   0.151678   0.158178  -0.098115  -0.214753
   21  N  2  S    1.128135   1.820944   1.864330   0.183666   0.078925
   22  N  2  X    0.397335  -0.676859  -1.108842  -1.272112  -0.829504
   23  N  2  Y   -0.092004  -0.458624   0.307236   1.772169   2.335419
   24  N  2  Z   -0.467261   0.745157   0.355526  -0.596257  -1.364962
   25  N  2 XX    0.006312  -0.013133  -0.019919  -0.014203  -0.010880
[...]
   73  O  5 XY   -0.031495  -0.320580  -0.082608   0.349387  -0.220970
   74  O  5 XZ    0.002317  -0.002689  -0.003628  -0.054556  -0.086977
   75  O  5 YZ    0.041338   0.047788  -0.007095  -0.043938   0.112595
   76  O  6  S   -0.204760  -0.188804  -0.313173  -0.251288  -0.202447
   77  O  6  S   -0.273736  -0.279712  -0.427202  -0.358168  -0.320349
   78  O  6  X    0.001177   0.010818  -0.026935  -0.016291  -0.042109
   79  O  6  Y    0.070274  -0.243541   0.002099  -0.235861  -0.130487
   80  O  6  Z   -0.038063   0.222843   0.003680   0.158478   0.105414
   81  O  6  S    3.549295   3.031220   5.467391   3.944704   2.745679
   82  O  6  X    0.075075   0.098005   0.228566   0.199256  -0.233200
   83  O  6  Y    1.043255   0.498401   1.404956   0.814286   0.796862
   84  O  6  Z   -0.844810  -0.508036  -1.208973  -0.651373  -0.368831
   85  O  6 XX   -0.757021  -0.640878  -1.105015  -0.859707  -0.679243
   86  O  6 YY   -0.405172  -0.704755  -0.800915  -0.819538  -0.552777
   87  O  6 ZZ   -0.561385  -0.635962  -0.892442  -0.838602  -0.731143
   88  O  6 XY    0.007196  -0.021409   0.041963   0.058585  -0.059726
   89  O  6 XZ   -0.090957   0.022672  -0.089548   0.008007   0.007926
   90  O  6 YZ   -0.371476   0.137485  -0.414768  -0.015640  -0.100201
   91  O  7  S   -0.204760   0.188804   0.313173  -0.251288  -0.202447
   92  O  7  S   -0.273736   0.279712   0.427202  -0.358168  -0.320349
   93  O  7  X   -0.001177   0.010818  -0.026935   0.016291   0.042109
   94  O  7  Y   -0.070274  -0.243541   0.002099   0.235861   0.130487
   95  O  7  Z   -0.038063  -0.222843  -0.003680   0.158478   0.105414
   96  O  7  S    3.549295  -3.031220  -5.467391   3.944704   2.745679
   97  O  7  X   -0.075075   0.098005   0.228566  -0.199256   0.233200
   98  O  7  Y   -1.043255   0.498401   1.404956  -0.814286  -0.796862
   99  O  7  Z   -0.844810   0.508036   1.208973  -0.651373  -0.368831
  100  O  7 XX   -0.757021   0.640878   1.105015  -0.859707  -0.679243
  101  O  7 YY   -0.405172   0.704755   0.800915  -0.819538  -0.552777
  102  O  7 ZZ   -0.561385   0.635962   0.892442  -0.838602  -0.731143
  103  O  7 XY    0.007196   0.021409  -0.041963   0.058585  -0.059726
  104  O  7 XZ    0.090957   0.022672  -0.089548  -0.008007  -0.007926
  105  O  7 YZ    0.371476   0.137485  -0.414768   0.015640   0.100201
 ...... END OF ROHF CALCULATION ......
 STEP CPU TIME =     1.72 TOTAL CPU TIME =        2.1 (    0.0 MIN)
 TOTAL WALL CLOCK TIME=        2.1 SECONDS, CPU UTILIZATION IS  99.04%

     ----------------------------------------------------------------
     PROPERTY VALUES FOR THE ROHF  SELF-CONSISTENT FIELD WAVEFUNCTION
     ----------------------------------------------------------------

          -----------------
          ENERGY COMPONENTS
          -----------------

         WAVEFUNCTION NORMALIZATION =       0.5094339623

                ONE ELECTRON ENERGY =    -637.4954905781
                TWO ELECTRON ENERGY =    -139.9632067186
           NUCLEAR REPULSION ENERGY =     315.0441603715
                                      ------------------
                       TOTAL ENERGY =    -462.4145369251

 ELECTRON-ELECTRON POTENTIAL ENERGY =    -139.9632067186
  NUCLEUS-ELECTRON POTENTIAL ENERGY =    -869.2123515932
   NUCLEUS-NUCLEUS POTENTIAL ENERGY =     315.0441603715
                                      ------------------
             TOTAL POTENTIAL ENERGY =    -694.1313979402
               TOTAL KINETIC ENERGY =     231.7168610151
                 VIRIAL RATIO (V/T) =       2.9956015928

          ---------------------------------------
          MULLIKEN AND LOWDIN POPULATION ANALYSES
          ---------------------------------------

               ----- POPULATIONS IN EACH AO -----
                             MULLIKEN      LOWDIN
              1  N  1  S      0.99817     0.98916
              2  N  1  S      0.44334     0.30691
              3  N  1  X      0.32289     0.29707
              4  N  1  Y      0.64712     0.62438
              5  N  1  Z      0.43133     0.41101
              6  N  1  S      0.44861     0.22298
              7  N  1  X      0.07767     0.16043
              8  N  1  Y      0.30019     0.30957
              9  N  1  Z      0.20647     0.27040
             10  N  1 XX      0.01330     0.10174
             11  N  1 YY     -0.00314     0.09253
             12  N  1 ZZ      0.00228     0.09338
             13  N  1 XY      0.00185     0.00392
             14  N  1 XZ      0.01500     0.02302
             15  N  1 YZ      0.00197     0.00284
             16  N  2  S      0.99787     0.98495
             17  N  2  S      0.41282     0.24530
             18  N  2  X      0.38687     0.34165
             19  N  2  Y      0.39829     0.34949
             20  N  2  Z      0.36403     0.32061
             21  N  2  S      0.19541     0.13029
             22  N  2  X      0.09119     0.16808
             23  N  2  Y      0.07036     0.17028
             24  N  2  Z      0.11391     0.18142
             25  N  2 XX      0.01875     0.09580
             26  N  2 YY      0.02821     0.11438
             27  N  2 ZZ      0.00778     0.07858
             28  N  2 XY      0.02331     0.04855
             29  N  2 XZ      0.02396     0.04574
             30  N  2 YZ      0.01834     0.03742
             31  N  3  S      0.99787     0.98495
             32  N  3  S      0.41282     0.24530
             33  N  3  X      0.38687     0.34165
             34  N  3  Y      0.39829     0.34949
             35  N  3  Z      0.36403     0.32061
             36  N  3  S      0.19541     0.13029
             37  N  3  X      0.09119     0.16808
             38  N  3  Y      0.07036     0.17028
             39  N  3  Z      0.11391     0.18142
             40  N  3 XX      0.01875     0.09580
             41  N  3 YY      0.02821     0.11438
             42  N  3 ZZ      0.00778     0.07858
             43  N  3 XY      0.02331     0.04855
             44  N  3 XZ      0.02396     0.04574
             45  N  3 YZ      0.01834     0.03742
             46  O  4  S      0.99786     0.98859
             47  O  4  S      0.46467     0.36393
             48  O  4  X      0.46844     0.44530
             49  O  4  Y      0.44358     0.41984
             50  O  4  Z      0.50274     0.48040
             51  O  4  S      0.49940     0.23436
             52  O  4  X      0.23750     0.28115
             53  O  4  Y      0.23990     0.27801
             54  O  4  Z      0.30933     0.31710
             55  O  4 XX      0.00647     0.09188
             56  O  4 YY      0.00668     0.09225
             57  O  4 ZZ      0.00091     0.08737
             58  O  4 XY      0.00821     0.01580
             59  O  4 XZ      0.00411     0.00618
             60  O  4 YZ      0.00311     0.00504
             61  O  5  S      0.99786     0.98859
             62  O  5  S      0.46467     0.36393
             63  O  5  X      0.46844     0.44530
             64  O  5  Y      0.44358     0.41984
             65  O  5  Z      0.50274     0.48040
             66  O  5  S      0.49940     0.23436
             67  O  5  X      0.23750     0.28115
             68  O  5  Y      0.23990     0.27801
             69  O  5  Z      0.30933     0.31710
             70  O  5 XX      0.00647     0.09188
             71  O  5 YY      0.00668     0.09225
             72  O  5 ZZ      0.00091     0.08737
             73  O  5 XY      0.00821     0.01580
             74  O  5 XZ      0.00411     0.00618
             75  O  5 YZ      0.00311     0.00504
             76  O  6  S      0.99786     0.98861
             77  O  6  S      0.46261     0.36388
             78  O  6  X      0.56140     0.53948
             79  O  6  Y      0.41367     0.38890
             80  O  6  Z      0.44042     0.41941
             81  O  6  S      0.50102     0.23610
             82  O  6  X      0.33549     0.33775
             83  O  6  Y      0.21251     0.26473
             84  O  6  Z      0.24917     0.28743
             85  O  6 XX      0.00159     0.08847
             86  O  6 YY      0.00889     0.09466
             87  O  6 ZZ      0.00493     0.09094
             88  O  6 XY      0.00313     0.00590
             89  O  6 XZ      0.00178     0.00368
             90  O  6 YZ      0.00800     0.01562
             91  O  7  S      0.99786     0.98861
             92  O  7  S      0.46261     0.36388
             93  O  7  X      0.56140     0.53948
             94  O  7  Y      0.41367     0.38890
             95  O  7  Z      0.44042     0.41941
             96  O  7  S      0.50102     0.23610
             97  O  7  X      0.33549     0.33775
             98  O  7  Y      0.21251     0.26473
             99  O  7  Z      0.24917     0.28743
            100  O  7 XX      0.00159     0.08847
            101  O  7 YY      0.00889     0.09466
            102  O  7 ZZ      0.00493     0.09094
            103  O  7 XY      0.00313     0.00590
            104  O  7 XZ      0.00178     0.00368
            105  O  7 YZ      0.00800     0.01562

          ----- MULLIKEN ATOMIC OVERLAP POPULATIONS -----
          (OFF-DIAGONAL ELEMENTS NEED TO BE MULTIPLIED BY 2)

             1           2           3           4           5

    1    3.9415138
    2    0.1034937   2.7366408
    3    0.1034937  -0.0231423   2.7366408
    4   -0.0569561   0.1703320   0.0003598   4.1264120
    5   -0.0569561   0.0003598   0.1703320  -0.0000683   4.1264120
    6   -0.0637711   0.1606898   0.0027073  -0.0475203   0.0003486
    7   -0.0637711   0.0027073   0.1606898   0.0003486  -0.0475203

             6           7

    6    4.1502942
    7   -0.0002606   4.1502942

          TOTAL MULLIKEN AND LOWDIN ATOMIC POPULATIONS
       ATOM         MULL.POP.    CHARGE          LOW.POP.     CHARGE
    1 N             3.907047    3.092953         3.909337    3.090663
    2 N             3.151081    3.848919         3.312558    3.687442
    3 N             3.151081    3.848919         3.312558    3.687442
    4 O             4.192908    3.807092         4.107214    3.892786
    5 O             4.192908    3.807092         4.107214    3.892786
    6 O             4.202488    3.797512         4.125560    3.874440
    7 O             4.202488    3.797512         4.125560    3.874440

          ---------------------
          ELECTROSTATIC MOMENTS
          ---------------------

 POINT   1           X           Y           Z (BOHR)    CHARGE
                -0.000000    0.000000    0.001981        0.00 (A.U.)
         DX          DY          DZ         /D/  (DEBYE)
     0.000000    0.000000   -1.220451    1.220451
 ...... END OF PROPERTY EVALUATION ......
 STEP CPU TIME =     0.01 TOTAL CPU TIME =        2.1 (    0.0 MIN)
 TOTAL WALL CLOCK TIME=        2.1 SECONDS, CPU UTILIZATION IS  99.05%

 GUGA CI OPTIONS      NRNFG     NPFLG
 ------------------------------------

 -DRT- TABLE          1         0
 TRANSFORMATION       1         0
 ENERGY MATRIX        1         0
 DIAGONALIZATION      1         0
 1E-DENSITY MATRIX    1         0
 2E-DENSITY MATRIX    0         0
 LAGRANGIAN MATRIX    0         0
------------------------------------

 -DRT- TABLE          0         0
 TRANSFORMATION   

          -----------------------     ----------------------------
          GUGA DISTINCT ROW TABLE     WRITTEN BY B.R.BROOKS,P.SAXE
          -----------------------     ----------------------------

      GROUP=C2           NPRT=       0
       FORS=       F   INTACT=       T
       FOCI=       F   MXNINT= 2000000
       SOCI=       F   MXNEME=   10000
     IEXCIT=       1

      -CORE-    -INTERNAL-  -EXTERNAL-
     NFZC=   7   NDOC=  19   NEXT=   0
     NMCC=   0   NAOS=   0   NFZV=   0
                 NBOS=   0
                 NALP=   1
                 NVAL=  78

 THE MAXIMUM ELECTRON EXCITATION WILL BE   1

 SYMMETRIES FOR THE   7 CORE,  98 ACTIVE,   0 EXTERNAL MO-S ARE
     CORE= B     A     B     A     B     A     A   
   ACTIVE= A     B     B     A     A     B     A     B     A     B   
           DOC   DOC   DOC   DOC   DOC   DOC   DOC   DOC   DOC   DOC 
   ACTIVE= A     B     A     B     A     B     A     A     B     B   
           DOC   DOC   DOC   DOC   DOC   DOC   DOC   DOC   DOC   ALP 
   ACTIVE= A     B     A     B     A     B     A     B     A     B   
           VAL   VAL   VAL   VAL   VAL   VAL   VAL   VAL   VAL   VAL 
   ACTIVE= B     A     A     B     A     B     A     B     A     A   
           VAL   VAL   VAL   VAL   VAL   VAL   VAL   VAL   VAL   VAL 
   ACTIVE= B     B     A     B     A     B     A     B     B     A   
           VAL   VAL   VAL   VAL   VAL   VAL   VAL   VAL   VAL   VAL 
   ACTIVE= A     B     A     B     A     B     B     A     A     B   
           VAL   VAL   VAL   VAL   VAL   VAL   VAL   VAL   VAL   VAL 
   ACTIVE= A     A     B     A     B     A     B     B     A     B   
           VAL   VAL   VAL   VAL   VAL   VAL   VAL   VAL   VAL   VAL 
   ACTIVE= B     A     A     B     A     B     A     A     B     B   
           VAL   VAL   VAL   VAL   VAL   VAL   VAL   VAL   VAL   VAL 
   ACTIVE= A     A     B     B     B     A     A     B     A     A   
           VAL   VAL   VAL   VAL   VAL   VAL   VAL   VAL   VAL   VAL 
   ACTIVE= B     A     B     A     B     B     A     A   
           VAL   VAL   VAL   VAL   VAL   VAL   VAL   VAL 

 MOLECULAR CHARGE          =    0
 NUMBER OF ALPHA ELECTRONS =   27
 NUMBER OF  BETA ELECTRONS =   26

 THE ELECTRONIC STATE IS  2-B   

 THE DISTINCT ROW TABLE HAS       279 ROWS.
  THE WAVEFUNCTION CONTAINS       790 WALKS (CSF-S).

 TOTAL NUMBER OF INTEGRALS =    6030334
 NUMBER OF INTEGRALS/GROUP =    2000000
 NUMBER OF INTEGRAL GROUPS =          4
 MAXIMUM RECORD SIZES ARE    4851 FOR UNIT 11     790 FOR UNIT 12
                          2000000 FOR UNIT 15 2000000 FOR UNIT 16
 ...... END OF -DRT- GENERATION ...... 
 STEP CPU TIME =     0.04 TOTAL CPU TIME =        2.1 (    0.0 MIN)
 TOTAL WALL CLOCK TIME=        2.1 SECONDS, CPU UTILIZATION IS  99.53%

     --------------------------------------------
     PARTIAL TWO ELECTRON INTEGRAL TRANSFORMATION
     --------------------------------------------

 NUMBER OF CORE MOLECULAR ORBITALS     =    7
 NUMBER OF OCCUPIED MOLECULAR ORBITALS =   27
 TOTAL NUMBER OF MOLECULAR ORBITALS    =  105
 TOTAL NUMBER OF ATOMIC ORBITALS       =  105
 THRESHOLD FOR KEEPING TRANSFORMED 2E- INTEGRALS = 1.000E-09
 AO INTEGRALS WILL BE READ IN FROM DISK...
 EVALUATING THE FROZEN CORE ENERGY...
 ----- FROZEN CORE ENERGY =      -516.1617273623

 PLAN A: REQUIREMENTS FOR FULLY IN-MEMORY TRANSFORMATION:
 # OF WORDS AVAILABLE =             15000000
 # OF WORDS NEEDED    =             11801837

 CHOOSING IN MEMORY PARTIAL TRANSFORMATION...
 TOTAL NUMBER OF TRANSFORMED 2E- INTEGRALS KEPT =      1107845
 ... END OF INTEGRAL TRANSFORMATION ...
 STEP CPU TIME =     2.08 TOTAL CPU TIME =        4.2 (    0.1 MIN)
 TOTAL WALL CLOCK TIME=        4.2 SECONDS, CPU UTILIZATION IS  99.53%

          ------------------------
          GUGA-CI INTEGRAL SORTING
          ------------------------

   8049800 WORDS NEEDED TO SORT        6030334 GUGA INTEGRALS IN MEMORY
  15000000 WORDS ARE AVAILABLE
 CHOOSING IN-MEMORY SORTING...
 IN CORE ALGORITHM SORTED           2451 NON-ZERO 1E- INTEGRALS
 IN CORE ALGORITHM SORTED        1107845 NON-ZERO 2E- INTEGRALS
 ...... END OF INTEGRAL SORTING ...... 
 STEP CPU TIME =     0.07 TOTAL CPU TIME =        4.3 (    0.1 MIN)
 TOTAL WALL CLOCK TIME=        4.3 SECONDS, CPU UTILIZATION IS  99.53%

 -------------------------     ---------------------------------------
 ENERGY MATRIX CALCULATION     WRITTEN BY B.R.BROOKS,W.D.LAIDIG,P.SAXE
 -------------------------     ---------------------------------------

 COMPUTING THE HAMILTONIAN FOR THE       790 CSF-S...

      514044 IS THE TOTAL NUMBER OF GENERATED LOOPS
      514044 WERE CREATED BY THE LOOP-DRIVEN ALGORITHM
           0 WERE CREATED IMPLICITLY

      514043 IS THE TOTAL NUMBER OF PROCESSED LOOPS
       12569     DIAGONAL LOOPS ARE STORED ON WORK15 IN     2 BUFFERS OF  10000 ELEMENTS.
      501474 OFF DIAGONAL LOOPS ARE STORED ON WORK16 IN    51 BUFFERS OF  10000 ELEMENTS.
 ...... END OF ENERGY MATRIX CALCULATION ...... 
 STEP CPU TIME =     0.05 TOTAL CPU TIME =        4.3 (    0.1 MIN)
 TOTAL WALL CLOCK TIME=        4.3 SECONDS, CPU UTILIZATION IS  99.54%

          -----------------------------------------
          DAVIDSON METHOD CI-MATRIX DIAGONALIZATION
                   WRITTEN BY STEVE ELBERT
          -----------------------------------------
 NUMBER OF STATES REQUESTED =     1
 MAX. NUMB. OF EXPAN. VEC   =    30
 MAX. NUMB. IMPROVED STATES =     1
 MAX. NUMB. OF ITERATIONS   =    50
 CONVERGENCE CRITERION      =    1.0E-06

 CHOOSING TO SOLVE SECULAR EQUATION IN MEMORY
 NUMBER OF WORDS AVAILABLE =   15000000
 NUMBER OF WORDS USED      =     402685
 ENERGY MATRIX BUFFER SIZE =      10000

 ITER. NO.JUST IMPROVED    ENERGY AND STATE
   0  50(MAX.TOL.STATE)   -462.414536925  1
   1   6  0.79024849  5   -462.414536925  1
   2   5  0.59136649  3   -462.414536925  1
   3   4  0.14659175  3   -462.414536925  1
   4   3  0.02731937  2   -462.414536925  1
   5   1  0.00000000  1   -462.414536925  1
 SOLUTION FOUND WITH INDIRECT METHOD

 STATE #    1  ENERGY =    -462.414536925

      CSF      COEF    OCCUPANCY (IGNORING CORE)
      ---      ----    --------- --------- -----
       10    1.000000  22222222222222222221000000000000000000000000000000
                       000000000000000000000000000000000000000000000000
 ...... END OF CI-MATRIX DIAGONALIZATION ......
 STEP CPU TIME =     0.01 TOTAL CPU TIME =        4.3 (    0.1 MIN)
 TOTAL WALL CLOCK TIME=        4.4 SECONDS, CPU UTILIZATION IS  99.31%

          --------------------------------------
          CI DENSITY MATRIX AND NATURAL ORBITALS
          --------------------------------------
 PROPERTIES WILL BE COMPUTED FOR STATE -IROOT-   1 WITH E=     -462.4145369251
 NFLGDM=   1
 NWORD=         0  IBLOCK=   0
 NUMBER OF STATES         =      1
 NUMBER OF CONFIGURATIONS =    790

          CI EIGENSTATE    1 TOTAL ENERGY =     -462.4145369251
          DENSITY MATRIX OF STATE   1 SAVED FOR PROPERTY ANALYSIS

 ERROR - MO  26 WAS NOT ASSIGNED A SYMMETRY.
 MOST LIKELY CAUSE IS NULL ORBITAL VECTOR.
 EXECUTION OF GAMESS TERMINATED -ABNORMALLY- AT Fri Jun  2 02:56:47 2017
             11801837  WORDS OF DYNAMIC MEMORY USED
 STEP CPU TIME =     0.02 TOTAL CPU TIME =        4.3 (    0.1 MIN)
 TOTAL WALL CLOCK TIME=        4.4 SECONDS, CPU UTILIZATION IS  99.54%
 DDI Process 0: error code 911
 ddikick.x: application process 0 quit unexpectedly.
 ddikick.x: Fatal error detected.
 The error is most likely to be in the application, so check for
 input errors, disk space, memory needs, application bugs, etc.
 ddikick.x will now clean up all processes, and exit...
 ddikick.x: Sending kill signal to DDI processes.
 ddikick.x: Execution terminated due to error(s).
unset echo
----- accounting info -----
Files used on the master node compute-0-6.local were:
-rw-rw-r-- 1 sarom sarom     2982 Jun  2 02:56 /scratch/n3o4-gbt.F05
-rw-rw-r-- 1 sarom sarom 76686816 Jun  2 02:56 /scratch/n3o4-gbt.F08
-rw-rw-r-- 1 sarom sarom 13360000 Jun  2 02:56 /scratch/n3o4-gbt.F09
-rw-rw-r-- 1 sarom sarom  3141120 Jun  2 02:56 /scratch/n3o4-gbt.F10
-rw-rw-r-- 1 sarom sarom   392856 Jun  2 02:56 /scratch/n3o4-gbt.F11
-rw-rw-r-- 1 sarom sarom     6512 Jun  2 02:56 /scratch/n3o4-gbt.F12
-rw-rw-r-- 1 sarom sarom 64000032 Jun  2 02:56 /scratch/n3o4-gbt.F14
-rw-rw-r-- 1 sarom sarom   326560 Jun  2 02:56 /scratch/n3o4-gbt.F15
-rw-rw-r-- 1 sarom sarom 10201016 Jun  2 02:56 /scratch/n3o4-gbt.F16
rm: cannot remove `/scratch/sarom': Is a directory
rm: cannot remove `/scratch/tmp': Is a directory
ls: No match.
ls: No match.
ls: No match.
Fri Jun  2 02:56:49 CDT 2017
0.248u 0.175s 0:06.89 5.9%	0+0k 8+352io 0pf+0w
/opt/gridengine/default/spool/compute-0-6/active_jobs/23790.1/pe_hostfile compute-0-6.local
