----- GAMESS execution script 'rungms' -----
This job is running on host compute-3-0
under operating system Linux at Mon Nov 28 23:29:29 CST 2016
Available scratch disk space (Kbyte units) at beginning of the job is
Filesystem            1K-blocks       Used  Available Use% Mounted on
bolt.local:/export/home/sarom
                     9590469632 1553275904 7550025728  18% /home/sarom
Copying input file niamm.inp to your run's scratch directory...
cp niamm.inp .//niamm.F05
unset echo
/home/sarom/gamessGH/ddikick.x /home/sarom/gamessGH/gamess.00.x niamm -ddi 1 1 localhost -scr ./

 Distributed Data Interface kickoff program.
 Initiating 1 compute processes on 1 nodes to run the following command:
 /home/sarom/gamessGH/gamess.00.x niamm 

          ******************************************************
          *         GAMESS VERSION = 18 AUG 2016 (R1)          *
          *             FROM IOWA STATE UNIVERSITY             *
          * M.W.SCHMIDT, K.K.BALDRIDGE, J.A.BOATZ, S.T.ELBERT, *
          *   M.S.GORDON, J.H.JENSEN, S.KOSEKI, N.MATSUNAGA,   *
          *          K.A.NGUYEN, S.J.SU, T.L.WINDUS,           *
          *       TOGETHER WITH M.DUPUIS, J.A.MONTGOMERY       *
          *         J.COMPUT.CHEM.  14, 1347-1363(1993)        *
          **************** 64 BIT LINUX VERSION ****************

  SINCE 1993, STUDENTS AND POSTDOCS WORKING AT IOWA STATE UNIVERSITY
  AND ALSO IN THEIR VARIOUS JOBS AFTER LEAVING ISU HAVE MADE IMPORTANT
  CONTRIBUTIONS TO THE CODE:
     IVANA ADAMOVIC, CHRISTINE AIKENS, YURI ALEXEEV, POOJA ARORA,
     ANDREY ASADCHEV, ROB BELL, PRADIPTA BANDYOPADHYAY, JONATHAN BENTZ,
     BRETT BODE, KURT BRORSEN, CALEB CARLIN, GALINA CHABAN, WEI CHEN,
     CHEOL HO CHOI, PAUL DAY, ALBERT DEFUSCO, NUWAN DESILVA, TIM DUDLEY,
     DMITRI FEDOROV, GRAHAM FLETCHER, MARK FREITAG, KURT GLAESEMANN,
     DAN KEMP, GRANT MERRILL, NORIYUKI MINEZAWA, JONATHAN MULLIN,
     TAKESHI NAGATA, SEAN NEDD, HEATHER NETZLOFF, BOSILJKA NJEGIC, RYAN OLSON,
     MIKE PAK, SPENCER PRUITT, LUKE ROSKOP, JIM SHOEMAKER, LYUDMILA SLIPCHENKO,
     TONY SMITH, SAROM SOK LEANG, JIE SONG, TETSUYA TAKETSUGU, SIMON WEBB,
     PENG XU, SOOHAENG YOO, FEDERICO ZAHARIEV

  ADDITIONAL CODE HAS BEEN PROVIDED BY COLLABORATORS IN OTHER GROUPS:
     IOWA STATE UNIVERSITY:
          JOE IVANIC, AARON WEST, LAIMUTIS BYTAUTAS, KLAUS RUEDENBERG
     UNIVERSITY OF TOKYO: KIMIHIKO HIRAO, TAKAHITO NAKAJIMA,
          TAKAO TSUNEDA, MUNEAKI KAMIYA, SUSUMU YANAGISAWA,
          KIYOSHI YAGI, MAHITO CHIBA, SEIKEN TOKURA, NAOAKI KAWAKAMI
     UNIVERSITY OF AARHUS: FRANK JENSEN
     UNIVERSITY OF IOWA: VISVALDAS KAIRYS, HUI LI
     NATIONAL INST. OF STANDARDS AND TECHNOLOGY: WALT STEVENS, DAVID GARMER
     UNIVERSITY OF PISA: BENEDETTA MENNUCCI, JACOPO TOMASI
     UNIVERSITY OF MEMPHIS: HENRY KURTZ, PRAKASHAN KORAMBATH
     UNIVERSITY OF ALBERTA: TOBY ZENG, MARIUSZ KLOBUKOWSKI
     UNIVERSITY OF NEW ENGLAND: MARK SPACKMAN
     MIE UNIVERSITY: HIROAKI UMEDA
     NAT. INST. OF ADVANCED INDUSTRIAL SCIENCE AND TECHNOLOGY: KAZUO KITAURA
     MICHIGAN STATE UNIVERSITY:
          KAROL KOWALSKI, MARTA WLOCH, JEFFREY GOUR, JESSE LUTZ,
          WEI LI, PIOTR PIECUCH
     UNIVERSITY OF SILESIA: MONIKA MUSIAL, STANISLAW KUCHARSKI
     FACULTES UNIVERSITAIRES NOTRE-DAME DE LA PAIX:
          OLIVIER QUINET, BENOIT CHAMPAGNE
     UNIVERSITY OF CALIFORNIA - SANTA BARBARA: BERNARD KIRTMAN
     INSTITUTE FOR MOLECULAR SCIENCE:
          KAZUYA ISHIMURA, MICHIO KATOUDA, AND SHIGERU NAGASE
     UNIVERSITY OF NOTRE DAME: ANNA POMOGAEVA, DAN CHIPMAN
     KYUSHU UNIVERSITY:
          HARUYUKI NAKANO,
          FENG LONG GU, JACEK KORCHOWIEC, MARCIN MAKOWSKI, AND YURIKO AOKI,
          HIROTOSHI MORI AND EISAKU MIYOSHI
     PENNSYLVANIA STATE UNIVERSITY:
          TZVETELIN IORDANOV, CHET SWALINA, JONATHAN SKONE,
          SHARON HAMMES-SCHIFFER
     WASEDA UNIVERSITY:
          MASATO KOBAYASHI, TOMOKO AKAMA, TSUGUKI TOUMA,
          TAKESHI YOSHIKAWA, YASUHIRO IKABATA, JUNJI SEINO,
          YUYA NAKAJIMA, HIROMI NAKAI
     NANJING UNIVERSITY: SHUHUA LI
     UNIVERSITY OF NEBRASKA:
          PEIFENG SU, DEJUN SI, NANDUN THELLAMUREGE, YALI WANG, HUI LI
     UNIVERSITY OF ZURICH: ROBERTO PEVERATI, KIM BALDRIDGE
     N. COPERNICUS UNIVERSITY AND JACKSON STATE UNIVERSITY:
          MARIA BARYSZ
     UNIVERSITY OF COPENHAGEN: Jimmy Kromann, CASPER STEINMANN
     TOKYO INSTITUTE OF TECHNOLOGY: HIROYA NAKATA
     NAGOYA UNIVERSITY: YOSHIO NISHIMOTO, STEPHAN IRLE
     MOSCOW STATE UNIVERSITY: VLADIMIR MIRONOV

 EXECUTION OF GAMESS BEGUN Mon Nov 28 23:29:29 2016

            ECHO OF THE FIRST FEW INPUT CARDS -
 INPUT CARD>!  Ni(NH3)6 +2 ion ... 118 AOs are present in the ECP run.                      
 INPUT CARD>!  an illustration of possible symmetries for hexa-NH3 type complexes           
 INPUT CARD>!                                                                               
 INPUT CARD>!  FINAL E= -236.5644823078, 25 iters, with CPHF method results:                
 INPUT CARD>!    AO-driven: FREQ= 56.31(e), 73.14(e), ... 3739.10(e)  (15 iters)            
 INPUT CARD>!    MO-driven: FREQ= 59.30(e), 76.32(e), ... 3738.97(e)                        
 INPUT CARD>!                                                                               
 INPUT CARD>!  This input came from Thailand, originally, in S6 symmetry.                   
 INPUT CARD>!  The S6 hessian has six small imaginary frequencies, so the                   
 INPUT CARD>!  symmetry must be something else.                                             
 INPUT CARD>!  In 1995, I spotted JACS 117,7554(1995) for a picture of D3d.                 
 INPUT CARD>!  In 2011, with the aid of the big group theory book, and                      
 INPUT CARD>!  some diligence, the molecule is found to be D3 symmetric.                    
 INPUT CARD>!  ROHF convergence is a little tricky in the D3 group.                         
 INPUT CARD>!                                                                               
 INPUT CARD>!  The AO/MO run takes 173/57 seconds on a 2.66 GHz Cloverton (5 Dec 2014)      
 INPUT CARD>!                                                                               
 INPUT CARD> $contrl scftyp=rohf mult=3 icharg=2 runtyp=hessian pp=sbkjc $end               
 INPUT CARD>                                                                                
 INPUT CARD>!            MO-driven hessian code need not be direct mode.                    
 INPUT CARD>x$cphf   cphf=mo $end                                                           
 INPUT CARD>!            AO-driven code is the default, and must be forced direct by user.  
 INPUT CARD> $cphf   cphf=ao $end                                                           
 INPUT CARD> $scf    dirscf=.true. $end                                                     
 INPUT CARD>                                                                                
 INPUT CARD> $system mwords=10 $end                                                         
 INPUT CARD> $basis  gbasis=sbkjc $end                                                      
 INPUT CARD> $scf    diis=.true. ethrsh=1.0 rstrct=.true. $end                              
 INPUT CARD> $guess  guess=huckel $end                                                      
 INPUT CARD>                                                                                
 INPUT CARD> $data                                                                          
 INPUT CARD>hexa-amine complex [Ni(NH3)6]+2...e**2 configuration...3-A-2 state              
 INPUT CARD>Dn 3                                                                            
 INPUT CARD>                                                                                
 INPUT CARD>NI         28.0   0.0000000000   0.0000000000   0.0000000000                    
 INPUT CARD>N           7.0  -0.0533991852   1.8352121441   1.3029791914                    
 INPUT CARD>H           1.0  -1.0151689035   2.1216450857   1.4922454550                    
 INPUT CARD>H           1.0   0.3941849994   1.6839024840   2.2082476333                    
 INPUT CARD>H           1.0   0.4120834167   2.6368606545   0.8749415603                    
 INPUT CARD> $end                                                                           
 INPUT CARD>                                                                                
 INPUT CARD>Here is a S6 structure, E= -236.5627768482, six imag. frequencies               
 INPUT CARD>Looking at it reveals the mirror planes of D3 are present, as                   
 INPUT CARD>well as exactly matching the D3d input just below.  Using this                  
 INPUT CARD>is just exploiting S6 being a proper subgroup of D3d.                           
 INPUT CARD>Note that S6 is input as "Sn2 3"                                                
 INPUT CARD>NI         28.0   0.0000000000   0.0000000000   0.0000000000                    
 INPUT CARD>N           7.0   1.2891279625   1.2891317280   1.3268178633                    
 INPUT CARD>H           1.0   2.2858608734   1.1259049564   1.1772221814                    
 INPUT CARD>H           1.0   1.1259189951   2.2858687600   1.1772292423                    
   10000000 WORDS OF MEMORY AVAILABLE

     BASIS OPTIONS
     -------------
     GBASIS=SBKJC        IGAUSS=       0      POLAR=NONE    
     NDFUNC=       0     NFFUNC=       0     DIFFSP=       F
     NPFUNC=       0      DIFFS=       F     BASNAM=        


     RUN TITLE
     ---------
 hexa-amine complex [Ni(NH3)6]+2...e**2 configuration...3-A-2 state              

 THE POINT GROUP OF THE MOLECULE IS DN      
 THE ORDER OF THE PRINCIPAL AXIS IS     3

 ATOM      ATOMIC                      COORDINATES (BOHR)
           CHARGE         X                   Y                   Z
 NI         28.0     0.0000000000        0.0000000000        0.0000000000
 N           7.0    -2.9529628263       -1.8214145154        2.4622736394
 N           7.0     3.0538726543       -1.6466335663        2.4622736394
 N           7.0    -0.1009098280       -3.4680480817       -2.4622736394
 N           7.0     3.0538726543        1.6466335663       -2.4622736394
 N           7.0    -2.9529628263        1.8214145154       -2.4622736394
 N           7.0    -0.1009098280        3.4680480817        2.4622736394
 H           1.0    -2.5129842452       -3.6660393190        2.8199350164
 H           1.0     4.4313753041       -0.3432885362        2.8199350164
 H           1.0    -1.9183910589       -4.0093278552       -2.8199350164
 H           1.0     4.4313753041        0.3432885362       -2.8199350164
 H           1.0    -2.5129842452        3.6660393190       -2.8199350164
 H           1.0    -1.9183910589        4.0093278552        2.8199350164
 H           1.0    -3.1282426271       -0.9459534011        4.1729829400
 H           1.0     2.3833409897       -2.2361608837        4.1729829400
 H           1.0     0.7449016373       -3.1821142848       -4.1729829400
 H           1.0     2.3833409897        2.2361608837       -4.1729829400
 H           1.0    -3.1282426271        0.9459534011       -4.1729829400
 H           1.0     0.7449016373        3.1821142848        4.1729829400
 H           1.0    -4.7047185512       -1.8170766436        1.6533998042
 H           1.0     3.9259938096       -3.1658674612        1.6533998042
 H           1.0     0.7787247416       -4.9829441048       -1.6533998042
 H           1.0     3.9259938096        3.1658674612       -1.6533998042
 H           1.0    -4.7047185512        1.8170766436       -1.6533998042
 H           1.0     0.7787247416        4.9829441048        1.6533998042

          INTERNUCLEAR DISTANCES (ANGS.)
          ------------------------------

                1 NI         2 N          3 N          4 N          5 N     

   1 NI      0.0000000    2.2513573 *  2.2513573 *  2.2513573 *  2.2513573 *
   2 N       2.2513573 *  0.0000000    3.1800260    3.1349799    4.5014479  
   3 N       2.2513573 *  3.1800260    0.0000000    3.2414588    3.1349799  
   4 N       2.2513573 *  3.1349799    3.2414588    0.0000000    3.1800260  
   5 N       2.2513573 *  4.5014479    3.1349799    3.1800260    0.0000000  
   6 N       2.2513573 *  3.2414588    4.5014479    3.1800260    3.1800260  
   7 N       2.2513573 *  3.1800260    3.1800260    4.5014479    3.2414588  
   8 H       2.7854519 *  1.0212084 *  3.1394003    3.0746533    4.9391296  
   9 H       2.7854519 *  3.9896325    1.0212084 *  4.0372950    3.0746533  
  10 H       2.7854519 *  3.0746533    4.0372950    1.0212084 *  3.9896325  
  11 H       2.7854519 *  4.9391296    3.0746533    3.1394003    1.0212084 *
  12 H       2.7854519 *  4.0372950    4.9391296    3.9896325    3.1394003  
  13 H       2.7854519 *  3.1394003    3.9896325    4.9391296    4.0372950  
  14 H       2.8048649 *  1.0211450 *  3.4145684    4.0836693    4.9913138  
  15 H       2.8048649 *  2.9735185 *  1.0211450 *  3.8055048    4.0836693  
  16 H       2.8048649 *  4.0836693    3.8055048    1.0211450 *  2.9735185 *
  17 H       2.8048649 *  4.9913138    4.0836693    3.4145684    1.0211450 *
  18 H       2.8048649 *  3.8055048    4.9913138    2.9735185 *  3.4145684  
  19 H       2.8048649 *  3.4145684    2.9735185 *  4.9913138    3.8055048  
  20 H       2.8086241 *  1.0210439 *  4.1289075    3.3825782    4.9959432  
  21 H       2.8086241 *  3.7336774    1.0210439 *  3.0512029    3.3825782  
  22 H       2.8086241 *  3.3825782    3.0512029    1.0210439 *  3.7336774  
  23 H       2.8086241 *  4.9959432    3.3825782    4.1289075    1.0210439 *
  24 H       2.8086241 *  3.0512029    4.9959432    3.7336774    4.1289075  
  25 H       2.8086241 *  4.1289075    3.7336774    4.9959432    3.0512029  

                6 N          7 N          8 H          9 H         10 H     

   1 NI      2.2513573 *  2.2513573 *  2.7854519 *  2.7854519 *  2.7854519 *
   2 N       3.2414588    3.1800260    1.0212084 *  3.9896325    3.0746533  
   3 N       4.5014479    3.1800260    3.1394003    1.0212084 *  4.0372950  
   4 N       3.1800260    4.5014479    3.0746533    4.0372950    1.0212084 *
   5 N       3.1800260    3.2414588    4.9391296    3.0746533    3.9896325  
   6 N       0.0000000    3.1349799    4.0372950    4.9391296    3.1394003  
   7 N       3.1349799    0.0000000    3.9896325    3.1394003    4.9391296  
   8 H       4.0372950    3.9896325    0.0000000    4.0737989    3.0065243  
   9 H       4.9391296    3.1394003    4.0737989    0.0000000    4.8950329  
  10 H       3.1394003    4.9391296    3.0065243    4.8950329    0.0000000  
  11 H       3.9896325    4.0372950    5.1877449    3.0065243    4.0737989  
  12 H       1.0212084 *  3.0746533    4.8950329    5.1877449    4.0737989  
  13 H       3.0746533    1.0212084 *  4.0737989    4.0737989    5.1877449  
  14 H       3.8055048    2.9735185 *  1.6402915 *  4.0764433    4.0904034  
  15 H       4.9913138    3.4145684    2.7925968 *  1.6402915 *  4.4447714  
  16 H       3.4145684    4.9913138    4.0904034    4.4447714    1.6402915 *
  17 H       2.9735185 *  3.8055048    5.4920051    4.0904034    4.0764433  
  18 H       1.0211450 *  4.0836693    4.4447714    5.4920051    2.7925968 *
  19 H       4.0836693    1.0211450 *  4.0764433    2.7925968 *  5.4920051  
  20 H       3.0512029    3.7336774    1.6381576 *  4.9358670    3.0204995  
  21 H       4.9959432    4.1289075    3.4729276    1.6381576 *  3.9201636  
  22 H       4.1289075    4.9959432    3.0204995    3.9201636    1.6381576 *
  23 H       3.7336774    3.0512029    5.5030901    3.0204995    4.9358670  
  24 H       1.0210439 *  3.3825782    3.9201636    5.5030901    3.4729276  
  25 H       3.3825782    1.0210439 *  4.9358670    3.4729276    5.5030901  

               11 H         12 H         13 H         14 H         15 H     

   1 NI      2.7854519 *  2.7854519 *  2.7854519 *  2.8048649 *  2.8048649 *
   2 N       4.9391296    4.0372950    3.1394003    1.0211450 *  2.9735185 *
   3 N       3.0746533    4.9391296    3.9896325    3.4145684    1.0211450 *
   4 N       3.1394003    3.9896325    4.9391296    4.0836693    3.8055048  
   5 N       1.0212084 *  3.1394003    4.0372950    4.9913138    4.0836693  
   6 N       3.9896325    1.0212084 *  3.0746533    3.8055048    4.9913138  
   7 N       4.0372950    3.0746533    1.0212084 *  2.9735185 *  3.4145684  
   8 H       5.1877449    4.8950329    4.0737989    1.6402915 *  2.7925968 *
   9 H       3.0065243    5.1877449    4.0737989    4.0764433    1.6402915 *
  10 H       4.0737989    4.0737989    5.1877449    4.0904034    4.4447714  
  11 H       0.0000000    4.0737989    4.8950329    5.4920051    4.0904034  
  12 H       4.0737989    0.0000000    3.0065243    4.4447714    5.4920051  
  13 H       4.8950329    3.0065243    0.0000000    2.7925968 *  4.0764433  
  14 H       5.4920051    4.4447714    2.7925968 *  0.0000000    2.9954512 *
  15 H       4.0904034    5.4920051    4.0764433    2.9954512 *  0.0000000  
  16 H       2.7925968 *  4.0764433    5.4920051    5.0106354    4.5285472  
  17 H       1.6402915 *  2.7925968 *  4.4447714    5.5540562    5.0106354  
  18 H       4.0764433    1.6402915 *  4.0904034    4.5285472    5.5540562  
  19 H       4.4447714    4.0904034    1.6402915 *  2.9954512 *  2.9954512 *
  20 H       5.5030901    3.9201636    3.4729276    1.6389493 *  3.9869395  
  21 H       3.0204995    5.5030901    4.9358670    4.1343128    1.6389493 *
  22 H       3.4729276    4.9358670    5.5030901    4.2830164    3.5128102  
  23 H       1.6381576 *  3.4729276    3.9201636    5.3080477    4.2830164  
  24 H       4.9358670    1.6381576 *  3.0204995    3.5128102    5.3080477  
  25 H       3.9201636    3.0204995    1.6381576 *  3.9869395    4.1343128  

               16 H         17 H         18 H         19 H         20 H     

   1 NI      2.8048649 *  2.8048649 *  2.8048649 *  2.8048649 *  2.8086241 *
   2 N       4.0836693    4.9913138    3.8055048    3.4145684    1.0210439 *
   3 N       3.8055048    4.0836693    4.9913138    2.9735185 *  4.1289075  
   4 N       1.0211450 *  3.4145684    2.9735185 *  4.9913138    3.3825782  
   5 N       2.9735185 *  1.0211450 *  3.4145684    3.8055048    4.9959432  
   6 N       3.4145684    2.9735185 *  1.0211450 *  4.0836693    3.0512029  
   7 N       4.9913138    3.8055048    4.0836693    1.0211450 *  3.7336774  
   8 H       4.0904034    5.4920051    4.4447714    4.0764433    1.6381576 *
   9 H       4.4447714    4.0904034    5.4920051    2.7925968 *  4.9358670  
  10 H       1.6402915 *  4.0764433    2.7925968 *  5.4920051    3.0204995  
  11 H       2.7925968 *  1.6402915 *  4.0764433    4.4447714    5.5030901  
  12 H       4.0764433    2.7925968 *  1.6402915 *  4.0904034    3.9201636  
  13 H       5.4920051    4.4447714    4.0904034    1.6402915 *  3.4729276  
  14 H       5.0106354    5.5540562    4.5285472    2.9954512 *  1.6389493 *
  15 H       4.5285472    5.0106354    5.5540562    2.9954512 *  3.9869395  
  16 H       0.0000000    2.9954512 *  2.9954512 *  5.5540562    4.2830164  
  17 H       2.9954512 *  0.0000000    2.9954512 *  4.5285472    5.3080477  
  18 H       2.9954512 *  2.9954512 *  0.0000000    5.0106354    3.5128102  
  19 H       5.5540562    4.5285472    5.0106354    0.0000000    4.1343128  
  20 H       4.2830164    5.3080477    3.5128102    4.1343128    0.0000000  
  21 H       3.5128102    4.2830164    5.3080477    3.9869395    4.6226119  
  22 H       1.6389493 *  4.1343128    3.9869395    5.3080477    3.7800369  
  23 H       3.9869395    1.6389493 *  4.1343128    3.5128102    5.5564582  
  24 H       4.1343128    3.9869395    1.6389493 *  4.2830164    2.6000861 *
  25 H       5.3080477    3.5128102    4.2830164    1.6389493 *  4.6226119  

               21 H         22 H         23 H         24 H         25 H     

   1 NI      2.8086241 *  2.8086241 *  2.8086241 *  2.8086241 *  2.8086241 *
   2 N       3.7336774    3.3825782    4.9959432    3.0512029    4.1289075  
   3 N       1.0210439 *  3.0512029    3.3825782    4.9959432    3.7336774  
   4 N       3.0512029    1.0210439 *  4.1289075    3.7336774    4.9959432  
   5 N       3.3825782    3.7336774    1.0210439 *  4.1289075    3.0512029  
   6 N       4.9959432    4.1289075    3.7336774    1.0210439 *  3.3825782  
   7 N       4.1289075    4.9959432    3.0512029    3.3825782    1.0210439 *
   8 H       3.4729276    3.0204995    5.5030901    3.9201636    4.9358670  
   9 H       1.6381576 *  3.9201636    3.0204995    5.5030901    3.4729276  
  10 H       3.9201636    1.6381576 *  4.9358670    3.4729276    5.5030901  
  11 H       3.0204995    3.4729276    1.6381576 *  4.9358670    3.9201636  
  12 H       5.5030901    4.9358670    3.4729276    1.6381576 *  3.0204995  
  13 H       4.9358670    5.5030901    3.9201636    3.0204995    1.6381576 *
  14 H       4.1343128    4.2830164    5.3080477    3.5128102    3.9869395  
  15 H       1.6389493 *  3.5128102    4.2830164    5.3080477    4.1343128  
  16 H       3.5128102    1.6389493 *  3.9869395    4.1343128    5.3080477  
  17 H       4.2830164    4.1343128    1.6389493 *  3.9869395    3.5128102  
  18 H       5.3080477    3.9869395    4.1343128    1.6389493 *  4.2830164  
  19 H       3.9869395    5.3080477    3.5128102    4.2830164    1.6389493 *
  20 H       4.6226119    3.7800369    5.5564582    2.6000861 *  4.6226119  
  21 H       0.0000000    2.6000861 *  3.7800369    5.5564582    4.6226119  
  22 H       2.6000861 *  0.0000000    4.6226119    4.6226119    5.5564582  
  23 H       3.7800369    4.6226119    0.0000000    4.6226119    2.6000861 *
  24 H       5.5564582    4.6226119    4.6226119    0.0000000    3.7800369  
  25 H       4.6226119    5.5564582    2.6000861 *  3.7800369    0.0000000  

  * ... LESS THAN  3.000


     ATOMIC BASIS SET
     ----------------
 THE CONTRACTED PRIMITIVE FUNCTIONS HAVE BEEN UNNORMALIZED
 THE CONTRACTED BASIS FUNCTIONS ARE NOW NORMALIZED TO UNITY

  SHELL TYPE  PRIMITIVE        EXPONENT          CONTRACTION COEFFICIENT(S)

 NI        

      1   L       1            89.3600000   -0.005220001486   -0.007529000848
      1   L       2             7.2650000   -0.683993194749   -0.445862050210
      1   L       3             5.5720000    0.251050071480    0.706364079547
      1   L       4             1.8500000    1.236451352046    0.753606084867

      2   D       5            58.7300000    0.026245993132
      2   D       6            16.7100000    0.150333960664
      2   D       7             5.7830000    0.413384891834
      2   D       8             2.0640000    0.604113841927

      3   D       9             0.6752000    1.000000000000

      4   L      10             3.2350000   -0.063417993313    0.001136000055
      4   L      11             0.1295000    1.013236893168    0.999895048719

      5   L      12             0.0432700    1.000000000000    1.000000000000

      6   L      13             0.6594000    1.000000000000    1.000000000000

      7   D      14             0.1825000    1.000000000000

 N         

     18   L      15             6.4030000   -0.194941867167    0.129399816130
     18   L      16             1.5800000    0.076719508024    0.415704420918
     18   L      17             0.5094000    1.001292952691    0.609791625782

     19   L      18             0.1623000    1.000000000000    1.000000000000

 H         

     30   S      19            13.0077340    0.033494604338
     30   S      20             1.9620794    0.234726953484
     30   S      21             0.4445290    0.813757326146

     31   S      22             0.1219492    1.000000000000

 H         

     42   S      23            13.0077340    0.033494604338
     42   S      24             1.9620794    0.234726953484
     42   S      25             0.4445290    0.813757326146

     43   S      26             0.1219492    1.000000000000

 H         

     54   S      27            13.0077340    0.033494604338
     54   S      28             1.9620794    0.234726953484
     54   S      29             0.4445290    0.813757326146

     55   S      30             0.1219492    1.000000000000

 TOTAL NUMBER OF BASIS SET SHELLS             =   55
 NUMBER OF CARTESIAN GAUSSIAN BASIS FUNCTIONS =  118
 NUMBER OF ELECTRONS                          =   86
 CHARGE OF MOLECULE                           =    2
 SPIN MULTIPLICITY                            =    3
 NUMBER OF OCCUPIED ORBITALS (ALPHA)          =   44
 NUMBER OF OCCUPIED ORBITALS (BETA )          =   42
 TOTAL NUMBER OF ATOMS                        =   25
 THE NUCLEAR REPULSION ENERGY IS      664.7889323937
 NOTE THIS RUN IS USING CORE POTENTIALS, AND THE NUMBER OF ELECTRONS,
 OCCUPIED ORBITALS, AND NUCLEAR REPULSION ENERGY WILL BE ADJUSTED BELOW
 AFTER REMOVAL OF THE CORE CHARGES.

     $CONTRL OPTIONS
     ---------------
 SCFTYP=ROHF         RUNTYP=HESSIAN      EXETYP=RUN     
 MPLEVL=       0     CITYP =NONE         CCTYP =NONE         VBTYP =NONE    
 DFTTYP=NONE         TDDFT =NONE    
 MULT  =       3     ICHARG=       2     NZVAR =       0     COORD =UNIQUE  
 PP    =SBKJC        RELWFN=NONE         LOCAL =NONE         NUMGRD=       F
 ISPHER=      -1     NOSYM =       0     MAXIT =      30     UNITS =ANGS    
 PLTORB=       F     MOLPLT=       F     AIMPAC=       F     FRIEND=        
 NPRINT=       7     IREST =       0     GEOM  =INPUT   
 NORMF =       0     NORMP =       0     ITOL  =      20     ICUT  =       9
 INTTYP=BEST         GRDTYP=BEST         QMTTOL= 1.0E-06

     $SYSTEM OPTIONS
     ---------------
  REPLICATED MEMORY=    10000000 WORDS (ON EVERY NODE).
 DISTRIBUTED MEMDDI=           0 MILLION WORDS IN AGGREGATE,
 MEMDDI DISTRIBUTED OVER   1 PROCESSORS IS           0 WORDS/PROCESSOR.
 TOTAL MEMORY REQUESTED ON EACH PROCESSOR=    10000000 WORDS.
 TIMLIM=      525600.00 MINUTES, OR     365.0 DAYS.
 PARALL= F  BALTYP=  DLB     KDIAG=    0  COREFL= F
 MXSEQ2=     300 MXSEQ3=     150  mem10=         0

          --------------
          ECP POTENTIALS
          --------------

 PARAMETERS FOR "SBKJC-28" ON ATOM    1 WITH ZCORE  10 AND LMAX  2 ARE
 FOR L= 2      COEFF    N           ZETA
    1       -3.99337    1       21.36373
 FOR L= 0      COEFF    N           ZETA
    1        3.42572    0        2.21817
    2      218.54146    2        6.71585
    3     -184.10961    2        5.80856
 FOR L= 1      COEFF    N           ZETA
    1        3.87540    0       56.45353
    2       99.68289    2       13.66534

 PARAMETERS FOR "SBKJC- 7" ON ATOM    2 WITH ZCORE   2 AND LMAX  1 ARE
 FOR L= 1      COEFF    N           ZETA
    1       -0.91212    1       11.99686
 FOR L= 0      COEFF    N           ZETA
    1        1.93565    0        3.83895
    2       21.73355    2       11.73247

 PARAMETERS FOR "SBKJC- 7" ON ATOM    3 ARE THE SAME AS ATOM   2

 PARAMETERS FOR "SBKJC- 7" ON ATOM    4 ARE THE SAME AS ATOM   2

 PARAMETERS FOR "SBKJC- 7" ON ATOM    5 ARE THE SAME AS ATOM   2

 PARAMETERS FOR "SBKJC- 7" ON ATOM    6 ARE THE SAME AS ATOM   2

 PARAMETERS FOR "SBKJC- 7" ON ATOM    7 ARE THE SAME AS ATOM   2

 THE ECP RUN REMOVES   22 CORE ELECTRONS, AND THE SAME NUMBER OF PROTONS.
 NUMBER OF ELECTRONS KEPT IN THE CALCULATION IS =   64
 NUMBER OF OCCUPIED ORBITALS (ALPHA) KEPT IS    =   33
 NUMBER OF OCCUPIED ORBITALS (BETA ) KEPT IS    =   31
 THE ADJUSTED NUCLEAR REPULSION ENERGY=      380.7869368197
          ECP ANGULAR INTS.........     0.01 SECONDS

          ----------------
          PROPERTIES INPUT
          ----------------

     MOMENTS            FIELD           POTENTIAL          DENSITY
 IEMOM =       1   IEFLD =       0   IEPOT =       0   IEDEN =       0
 WHERE =COMASS     WHERE =NUCLEI     WHERE =NUCLEI     WHERE =NUCLEI  
 OUTPUT=BOTH       OUTPUT=BOTH       OUTPUT=BOTH       OUTPUT=BOTH    
 IEMINT=       0   IEFINT=       0                     IEDINT=       0
                                                       MORB  =       0
          EXTRAPOLATION IN EFFECT
          RESTRICTION OF ORBITAL MIXING IN EFFECT
          DIIS IN EFFECT
 ORBITAL PRINTING OPTION: NPREO=     1   118     2     1

     -------------------------------
     INTEGRAL TRANSFORMATION OPTIONS
     -------------------------------
     NWORD  =            0
     CUTOFF = 1.0E-09     MPTRAN =       0
     DIRTRF =       T     AOINTS =DUP     

          ----------------------
          INTEGRAL INPUT OPTIONS
          ----------------------
 NOPK  =       1 NORDER=       0 SCHWRZ=       T

     ------------------------------------------
     THE POINT GROUP IS DN , NAXIS= 3, ORDER= 6
     ------------------------------------------

     DIMENSIONS OF THE SYMMETRY SUBSPACES ARE
 A1  =   24     A2  =   18     E   =   38

 ..... DONE SETTING UP THE RUN .....
 STEP CPU TIME =     0.24 TOTAL CPU TIME =        0.2 (    0.0 MIN)
 TOTAL WALL CLOCK TIME=        0.2 SECONDS, CPU UTILIZATION IS 100.00%

     ---------------------------------
     HESSIAN MATRIX CONTROL PARAMETERS
     ---------------------------------
     METHOD=ANALYTIC   NVIB  =       2   VIBSIZ= 0.01000
     RDHESS=       F   PURIFY=       F   PRTIFC=       F
     VIBANL=       T   DECOMP=       F   PROJCT=       F
     SCLFAC= 1.00000   PRTSCN=       F   NPRT  =       0
     PULCOR=       F   NPUN  =       0   REDOVB=       T
     HSSTYP=GENERAL 
     THERMOCHEMISTRY WILL BE PRINTED FOR    1 TEMPERATURES:
      298.15000
 Old integral subroutine is used

     ------------------------------
     CPHF RESPONSE SOLUTION OPTIONS
     ------------------------------
     POLAR  =       F     NWORD  =       0
     CPHF   =AO      

          ********************
          1 ELECTRON INTEGRALS
          ********************
 TIME TO DO ORDINARY INTEGRALS=      0.02
 TIME TO DO      ECP INTEGRALS=      0.02
 ...... END OF ONE-ELECTRON INTEGRALS ......
 STEP CPU TIME =     0.05 TOTAL CPU TIME =        0.3 (    0.0 MIN)
 TOTAL WALL CLOCK TIME=        0.3 SECONDS, CPU UTILIZATION IS  96.67%

          -------------
          GUESS OPTIONS
          -------------
          GUESS =HUCKEL            NORB  =       0          NORDER=       0
          MIX   =       F          PRTMO =       F          PUNMO =       F
          TOLZ  = 1.0E-08          TOLE  = 1.0E-05
          SYMDEN=       F          PURIFY=       F

 INITIAL GUESS ORBITALS GENERATED BY HUCKEL   ROUTINE.
 HUCKEL GUESS REQUIRES    133058 WORDS.

 SYMMETRIES FOR INITIAL GUESS ORBITALS FOLLOW.  ALPHA SET(S).
    33 ORBITALS ARE OCCUPIED (    4 CORE ORBITALS).
     5=?A1      6=?A2      7=?E       8=?E       9=?E      10=?E      11=?A1 
    12=?E      13=?E      14=?E      15=?E      16=?A2     17=?E      18=?E  
    19=?A1     20=?A2     21=?E      22=?E      23=?A1     24=?E      25=?E  
    26=?A2     27=?E      28=?E      29=?A1     30=?E      31=?E      32=?E  
    33=?E      34=?E      35=?E      36=?A1     37=?A2     38=?E      39=?A1 
    40=?A1     41=?A1     42=?A1     43=?A1 

 SYMMETRIES FOR INITIAL GUESS ORBITALS FOLLOW.   BETA SET(S).
    31 ORBITALS ARE OCCUPIED (    4 CORE ORBITALS).
     5=?A1      6=?A2      7=?E       8=?E       9=?E      10=?E      11=?A1 
    12=?E      13=?E      14=?E      15=?E      16=?A2     17=?E      18=?E  
    19=?A1     20=?A2     21=?E      22=?E      23=?A1     24=?E      25=?E  
    26=?A2     27=?E      28=?E      29=?A1     30=?E      31=?E      32=?E  
    33=?E      34=?E      35=?E      36=?A1     37=?A2     38=?E      39=?A1 
    40=?A1     41=?A1 
 ...... END OF INITIAL ORBITAL SELECTION ......
 STEP CPU TIME =     0.07 TOTAL CPU TIME =        0.4 (    0.0 MIN)
 TOTAL WALL CLOCK TIME=        0.4 SECONDS, CPU UTILIZATION IS  97.30%

                    ----------------------
                    AO INTEGRAL TECHNOLOGY
                    ----------------------
     S,P,L SHELL ROTATED AXIS INTEGRALS, REPROGRAMMED BY
        KAZUYA ISHIMURA (IMS) AND JOSE SIERRA (SYNSTAR).
     S,P,D,L SHELL ROTATED AXIS INTEGRALS PROGRAMMED BY
        KAZUYA ISHIMURA (INSTITUTE FOR MOLECULAR SCIENCE).
     S,P,D,F,G SHELL TO TOTAL QUARTET ANGULAR MOMENTUM SUM 5,
        ERIC PROGRAM BY GRAHAM FLETCHER (ELORET AND NASA ADVANCED
        SUPERCOMPUTING DIVISION, AMES RESEARCH CENTER).
     S,P,D,F,G,L SHELL GENERAL RYS QUADRATURE PROGRAMMED BY
        MICHEL DUPUIS (PACIFIC NORTHWEST NATIONAL LABORATORY).

          --------------------
          2 ELECTRON INTEGRALS
          --------------------

 DIRECT SCF METHOD SKIPS INTEGRAL STORAGE ON DISK.
 DIRECT TRANSFORMATION SKIPS AO INTEGRAL STORAGE ON DISK.
  ...... END OF TWO-ELECTRON INTEGRALS .....
 STEP CPU TIME =     0.02 TOTAL CPU TIME =        0.4 (    0.0 MIN)
 TOTAL WALL CLOCK TIME=        0.5 SECONDS, CPU UTILIZATION IS  79.17%

          ---------------------------
                 ROHF SCF CALCULATION
          ---------------------------

     NUCLEAR ENERGY =       380.7869368197
     MAXIT = 30     NPUNCH=  2     MULT=  3
     EXTRAP=T  DAMP=F  SHIFT=F  RSTRCT=T  DIIS=T  SOSCF=F
     DENSITY MATRIX CONV=  2.00E-05
     ROHF CANONICALIZATION PARAMETERS
             C-C     O-O     V-V
     ALPHA -0.5000  0.5000  1.5000
     BETA   1.5000  0.5000 -0.5000
     MEMORY REQUIRED FOR UHF/ROHF ITERS=    176227 WORDS.

 DIRECT SCF CALCULATION, SCHWRZ=T   FDIFF=T
 SCHWARZ INEQUALITY OVERHEAD:      7021 INTEGRALS, T=        0.00

                                                                                NONZERO     BLOCKS
 ITER EX      TOTAL ENERGY        E CHANGE  DENSITY CHANGE    DIIS ERROR      INTEGRALS    SKIPPED
          * * *   INITIATING DIIS PROCEDURE   * * *
   1  0     -235.3119590193  -235.3119590193   1.573699131   0.680474804        3988511      17217
   2  1     -234.1444750427     1.1674839765   1.586006914   0.177657085        3997976      14375
   3  2     -234.4655278996    -0.3210528569   2.961078487   0.716590503        3997336      14438
   4  3     -234.1769913839     0.2885365157   2.974252678   0.334548740        3993733      16210
   5  4     -235.6301547050    -1.4531633211   3.771679174   0.393374438        3993263      16275
   6  5     -234.3092890868     1.3208656183   3.773493812   0.215637952        3991657      16748
   7  6     -235.6554371217    -1.3461480349   0.028805025   0.395058330        3991726      16730
   8  7     -235.7446392287    -0.0892021070   0.131585347   0.358078066        3903997      28834
   9  8     -236.2146341497    -0.4699949210   0.150781904   0.241175796        3956400      21956
  10  9     -236.4674800603    -0.2528459107   0.062976076   0.130527298        3971942      20428
  11 10     -236.5605370305    -0.0930569702   0.032792121   0.023147453        3921854      28448
  12 11     -236.5575018299     0.0030352006   0.022103313   0.033749654        3916135      29004
  13 12     -236.5640432171    -0.0065413872   0.011504822   0.011005727        3904192      29923
  14 13     -236.5641959071    -0.0001526899   0.004807229   0.009614093        3817896      39144
  15 14     -236.5642523704    -0.0000564633   0.006175274   0.009119647        3771424      43110
  16 15     -236.5644579254    -0.0002055550   0.001940914   0.001895284        3852835      33769
  17 16     -236.5644807506    -0.0000228252   0.000794604   0.000367595        3805565      40490
  18 17     -236.5644821016    -0.0000013510   0.000200250   0.000180732        3725191      46688
  19 18     -236.5644822805    -0.0000001789   0.000076240   0.000057222        3641658      55817
  20 19     -236.5644822978    -0.0000000173   0.000045350   0.000012056        3530409      65300
  21 20     -236.5644823023    -0.0000000045   0.000030059   0.000007835        3447747      72239
  22 21     -236.5644823050    -0.0000000028   0.000038590   0.000005554        3281604      84636
  23 22     -236.5644823070    -0.0000000020   0.000030955   0.000002659        3235166      89665
  24 23     -236.5644823078    -0.0000000008   0.000013462   0.000001005        3172211      92993
  25 24     -236.5644823078     0.0000000000   0.000003354   0.000000610        3034346     102994

          -----------------
          DENSITY CONVERGED
          -----------------
     TIME TO FORM FOCK OPERATORS=       6.3 SECONDS (       0.3 SEC/ITER)
     FOCK TIME ON FIRST ITERATION=       0.3, LAST ITERATION=       0.2
     TIME TO SOLVE SCF EQUATIONS=       0.5 SECONDS (       0.0 SEC/ITER)

 FINAL ROHF ENERGY IS     -236.5644823078 AFTER  25 ITERATIONS

          --------------------
          SPIN SZ   =    1.000
          S-SQUARED =    2.000
          --------------------

          ------------
          EIGENVECTORS
          ------------

                      1          2          3          4          5
                   -5.0265    -3.2884    -3.2887    -3.2887    -1.4774
                     A1         A2         E          E          A1  
    1  NI 1  S    0.739646   0.000000   0.000000   0.000000  -0.016220
    2  NI 1  X   -0.000000   0.000000   0.000000   0.822608  -0.000000
    3  NI 1  Y   -0.000000   0.000000   0.822608   0.000000  -0.000000
    4  NI 1  Z   -0.000000   0.822585   0.000000   0.000000  -0.000000
    5  NI 1 XX   -0.005638   0.000000   0.000000   0.000038  -0.001650
    6  NI 1 YY   -0.005638   0.000000   0.000000  -0.000038  -0.001650
    7  NI 1 ZZ   -0.005645   0.000000   0.000000   0.000000  -0.001504
    8  NI 1 XY   -0.000000   0.000000  -0.000043   0.000000  -0.000000
    9  NI 1 XZ   -0.000000   0.000000  -0.000055   0.000000  -0.000000
   10  NI 1 YZ   -0.000000   0.000000   0.000000   0.000055  -0.000000
   11  NI 1 XX    0.010612   0.000000   0.000000   0.000038   0.007327
   12  NI 1 YY    0.010612   0.000000   0.000000  -0.000038   0.007327
   13  NI 1 ZZ    0.010571   0.000000   0.000000   0.000000   0.007249
   14  NI 1 XY   -0.000000   0.000000  -0.000044   0.000000  -0.000000
   15  NI 1 XZ   -0.000000   0.000000   0.000001   0.000000  -0.000000
   16  NI 1 YZ   -0.000000   0.000000   0.000000  -0.000001  -0.000000
   17  NI 1  S   -0.106126   0.000000   0.000000   0.000000  -0.025873
   18  NI 1  X   -0.000000   0.000000   0.000000  -0.003220  -0.000000
   19  NI 1  Y   -0.000000   0.000000  -0.003220   0.000000  -0.000000
   20  NI 1  Z   -0.000000  -0.003837   0.000000   0.000000  -0.000000
   21  NI 1  S    0.004879   0.000000   0.000000   0.000000   0.141090
   22  NI 1  X   -0.000000   0.000000   0.000000   0.002299  -0.000000
   23  NI 1  Y   -0.000000   0.000000   0.002299   0.000000  -0.000000
   24  NI 1  Z   -0.000000   0.003137   0.000000   0.000000  -0.000000
   25  NI 1  S    0.328318   0.000000   0.000000   0.000000  -0.015856
   26  NI 1  X   -0.000000   0.000000   0.000000   0.243929  -0.000000
   27  NI 1  Y   -0.000000   0.000000   0.243929   0.000000  -0.000000
   28  NI 1  Z   -0.000000   0.244034   0.000000   0.000000  -0.000000
   29  NI 1 XX    0.038243   0.000000   0.000000  -0.000289   0.038230
   30  NI 1 YY    0.038243   0.000000   0.000000   0.000289   0.038230
   31  NI 1 ZZ    0.038332   0.000000   0.000000   0.000000   0.039195
   32  NI 1 XY   -0.000000   0.000000   0.000334   0.000000  -0.000000
   33  NI 1 XZ   -0.000000   0.000000  -0.000093   0.000000  -0.000000
   34  NI 1 YZ   -0.000000   0.000000   0.000000   0.000093  -0.000000
   35  N  2  S    0.000870   0.001509  -0.001073  -0.001839   0.251507
   36  N  2  X    0.000397   0.001455  -0.001099  -0.001679  -0.021807
   37  N  2  Y    0.000268   0.000925  -0.000620  -0.001110  -0.014382
   38  N  2  Z   -0.000336  -0.001200   0.000932   0.001485   0.018699
   39  N  2  S   -0.004070   0.002066  -0.001766  -0.002197   0.040298
   40  N  2  X   -0.001841   0.001704  -0.001104   0.000054  -0.014638
   41  N  2  Y   -0.001245   0.000980   0.001342  -0.001041  -0.009767
   42  N  2  Z    0.001523   0.000946   0.000894   0.001465   0.011750
   43  N  3  S    0.000870   0.001509  -0.001056   0.001848   0.251507
   44  N  3  X   -0.000431  -0.001529   0.001017  -0.001842   0.023359
   45  N  3  Y    0.000210   0.000798  -0.000457   0.001005  -0.011694
   46  N  3  Z   -0.000336  -0.001200   0.000820  -0.001550   0.018699
   47  N  3  S   -0.004070   0.002066  -0.001020   0.002628   0.040298
   48  N  3  X    0.001999  -0.001701   0.001062   0.000091   0.015778
   49  N  3  Y   -0.000971   0.000986   0.001305   0.001125  -0.007793
   50  N  3  Z    0.001523   0.000946   0.000821  -0.001507   0.011750
   51  N  4  S    0.000870  -0.001509  -0.002129  -0.000010   0.251507
   52  N  4  X    0.000034  -0.000073  -0.000100   0.000072  -0.001552
   53  N  4  Y    0.000478  -0.001723  -0.002371  -0.000088  -0.026076
   54  N  4  Z    0.000336  -0.001200  -0.001752  -0.000065  -0.018699
   55  N  4  S   -0.004070  -0.002066  -0.002786  -0.000430   0.040298
   56  N  4  X   -0.000158   0.000003   0.000053   0.001948  -0.001140
   57  N  4  Y   -0.002217  -0.001966  -0.000553  -0.000010  -0.017561
   58  N  4  Z   -0.001523   0.000946  -0.001716  -0.000042  -0.011750
   59  N  5  S    0.000870  -0.001509   0.001056   0.001848   0.251507
   60  N  5  X   -0.000431   0.001529  -0.001017  -0.001842   0.023359
   61  N  5  Y   -0.000210   0.000798  -0.000457  -0.001005   0.011694
   62  N  5  Z    0.000336  -0.001200   0.000820   0.001550  -0.018699
   63  N  5  S   -0.004070  -0.002066   0.001020   0.002628   0.040298
   64  N  5  X    0.001999   0.001701  -0.001062   0.000091   0.015778
   65  N  5  Y    0.000971   0.000986   0.001305  -0.001125   0.007793
   66  N  5  Z   -0.001523   0.000946   0.000821   0.001507  -0.011750
   67  N  6  S    0.000870  -0.001509   0.001073  -0.001839   0.251507
   68  N  6  X    0.000397  -0.001455   0.001099  -0.001679  -0.021807
   69  N  6  Y   -0.000268   0.000925  -0.000620   0.001110   0.014382
   70  N  6  Z    0.000336  -0.001200   0.000932  -0.001485  -0.018699
   71  N  6  S   -0.004070  -0.002066   0.001766  -0.002197   0.040298
   72  N  6  X   -0.001841  -0.001704   0.001104   0.000054  -0.014638
   73  N  6  Y    0.001245   0.000980   0.001342   0.001041   0.009767
   74  N  6  Z   -0.001523   0.000946   0.000894  -0.001465  -0.011750
   75  N  7  S    0.000870   0.001509   0.002129  -0.000010   0.251507
   76  N  7  X    0.000034   0.000073   0.000100   0.000072  -0.001552
   77  N  7  Y   -0.000478  -0.001723  -0.002371   0.000088   0.026076
   78  N  7  Z   -0.000336  -0.001200  -0.001752   0.000065   0.018699
   79  N  7  S   -0.004070   0.002066   0.002786  -0.000430   0.040298
   80  N  7  X   -0.000158  -0.000003  -0.000053   0.001948  -0.001140
   81  N  7  Y    0.002217  -0.001966  -0.000553   0.000010   0.017561
   82  N  7  Z    0.001523   0.000946  -0.001716   0.000042   0.011750
   83  H  8  S    0.000322  -0.000195   0.000423   0.000050   0.067954
   84  H  8  S   -0.000535  -0.000430   0.001720  -0.000211  -0.011310
   85  H  9  S    0.000322  -0.000195  -0.000169  -0.000391   0.067954
   86  H  9  S   -0.000535  -0.000430  -0.001043  -0.001384  -0.011310
   87  H 10  S    0.000322   0.000195   0.000255   0.000342   0.067954
   88  H 10  S   -0.000535   0.000430   0.000677   0.001595  -0.011310
   89  H 11  S    0.000322   0.000195   0.000169  -0.000391   0.067954
   90  H 11  S   -0.000535   0.000430   0.001043  -0.001384  -0.011310
   91  H 12  S    0.000322   0.000195  -0.000423   0.000050   0.067954
   92  H 12  S   -0.000535   0.000430  -0.001720  -0.000211  -0.011310
   93  H 13  S    0.000322  -0.000195  -0.000255   0.000342   0.067954
   94  H 13  S   -0.000535  -0.000430  -0.000677   0.001595  -0.011310
   95  H 14  S    0.000372  -0.000438  -0.000059   0.000168   0.068075
   96  H 14  S   -0.000453  -0.001871  -0.000662   0.000109  -0.010355
   97  H 15  S    0.000372  -0.000438   0.000175  -0.000033   0.068075
   98  H 15  S   -0.000453  -0.001871   0.000426   0.000519  -0.010355
   99  H 16  S    0.000372   0.000438   0.000116  -0.000135   0.068075
  100  H 16  S   -0.000453   0.001871  -0.000236  -0.000628  -0.010355
  101  H 17  S    0.000372   0.000438  -0.000175  -0.000033   0.068075
  102  H 17  S   -0.000453   0.001871  -0.000426   0.000519  -0.010355
  103  H 18  S    0.000372   0.000438   0.000059   0.000168   0.068075
  104  H 18  S   -0.000453   0.001871   0.000662   0.000109  -0.010355
  105  H 19  S    0.000372  -0.000438  -0.000116  -0.000135   0.068075
  106  H 19  S   -0.000453  -0.001871   0.000236  -0.000628  -0.010355
  107  H 20  S    0.000364   0.000044   0.000088   0.000490   0.068247
  108  H 20  S   -0.000523   0.000991   0.000077   0.001163  -0.011723
  109  H 21  S    0.000364   0.000044   0.000380  -0.000321   0.068247
  110  H 21  S   -0.000523   0.000991   0.000969  -0.000648  -0.011723
  111  H 22  S    0.000364  -0.000044   0.000468  -0.000169   0.068247
  112  H 22  S   -0.000523  -0.000991   0.001046  -0.000515  -0.011723
  113  H 23  S    0.000364  -0.000044  -0.000380  -0.000321   0.068247
  114  H 23  S   -0.000523  -0.000991  -0.000969  -0.000648  -0.011723
  115  H 24  S    0.000364  -0.000044  -0.000088   0.000490   0.068247
  116  H 24  S   -0.000523  -0.000991  -0.000077   0.001163  -0.011723
  117  H 25  S    0.000364   0.000044  -0.000468  -0.000169   0.068247
  118  H 25  S   -0.000523   0.000991  -0.001046  -0.000515  -0.011723

                      6          7          8          9         10
                   -1.4667    -1.4666    -1.4666    -1.4626    -1.4626
                     A2         E          E          E          E   
    1  NI 1  S    0.000000  -0.000000   0.000000  -0.000000   0.000000
    2  NI 1  X    0.000000  -0.020826   0.000000  -0.000000  -0.001397
    3  NI 1  Y    0.000000  -0.000000   0.020826   0.001397   0.000000
    4  NI 1  Z   -0.020938  -0.000000   0.000000  -0.000000   0.000000
    5  NI 1 XX    0.000000   0.001179   0.000000  -0.000000  -0.004941
    6  NI 1 YY    0.000000  -0.001179   0.000000  -0.000000   0.004941
    7  NI 1 ZZ    0.000000  -0.000000   0.000000  -0.000000   0.000000
    8  NI 1 XY    0.000000  -0.000000   0.001361  -0.005705   0.000000
    9  NI 1 XZ    0.000000  -0.000000  -0.000261   0.008316   0.000000
   10  NI 1 YZ    0.000000  -0.000261   0.000000  -0.000000   0.008316
   11  NI 1 XX    0.000000   0.000452   0.000000  -0.000000  -0.001402
   12  NI 1 YY    0.000000  -0.000452   0.000000  -0.000000   0.001402
   13  NI 1 ZZ    0.000000  -0.000000   0.000000  -0.000000   0.000000
   14  NI 1 XY    0.000000  -0.000000   0.000521  -0.001619   0.000000
   15  NI 1 XZ    0.000000  -0.000000   0.000193   0.002449   0.000000
   16  NI 1 YZ    0.000000   0.000193   0.000000  -0.000000   0.002449
   17  NI 1  S    0.000000  -0.000000   0.000000  -0.000000   0.000000
   18  NI 1  X    0.000000   0.062077   0.000000  -0.000000   0.006102
   19  NI 1  Y    0.000000  -0.000000  -0.062077  -0.006102   0.000000
   20  NI 1  Z    0.063001  -0.000000   0.000000  -0.000000   0.000000
   21  NI 1  S    0.000000  -0.000000   0.000000  -0.000000   0.000000
   22  NI 1  X    0.000000   0.021682   0.000000  -0.000000   0.009237
   23  NI 1  Y    0.000000  -0.000000  -0.021682  -0.009237   0.000000
   24  NI 1  Z    0.020663  -0.000000   0.000000  -0.000000   0.000000
   25  NI 1  S    0.000000  -0.000000   0.000000  -0.000000   0.000000
   26  NI 1  X    0.000000  -0.009170   0.000000  -0.000000  -0.000866
   27  NI 1  Y    0.000000  -0.000000   0.009170   0.000866   0.000000
   28  NI 1  Z   -0.009318  -0.000000   0.000000  -0.000000   0.000000
   29  NI 1 XX    0.000000   0.004348   0.000000  -0.000000  -0.028280
   30  NI 1 YY    0.000000  -0.004348   0.000000  -0.000000   0.028280
   31  NI 1 ZZ    0.000000  -0.000000   0.000000  -0.000000   0.000000
   32  NI 1 XY    0.000000  -0.000000   0.005021  -0.032655   0.000000
   33  NI 1 XZ    0.000000  -0.000000  -0.004121   0.046675   0.000000
   34  NI 1 YZ    0.000000  -0.004121   0.000000  -0.000000   0.046675
   35  N  2  S    0.252825  -0.290776   0.207934  -0.292362  -0.209026
   36  N  2  X   -0.024140   0.030853  -0.020088   0.031862   0.022604
   37  N  2  Y   -0.015897   0.018222  -0.016585   0.020351   0.014521
   38  N  2  Z    0.023875  -0.023615   0.017125  -0.027160  -0.018407
   39  N  2  S    0.048603  -0.056754   0.039774  -0.046112  -0.037752
   40  N  2  X   -0.008497   0.001173  -0.007506   0.007338   0.005482
   41  N  2  Y   -0.004538   0.005512   0.004369   0.005899   0.004142
   42  N  2  Z   -0.001777  -0.007289   0.005525  -0.005258  -0.008703
   43  N  3  S    0.252825   0.325464   0.147852   0.327203  -0.148680
   44  N  3  X    0.025837   0.036740   0.014822   0.037457  -0.017121
   45  N  3  Y   -0.012958  -0.016689  -0.010697  -0.019374   0.008926
   46  N  3  Z    0.023875   0.026638   0.011889   0.029521  -0.014318
   47  N  3  S    0.048603   0.062822   0.029263   0.055751  -0.021058
   48  N  3  X    0.008178   0.002654   0.004657   0.009869  -0.004437
   49  N  3  Y   -0.005090  -0.006651   0.005850  -0.004020   0.001611
   50  N  3  Z   -0.001777   0.008429   0.003550   0.010166  -0.000202
   51  N  4  S   -0.252825  -0.034688   0.355786   0.034841   0.357706
   52  N  4  X    0.001697   0.003563  -0.002466  -0.000256  -0.002104
   53  N  4  Y    0.028854   0.004333  -0.043874  -0.004357  -0.046127
   54  N  4  Z    0.023875   0.003023  -0.029014  -0.002361  -0.032725
   55  N  4  S   -0.048603  -0.006068   0.069037   0.009638   0.058811
   56  N  4  X   -0.000319  -0.008621   0.000142  -0.000013  -0.001670
   57  N  4  Y    0.009627   0.001852  -0.005424  -0.001253  -0.011467
   58  N  4  Z   -0.001777   0.001140  -0.009074  -0.004908  -0.008905
   59  N  5  S   -0.252825   0.325464  -0.147852  -0.327203  -0.148680
   60  N  5  X   -0.025837   0.036740  -0.014822  -0.037457  -0.017121
   61  N  5  Y   -0.012958   0.016689  -0.010697  -0.019374  -0.008926
   62  N  5  Z    0.023875  -0.026638   0.011889   0.029521   0.014318
   63  N  5  S   -0.048603   0.062822  -0.029263  -0.055751  -0.021058
   64  N  5  X   -0.008178   0.002654  -0.004657  -0.009869  -0.004437
   65  N  5  Y   -0.005090   0.006651   0.005850  -0.004020  -0.001611
   66  N  5  Z   -0.001777  -0.008429   0.003550   0.010166   0.000202
   67  N  6  S   -0.252825  -0.290776  -0.207934   0.292362  -0.209026
   68  N  6  X    0.024140   0.030853   0.020088  -0.031862   0.022604
   69  N  6  Y   -0.015897  -0.018222  -0.016585   0.020351  -0.014521
   70  N  6  Z    0.023875   0.023615   0.017125  -0.027160   0.018407
   71  N  6  S   -0.048603  -0.056754  -0.039774   0.046112  -0.037752
   72  N  6  X    0.008497   0.001173   0.007506  -0.007338   0.005482
   73  N  6  Y   -0.004538  -0.005512   0.004369   0.005899  -0.004142
   74  N  6  Z   -0.001777   0.007289   0.005525  -0.005258   0.008703
   75  N  7  S    0.252825  -0.034688  -0.355786  -0.034841   0.357706
   76  N  7  X   -0.001697   0.003563   0.002466   0.000256  -0.002104
   77  N  7  Y    0.028854  -0.004333  -0.043874  -0.004357   0.046127
   78  N  7  Z    0.023875  -0.003023  -0.029014  -0.002361   0.032725
   79  N  7  S    0.048603  -0.006068  -0.069037  -0.009638   0.058811
   80  N  7  X    0.000319  -0.008621  -0.000142   0.000013  -0.001670
   81  N  7  Y    0.009627  -0.001852  -0.005424  -0.001253   0.011467
   82  N  7  Z   -0.001777  -0.001140  -0.009074  -0.004908   0.008905
   83  H  8  S    0.068857  -0.077375   0.059008  -0.080195  -0.057449
   84  H  8  S   -0.001143   0.001582   0.001774  -0.004308   0.000775
   85  H  9  S    0.068857   0.089790   0.037505   0.089849  -0.040726
   86  H  9  S   -0.001143   0.000745  -0.002257   0.001483  -0.004119
   87  H 10  S   -0.068857  -0.012414   0.096513   0.009655   0.098175
   88  H 10  S    0.001143  -0.002327  -0.000483  -0.002825   0.003343
   89  H 11  S   -0.068857   0.089790  -0.037505  -0.089849  -0.040726
   90  H 11  S    0.001143   0.000745   0.002257  -0.001483  -0.004119
   91  H 12  S   -0.068857  -0.077375  -0.059008   0.080195  -0.057449
   92  H 12  S    0.001143   0.001582  -0.001774   0.004308   0.000775
   93  H 13  S    0.068857  -0.012414  -0.096513  -0.009655   0.098175
   94  H 13  S   -0.001143  -0.002327   0.000483   0.002825   0.003343
   95  H 14  S    0.070645  -0.078103   0.054374  -0.080710  -0.057296
   96  H 14  S    0.001198   0.000549  -0.002494  -0.005221   0.004126
   97  H 15  S    0.070645   0.086141   0.040453   0.089975  -0.041249
   98  H 15  S    0.001198  -0.002435   0.000771  -0.000963  -0.006584
   99  H 16  S   -0.070645  -0.008038   0.094827   0.009265   0.098545
  100  H 16  S   -0.001198   0.001885  -0.001723  -0.006184   0.002458
  101  H 17  S   -0.070645   0.086141  -0.040453  -0.089975  -0.041249
  102  H 17  S   -0.001198  -0.002435  -0.000771   0.000963  -0.006584
  103  H 18  S   -0.070645  -0.078103  -0.054374   0.080710  -0.057296
  104  H 18  S   -0.001198   0.000549   0.002494   0.005221   0.004126
  105  H 19  S    0.070645  -0.008038  -0.094827  -0.009265   0.098545
  106  H 19  S    0.001198   0.001885   0.001723   0.006184   0.002458
  107  H 20  S    0.066133  -0.081296   0.055576  -0.080362  -0.058070
  108  H 20  S   -0.001891   0.001069  -0.001085  -0.003538  -0.001630
  109  H 21  S    0.066133   0.088778   0.042616   0.090471  -0.040560
  110  H 21  S   -0.001891  -0.001474  -0.000383   0.003181  -0.002249
  111  H 22  S   -0.066133  -0.007482   0.098192   0.010109   0.098630
  112  H 22  S    0.001891   0.000405  -0.001468  -0.000357   0.003879
  113  H 23  S   -0.066133   0.088778  -0.042616  -0.090471  -0.040560
  114  H 23  S    0.001891  -0.001474   0.000383  -0.003181  -0.002249
  115  H 24  S   -0.066133  -0.081296  -0.055576   0.080362  -0.058070
  116  H 24  S    0.001891   0.001069   0.001085   0.003538  -0.001630
  117  H 25  S    0.066133  -0.007482  -0.098192  -0.010109   0.098630
  118  H 25  S   -0.001891   0.000405   0.001468   0.000357   0.003879

                     11         12         13         14         15
                   -0.9581    -0.8325    -0.8325    -0.9447    -0.9447
                     A1         E          E          E          E   
    1  NI 1  S   -0.000456   0.000000  -0.000000  -0.000000  -0.000000
    2  NI 1  X   -0.000000  -0.002623  -0.000000  -0.000000  -0.020598
    3  NI 1  Y   -0.000000   0.000000   0.002623  -0.020598  -0.000000
    4  NI 1  Z   -0.000000   0.000000  -0.000000  -0.000000  -0.000000
    5  NI 1 XX   -0.068208   0.508129  -0.000000  -0.000000   0.002081
    6  NI 1 YY   -0.068208  -0.508129  -0.000000  -0.000000  -0.002081
    7  NI 1 ZZ    0.136493   0.000000  -0.000000  -0.000000  -0.000000
    8  NI 1 XY   -0.000000   0.000000   0.586736  -0.002403  -0.000000
    9  NI 1 XZ   -0.000000   0.000000   0.414274  -0.001937  -0.000000
   10  NI 1 YZ   -0.000000   0.414274  -0.000000  -0.000000   0.001937
   11  NI 1 XX   -0.036780   0.262742  -0.000000  -0.000000   0.002005
   12  NI 1 YY   -0.036780  -0.262742  -0.000000  -0.000000  -0.002005
   13  NI 1 ZZ    0.073124   0.000000  -0.000000  -0.000000  -0.000000
   14  NI 1 XY   -0.000000   0.000000   0.303388  -0.002316  -0.000000
   15  NI 1 XZ   -0.000000   0.000000   0.214191  -0.001181  -0.000000
   16  NI 1 YZ   -0.000000   0.214191  -0.000000  -0.000000   0.001181
   17  NI 1  S    0.002122   0.000000  -0.000000  -0.000000  -0.000000
   18  NI 1  X   -0.000000   0.003101  -0.000000  -0.000000   0.006782
   19  NI 1  Y   -0.000000   0.000000  -0.003101   0.006782  -0.000000
   20  NI 1  Z   -0.000000   0.000000  -0.000000  -0.000000  -0.000000
   21  NI 1  S   -0.001160   0.000000  -0.000000  -0.000000  -0.000000
   22  NI 1  X   -0.000000  -0.004373  -0.000000  -0.000000   0.074949
   23  NI 1  Y   -0.000000   0.000000   0.004373   0.074949  -0.000000
   24  NI 1  Z   -0.000000   0.000000  -0.000000  -0.000000  -0.000000
   25  NI 1  S   -0.000637   0.000000  -0.000000  -0.000000  -0.000000
   26  NI 1  X   -0.000000  -0.000597  -0.000000  -0.000000  -0.001288
   27  NI 1  Y   -0.000000   0.000000   0.000597  -0.001288  -0.000000
   28  NI 1  Z   -0.000000   0.000000  -0.000000  -0.000000  -0.000000
   29  NI 1 XX   -0.015520   0.093164  -0.000000  -0.000000  -0.002465
   30  NI 1 YY   -0.015520  -0.093164  -0.000000  -0.000000   0.002465
   31  NI 1 ZZ    0.028271   0.000000  -0.000000  -0.000000  -0.000000
   32  NI 1 XY   -0.000000   0.000000   0.107576   0.002846  -0.000000
   33  NI 1 XZ   -0.000000   0.000000   0.075971   0.001063  -0.000000
   34  NI 1 YZ   -0.000000   0.075971  -0.000000  -0.000000  -0.001063
   35  N  2  S    0.000061  -0.002134   0.001271   0.003485   0.006979
   36  N  2  X    0.106505   0.028206   0.005257  -0.101322   0.107171
   37  N  2  Y    0.066507  -0.046794   0.036173   0.223339  -0.077542
   38  N  2  Z    0.174869   0.018839   0.021648   0.083733   0.125040
   39  N  2  S    0.000881  -0.001380   0.000713  -0.002474   0.001030
   40  N  2  X    0.035984   0.013165   0.001685  -0.030287   0.029362
   41  N  2  Y    0.016595  -0.022136   0.019406   0.069274  -0.023748
   42  N  2  Z    0.054198   0.010162   0.010214   0.024887   0.039747
   43  N  3  S    0.000061   0.002168   0.001212   0.004301  -0.006507
   44  N  3  X   -0.110850  -0.042617  -0.005905   0.083128   0.116847
   45  N  3  Y    0.058982  -0.035633  -0.034650   0.213663   0.106908
   46  N  3  Z    0.174869   0.009328  -0.027139   0.066422  -0.135035
   47  N  3  S    0.000881   0.001308   0.000839   0.002129   0.001627
   48  N  3  X   -0.032363  -0.021578  -0.002078   0.027522   0.035899
   49  N  3  Y    0.022866  -0.018374  -0.015337   0.062737   0.034061
   50  N  3  Z    0.054198   0.003764  -0.013908   0.021978  -0.041427
   51  N  4  S    0.000061  -0.000034   0.002484   0.007786  -0.000471
   52  N  4  X    0.004345   0.002460   0.061659   0.017476   0.271747
   53  N  4  Y    0.125490  -0.020121   0.010428   0.058763  -0.006304
   54  N  4  Z   -0.174869   0.028167   0.005491  -0.150154  -0.009995
   55  N  4  S    0.000881   0.000073   0.001552  -0.000345  -0.002658
   56  N  4  X   -0.003620  -0.000948   0.030284   0.007044   0.082694
   57  N  4  Y    0.039460  -0.009833   0.005293   0.015942   0.000505
   58  N  4  Z   -0.054198   0.013926   0.003694  -0.046866  -0.001680
   59  N  5  S    0.000061   0.002168  -0.001212  -0.004301  -0.006507
   60  N  5  X   -0.110850  -0.042617   0.005905  -0.083128   0.116847
   61  N  5  Y   -0.058982   0.035633  -0.034650   0.213663  -0.106908
   62  N  5  Z   -0.174869  -0.009328  -0.027139   0.066422   0.135035
   63  N  5  S    0.000881   0.001308  -0.000839  -0.002129   0.001627
   64  N  5  X   -0.032363  -0.021578   0.002078  -0.027522   0.035899
   65  N  5  Y   -0.022866   0.018374  -0.015337   0.062737  -0.034061
   66  N  5  Z   -0.054198  -0.003764  -0.013908   0.021978   0.041427
   67  N  6  S    0.000061  -0.002134  -0.001271  -0.003485   0.006979
   68  N  6  X    0.106505   0.028206  -0.005257   0.101322   0.107171
   69  N  6  Y   -0.066507   0.046794   0.036173   0.223339   0.077542
   70  N  6  Z   -0.174869  -0.018839   0.021648   0.083733  -0.125040
   71  N  6  S    0.000881  -0.001380  -0.000713   0.002474   0.001030
   72  N  6  X    0.035984   0.013165  -0.001685   0.030287   0.029362
   73  N  6  Y   -0.016595   0.022136   0.019406   0.069274   0.023748
   74  N  6  Z   -0.054198  -0.010162   0.010214   0.024887  -0.039747
   75  N  7  S    0.000061  -0.000034  -0.002484  -0.007786  -0.000471
   76  N  7  X    0.004345   0.002460  -0.061659  -0.017476   0.271747
   77  N  7  Y   -0.125490   0.020121   0.010428   0.058763   0.006304
   78  N  7  Z    0.174869  -0.028167   0.005491  -0.150154   0.009995
   79  N  7  S    0.000881   0.000073  -0.001552   0.000345  -0.002658
   80  N  7  X   -0.003620  -0.000948  -0.030284  -0.007044   0.082694
   81  N  7  Y   -0.039460   0.009833   0.005293   0.015942  -0.000505
   82  N  7  Z    0.054198  -0.013926   0.003694  -0.046866   0.001680
   83  H  8  S   -0.005704   0.041244  -0.022792  -0.158530   0.085262
   84  H  8  S   -0.004062   0.007310  -0.000582  -0.003191   0.015385
   85  H  9  S   -0.005704  -0.040360  -0.024323   0.153105   0.094660
   86  H  9  S   -0.004062  -0.004159  -0.006039   0.014919  -0.004929
   87  H 10  S   -0.005704  -0.000884  -0.047114  -0.005426  -0.179923
   88  H 10  S   -0.004062  -0.003151  -0.006621   0.011728  -0.010456
   89  H 11  S   -0.005704  -0.040360   0.024323  -0.153105   0.094660
   90  H 11  S   -0.004062  -0.004159   0.006039  -0.014919  -0.004929
   91  H 12  S   -0.005704   0.041244   0.022792   0.158530   0.085262
   92  H 12  S   -0.004062   0.007310   0.000582   0.003191   0.015385
   93  H 13  S   -0.005704  -0.000884   0.047114   0.005426  -0.179923
   94  H 13  S   -0.004062  -0.003151   0.006621  -0.011728  -0.010456
   95  H 14  S    0.122645  -0.007123   0.029055   0.130084   0.045189
   96  H 14  S    0.021528  -0.002161   0.003865   0.015840   0.011454
   97  H 15  S    0.122645   0.028724  -0.008359  -0.025907  -0.135251
   98  H 15  S    0.021528   0.004428  -0.000061   0.001999  -0.019445
   99  H 16  S    0.122645  -0.021601   0.020696   0.104177   0.090061
  100  H 16  S    0.021528  -0.002267   0.003805   0.017839   0.007991
  101  H 17  S    0.122645   0.028724   0.008359   0.025907  -0.135251
  102  H 17  S    0.021528   0.004428   0.000061  -0.001999  -0.019445
  103  H 18  S    0.122645  -0.007123  -0.029055  -0.130084   0.045189
  104  H 18  S    0.021528  -0.002161  -0.003865  -0.015840   0.011454
  105  H 19  S    0.122645  -0.021601  -0.020696  -0.104177   0.090061
  106  H 19  S    0.021528  -0.002267  -0.003805  -0.017839   0.007991
  107  H 20  S   -0.118142  -0.028076  -0.009659   0.039431  -0.108550
  108  H 20  S   -0.017381  -0.006549  -0.002305   0.010464  -0.000993
  109  H 21  S   -0.118142   0.005673   0.029144  -0.113722   0.020127
  110  H 21  S   -0.017381   0.001279   0.006824  -0.006092  -0.008565
  111  H 22  S   -0.118142   0.022403   0.019485  -0.074291   0.088423
  112  H 22  S   -0.017381   0.005270   0.004519   0.004372   0.009558
  113  H 23  S   -0.118142   0.005673  -0.029144   0.113722   0.020127
  114  H 23  S   -0.017381   0.001279  -0.006824   0.006092  -0.008565
  115  H 24  S   -0.118142  -0.028076   0.009659  -0.039431  -0.108550
  116  H 24  S   -0.017381  -0.006549   0.002305  -0.010464  -0.000993
  117  H 25  S   -0.118142   0.022403  -0.019485   0.074291   0.088423
  118  H 25  S   -0.017381   0.005270  -0.004519  -0.004372   0.009558

                     16         17         18         19         20
                   -0.9448    -0.9357    -0.9357    -0.8325    -0.9249
                     A2         E          E          A1         A2  
    1  NI 1  S   -0.000000   0.000000   0.000000   0.000666   0.000000
    2  NI 1  X   -0.000000   0.000000  -0.000252  -0.000000   0.000000
    3  NI 1  Y   -0.000000  -0.000252   0.000000  -0.000000   0.000000
    4  NI 1  Z   -0.020749   0.000000   0.000000  -0.000000   0.000299
    5  NI 1 XX   -0.000000   0.000000  -0.001908  -0.359471   0.000000
    6  NI 1 YY   -0.000000   0.000000   0.001908  -0.359471   0.000000
    7  NI 1 ZZ   -0.000000   0.000000   0.000000   0.718894   0.000000
    8  NI 1 XY   -0.000000   0.002203   0.000000  -0.000000   0.000000
    9  NI 1 XZ   -0.000000   0.002103   0.000000  -0.000000   0.000000
   10  NI 1 YZ   -0.000000   0.000000  -0.002103  -0.000000   0.000000
   11  NI 1 XX   -0.000000   0.000000  -0.001263  -0.185791   0.000000
   12  NI 1 YY   -0.000000   0.000000   0.001263  -0.185791   0.000000
   13  NI 1 ZZ   -0.000000   0.000000   0.000000   0.371861   0.000000
   14  NI 1 XY   -0.000000   0.001458   0.000000  -0.000000   0.000000
   15  NI 1 XZ   -0.000000   0.000460   0.000000  -0.000000   0.000000
   16  NI 1 YZ   -0.000000   0.000000  -0.000460  -0.000000   0.000000
   17  NI 1  S   -0.000000   0.000000   0.000000  -0.002388   0.000000
   18  NI 1  X   -0.000000   0.000000  -0.000472  -0.000000   0.000000
   19  NI 1  Y   -0.000000  -0.000472   0.000000  -0.000000   0.000000
   20  NI 1  Z    0.002264   0.000000   0.000000  -0.000000   0.000674
   21  NI 1  S   -0.000000   0.000000   0.000000   0.000337   0.000000
   22  NI 1  X   -0.000000   0.000000  -0.000239  -0.000000   0.000000
   23  NI 1  Y   -0.000000  -0.000239   0.000000  -0.000000   0.000000
   24  NI 1  Z    0.081946   0.000000   0.000000  -0.000000  -0.006447
   25  NI 1  S   -0.000000   0.000000   0.000000   0.000865   0.000000
   26  NI 1  X   -0.000000   0.000000   0.000127  -0.000000   0.000000
   27  NI 1  Y   -0.000000   0.000127   0.000000  -0.000000   0.000000
   28  NI 1  Z   -0.000657   0.000000   0.000000  -0.000000   0.000030
   29  NI 1 XX   -0.000000   0.000000   0.000426  -0.064968   0.000000
   30  NI 1 YY   -0.000000   0.000000  -0.000426  -0.064968   0.000000
   31  NI 1 ZZ   -0.000000   0.000000   0.000000   0.132389   0.000000
   32  NI 1 XY   -0.000000  -0.000492   0.000000  -0.000000   0.000000
   33  NI 1 XZ   -0.000000   0.002255   0.000000  -0.000000   0.000000
   34  NI 1 YZ   -0.000000   0.000000  -0.002255  -0.000000   0.000000
   35  N  2  S   -0.005342   0.000731  -0.000633  -0.000200   0.000387
   36  N  2  X    0.134683  -0.120604  -0.078882  -0.023673   0.116542
   37  N  2  Y    0.069560   0.078034  -0.156049  -0.018115  -0.198717
   38  N  2  Z    0.164676  -0.081116  -0.211713  -0.039672  -0.011579
   39  N  2  S    0.000411   0.001353  -0.002506  -0.000684  -0.000827
   40  N  2  X    0.044176  -0.044107  -0.022750  -0.012829   0.035018
   41  N  2  Y    0.022002   0.023257  -0.048449  -0.006875  -0.059044
   42  N  2  Z    0.051577  -0.029894  -0.066085  -0.019025  -0.003037
   43  N  3  S   -0.005342  -0.000914  -0.000317  -0.000200   0.000387
   44  N  3  X   -0.127582   0.154833  -0.080990   0.027524   0.113823
   45  N  3  Y    0.081859   0.080141   0.119387  -0.011444   0.200287
   46  N  3  Z    0.164676  -0.142791   0.176105  -0.039672  -0.011579
   47  N  3  S    0.000411  -0.002847   0.000081  -0.000684  -0.000827
   48  N  3  X   -0.041143   0.045232  -0.028323   0.012369   0.033624
   49  N  3  Y    0.027257   0.028830   0.040889  -0.007673   0.059849
   50  N  3  Z    0.051577  -0.042284   0.058931  -0.019025  -0.003037
   51  N  4  S    0.005342  -0.000183   0.000950  -0.000200  -0.000387
   52  N  4  X    0.007101  -0.018939   0.158599  -0.003851   0.230365
   53  N  4  Y   -0.151419  -0.159448   0.016506  -0.029559  -0.001570
   54  N  4  Z    0.164676   0.223907  -0.035608   0.039672  -0.011579
   55  N  4  S   -0.000411  -0.001494   0.002425  -0.000684   0.000827
   56  N  4  X    0.003034  -0.005389   0.051833   0.000461   0.068643
   57  N  4  Y   -0.049259  -0.051326  -0.001046  -0.014548  -0.000805
   58  N  4  Z    0.051577   0.072178  -0.007154   0.019025  -0.003037
   59  N  5  S    0.005342   0.000914  -0.000317  -0.000200  -0.000387
   60  N  5  X    0.127582  -0.154833  -0.080990   0.027524  -0.113823
   61  N  5  Y    0.081859   0.080141  -0.119387   0.011444   0.200287
   62  N  5  Z    0.164676  -0.142791  -0.176105   0.039672  -0.011579
   63  N  5  S   -0.000411   0.002847   0.000081  -0.000684   0.000827
   64  N  5  X    0.041143  -0.045232  -0.028323   0.012369  -0.033624
   65  N  5  Y    0.027257   0.028830  -0.040889   0.007673   0.059849
   66  N  5  Z    0.051577  -0.042284  -0.058931   0.019025  -0.003037
   67  N  6  S    0.005342  -0.000731  -0.000633  -0.000200  -0.000387
   68  N  6  X   -0.134683   0.120604  -0.078882  -0.023673  -0.116542
   69  N  6  Y    0.069560   0.078034   0.156049   0.018115  -0.198717
   70  N  6  Z    0.164676  -0.081116   0.211713   0.039672  -0.011579
   71  N  6  S   -0.000411  -0.001353  -0.002506  -0.000684   0.000827
   72  N  6  X   -0.044176   0.044107  -0.022750  -0.012829  -0.035018
   73  N  6  Y    0.022002   0.023257   0.048449   0.006875  -0.059044
   74  N  6  Z    0.051577  -0.029894   0.066085   0.019025  -0.003037
   75  N  7  S   -0.005342   0.000183   0.000950  -0.000200   0.000387
   76  N  7  X   -0.007101   0.018939   0.158599  -0.003851  -0.230365
   77  N  7  Y   -0.151419  -0.159448  -0.016506   0.029559  -0.001570
   78  N  7  Z    0.164676   0.223907   0.035608  -0.039672  -0.011579
   79  N  7  S    0.000411   0.001494   0.002425  -0.000684  -0.000827
   80  N  7  X   -0.003034   0.005389   0.051833   0.000461  -0.068643
   81  N  7  Y   -0.049259  -0.051326   0.001046   0.014548  -0.000805
   82  N  7  Z    0.051577   0.072178   0.007154  -0.019025  -0.003037
   83  H  8  S   -0.002269  -0.082402   0.064580   0.003075   0.152974
   84  H  8  S   -0.007933  -0.011794   0.010703   0.001875   0.024957
   85  H  9  S   -0.002269   0.097129   0.039073   0.003075   0.152974
   86  H  9  S   -0.007933   0.015166   0.004863   0.001875   0.024957
   87  H 10  S    0.002269   0.014727  -0.103652   0.003075  -0.152974
   88  H 10  S    0.007933   0.003372  -0.015566   0.001875  -0.024957
   89  H 11  S    0.002269  -0.097129   0.039073   0.003075  -0.152974
   90  H 11  S    0.007933  -0.015166   0.004863   0.001875  -0.024957
   91  H 12  S    0.002269   0.082402   0.064580   0.003075  -0.152974
   92  H 12  S    0.007933   0.011794   0.010703   0.001875  -0.024957
   93  H 13  S   -0.002269  -0.014727  -0.103652   0.003075   0.152974
   94  H 13  S   -0.007933  -0.003372  -0.015566   0.001875   0.024957
   95  H 14  S    0.119121  -0.016260  -0.178738  -0.032531  -0.079060
   96  H 14  S   -0.003425   0.001026  -0.026415  -0.006446  -0.011012
   97  H 15  S    0.119121  -0.146661   0.103451  -0.032531  -0.079060
   98  H 15  S   -0.003425  -0.023389   0.012319  -0.006446  -0.011012
   99  H 16  S   -0.119121  -0.162922   0.075287  -0.032531   0.079060
  100  H 16  S    0.003425  -0.022363   0.014096  -0.006446   0.011012
  101  H 17  S   -0.119121   0.146661   0.103451  -0.032531   0.079060
  102  H 17  S    0.003425   0.023389   0.012319  -0.006446   0.011012
  103  H 18  S   -0.119121   0.016260  -0.178738  -0.032531   0.079060
  104  H 18  S    0.003425  -0.001026  -0.026415  -0.006446   0.011012
  105  H 19  S    0.119121   0.162922   0.075287  -0.032531  -0.079060
  106  H 19  S   -0.003425   0.022363   0.014096  -0.006446  -0.011012
  107  H 20  S   -0.133953   0.100378   0.114257   0.030269  -0.071986
  108  H 20  S   -0.014374   0.006535   0.019355   0.004613  -0.011352
  109  H 21  S   -0.133953   0.048760  -0.144058   0.030269  -0.071986
  110  H 21  S   -0.014374   0.013494  -0.015337   0.004613  -0.011352
  111  H 22  S    0.133953   0.149138   0.029802   0.030269   0.071986
  112  H 22  S    0.014374   0.020029  -0.004018   0.004613   0.011352
  113  H 23  S    0.133953  -0.048760  -0.144058   0.030269   0.071986
  114  H 23  S    0.014374  -0.013494  -0.015337   0.004613   0.011352
  115  H 24  S    0.133953  -0.100378   0.114257   0.030269   0.071986
  116  H 24  S    0.014374  -0.006535   0.019355   0.004613   0.011352
  117  H 25  S   -0.133953  -0.149138   0.029802   0.030269  -0.071986
  118  H 25  S   -0.014374  -0.020029  -0.004018   0.004613  -0.011352

                     21         22         23         24         25
                   -0.9241    -0.9241    -0.8479    -0.9578    -0.9578
                     E          E          A1         E          E   
    1  NI 1  S   -0.000000   0.000000  -0.101984   0.000000  -0.000000
    2  NI 1  X    0.000091   0.000000   0.000000  -0.000234  -0.000000
    3  NI 1  Y   -0.000000  -0.000091   0.000000   0.000000   0.000234
    4  NI 1  Z   -0.000000   0.000000   0.000000   0.000000  -0.000000
    5  NI 1 XX    0.000699   0.000000  -0.001012  -0.096786  -0.000000
    6  NI 1 YY   -0.000699   0.000000  -0.001012   0.096786  -0.000000
    7  NI 1 ZZ   -0.000000   0.000000   0.003896   0.000000  -0.000000
    8  NI 1 XY   -0.000000   0.000807   0.000000   0.000000  -0.111759
    9  NI 1 XZ   -0.000000   0.000425   0.000000   0.000000  -0.078939
   10  NI 1 YZ    0.000425   0.000000   0.000000  -0.078939  -0.000000
   11  NI 1 XX    0.000345   0.000000   0.001926  -0.052021  -0.000000
   12  NI 1 YY   -0.000345   0.000000   0.001926   0.052021  -0.000000
   13  NI 1 ZZ   -0.000000   0.000000   0.004558   0.000000  -0.000000
   14  NI 1 XY   -0.000000   0.000398   0.000000   0.000000  -0.060068
   15  NI 1 XZ   -0.000000   0.000374   0.000000   0.000000  -0.042500
   16  NI 1 YZ    0.000374   0.000000   0.000000  -0.042500  -0.000000
   17  NI 1  S   -0.000000   0.000000   0.270019   0.000000  -0.000000
   18  NI 1  X    0.000129   0.000000   0.000000   0.002531  -0.000000
   19  NI 1  Y   -0.000000  -0.000129   0.000000   0.000000  -0.002531
   20  NI 1  Z   -0.000000   0.000000   0.000000   0.000000  -0.000000
   21  NI 1  S   -0.000000   0.000000  -0.140086   0.000000  -0.000000
   22  NI 1  X   -0.002864   0.000000   0.000000   0.001487  -0.000000
   23  NI 1  Y   -0.000000   0.002864   0.000000   0.000000  -0.001487
   24  NI 1  Z   -0.000000   0.000000   0.000000   0.000000  -0.000000
   25  NI 1  S   -0.000000   0.000000  -0.115630   0.000000  -0.000000
   26  NI 1  X    0.000045   0.000000   0.000000  -0.000424  -0.000000
   27  NI 1  Y   -0.000000  -0.000045   0.000000   0.000000   0.000424
   28  NI 1  Z   -0.000000   0.000000   0.000000   0.000000  -0.000000
   29  NI 1 XX    0.000377   0.000000  -0.048079  -0.020406  -0.000000
   30  NI 1 YY   -0.000377   0.000000  -0.048079   0.020406  -0.000000
   31  NI 1 ZZ   -0.000000   0.000000  -0.047591   0.000000  -0.000000
   32  NI 1 XY   -0.000000   0.000435   0.000000   0.000000  -0.023562
   33  NI 1 XZ   -0.000000  -0.000556   0.000000   0.000000  -0.016668
   34  NI 1 YZ   -0.000556   0.000000   0.000000  -0.016668  -0.000000
   35  N  2  S   -0.000215   0.000245   0.033573   0.000243   0.000002
   36  N  2  X   -0.016904   0.182708   0.158044   0.166441   0.002983
   37  N  2  Y    0.142642  -0.005197   0.108494  -0.176316   0.136347
   38  N  2  Z    0.087279   0.211916  -0.137822   0.060562   0.107994
   39  N  2  S    0.000137  -0.000456   0.049896   0.001257  -0.000367
   40  N  2  X   -0.004325   0.056964   0.100255   0.051923  -0.001753
   41  N  2  Y    0.047335  -0.001460   0.067595  -0.053222   0.045754
   42  N  2  Z    0.030462   0.065999  -0.086132   0.020362   0.033715
   43  N  3  S    0.000320   0.000064   0.033573  -0.000120  -0.000212
   44  N  3  X   -0.017677   0.143088  -0.172980  -0.138289  -0.000381
   45  N  3  Y    0.182261  -0.005970   0.082623  -0.172953  -0.168383
   46  N  3  Z    0.139885  -0.181543  -0.137822   0.063244  -0.106445
   47  N  3  S   -0.000464   0.000109   0.049896  -0.000946  -0.000905
   48  N  3  X   -0.004156   0.047237  -0.108666  -0.043621   0.001940
   49  N  3  Y    0.057062  -0.001291   0.053026  -0.056915  -0.049791
   50  N  3  Z    0.041926  -0.059380  -0.086132   0.019017  -0.034491
   51  N  4  S   -0.000104   0.000309   0.033573  -0.000124  -0.000210
   52  N  4  X    0.017021  -0.162228   0.014936   0.016989   0.262602
   53  N  4  Y   -0.163121   0.028728   0.191117  -0.089269  -0.013105
   54  N  4  Z    0.227164  -0.030372   0.137822   0.123806  -0.001549
   55  N  4  S    0.000327  -0.000347   0.049896  -0.000311  -0.001272
   56  N  4  X    0.004183  -0.052247   0.008411   0.000952   0.082650
   57  N  4  Y   -0.052052   0.007049   0.120621  -0.027675  -0.005217
   58  N  4  Z    0.072388  -0.006619   0.086132   0.039379   0.000776
   59  N  5  S    0.000320  -0.000064   0.033573  -0.000120   0.000212
   60  N  5  X   -0.017677  -0.143088  -0.172980  -0.138289   0.000381
   61  N  5  Y   -0.182261  -0.005970  -0.082623   0.172953  -0.168383
   62  N  5  Z   -0.139885  -0.181543   0.137822  -0.063244  -0.106445
   63  N  5  S   -0.000464  -0.000109   0.049896  -0.000946   0.000905
   64  N  5  X   -0.004156  -0.047237  -0.108666  -0.043621  -0.001940
   65  N  5  Y   -0.057062  -0.001291  -0.053026   0.056915  -0.049791
   66  N  5  Z   -0.041926  -0.059380   0.086132  -0.019017  -0.034491
   67  N  6  S   -0.000215  -0.000245   0.033573   0.000243  -0.000002
   68  N  6  X   -0.016904  -0.182708   0.158044   0.166441  -0.002983
   69  N  6  Y   -0.142642  -0.005197  -0.108494   0.176316   0.136347
   70  N  6  Z   -0.087279   0.211916   0.137822  -0.060562   0.107994
   71  N  6  S    0.000137   0.000456   0.049896   0.001257   0.000367
   72  N  6  X   -0.004325  -0.056964   0.100255   0.051923   0.001753
   73  N  6  Y   -0.047335  -0.001460  -0.067595   0.053222   0.045754
   74  N  6  Z   -0.030462   0.065999   0.086132  -0.020362   0.033715
   75  N  7  S   -0.000104  -0.000309   0.033573  -0.000124   0.000210
   76  N  7  X    0.017021   0.162228   0.014936   0.016989  -0.262602
   77  N  7  Y    0.163121   0.028728  -0.191117   0.089269  -0.013105
   78  N  7  Z   -0.227164  -0.030372  -0.137822  -0.123806  -0.001549
   79  N  7  S    0.000327   0.000347   0.049896  -0.000311   0.001272
   80  N  7  X    0.004183   0.052247   0.008411   0.000952  -0.082650
   81  N  7  Y    0.052052   0.007049  -0.120621   0.027675  -0.005217
   82  N  7  Z   -0.072388  -0.006619  -0.086132  -0.039379   0.000776
   83  H  8  S   -0.088342   0.061518  -0.044384   0.152170  -0.075145
   84  H  8  S   -0.009352   0.007531   0.013316   0.025365  -0.008665
   85  H  9  S    0.097447   0.045747  -0.044384  -0.141162  -0.094211
   86  H  9  S    0.011198   0.004333   0.013316  -0.020186  -0.017634
   87  H 10  S   -0.009106   0.107265  -0.044384  -0.011008  -0.169356
   88  H 10  S   -0.001846   0.011865   0.013316  -0.005178  -0.026299
   89  H 11  S    0.097447  -0.045747  -0.044384  -0.141162   0.094211
   90  H 11  S    0.011198  -0.004333   0.013316  -0.020186   0.017634
   91  H 12  S   -0.088342  -0.061518  -0.044384   0.152170   0.075145
   92  H 12  S   -0.009352  -0.007531   0.013316   0.025365   0.008665
   93  H 13  S   -0.009106  -0.107265  -0.044384  -0.011008   0.169356
   94  H 13  S   -0.001846  -0.011865   0.013316  -0.005178   0.026299
   95  H 14  S    0.101789   0.120726  -0.040046  -0.029425   0.109297
   96  H 14  S    0.010029   0.014317   0.013233  -0.005732   0.015533
   97  H 15  S    0.053658  -0.148515  -0.040046   0.109366  -0.029166
   98  H 15  S    0.007384  -0.015844   0.013233   0.016318  -0.002802
   99  H 16  S   -0.155446  -0.027788  -0.040046  -0.079941   0.080131
  100  H 16  S   -0.017413  -0.001527   0.013233  -0.010585   0.012731
  101  H 17  S    0.053658   0.148515  -0.040046   0.109366   0.029166
  102  H 17  S    0.007384   0.015844   0.013233   0.016318   0.002802
  103  H 18  S    0.101789  -0.120726  -0.040046  -0.029425  -0.109297
  104  H 18  S    0.010029  -0.014317   0.013233  -0.005732  -0.015533
  105  H 19  S   -0.155446   0.027788  -0.040046  -0.079941  -0.080131
  106  H 19  S   -0.017413   0.001527   0.013233  -0.010585  -0.012731
  107  H 20  S   -0.014514  -0.181617  -0.038633  -0.123830  -0.033425
  108  H 20  S   -0.001756  -0.020775   0.014322  -0.019829  -0.007652
  109  H 21  S   -0.150028   0.103378  -0.038633   0.032968   0.123952
  110  H 21  S   -0.017114   0.011908   0.014322   0.003288   0.020998
  111  H 22  S    0.164542  -0.078240  -0.038633   0.090862   0.090527
  112  H 22  S    0.018869  -0.008867   0.014322   0.016541   0.013346
  113  H 23  S   -0.150028  -0.103378  -0.038633   0.032968  -0.123952
  114  H 23  S   -0.017114  -0.011908   0.014322   0.003288  -0.020998
  115  H 24  S   -0.014514   0.181617  -0.038633  -0.123830   0.033425
  116  H 24  S   -0.001756   0.020775   0.014322  -0.019829   0.007652
  117  H 25  S    0.164542   0.078240  -0.038633   0.090862  -0.090527
  118  H 25  S    0.018869   0.008867   0.014322   0.016541  -0.013346

                     26         27         28         29         30
                   -0.7684    -0.7681    -0.7681    -0.9353    -0.7429
                     A2         E          E          A1         E   
    1  NI 1  S   -0.000000  -0.000000  -0.000000   0.002724  -0.000000
    2  NI 1  X   -0.000000   0.086733  -0.000000   0.000000  -0.000000
[...]
                   Z  0.00875090 -0.02315664  0.01068108  0.01194729 -0.02119294
  6   N            X  0.01082228  0.00657879 -0.02183696 -0.00319025 -0.00017412
                   Y  0.02797587 -0.01995295 -0.01958403 -0.03676313  0.00030042
                   Z  0.00875090 -0.02315664  0.01068108 -0.02432727  0.00024981
  7   N            X -0.02963895 -0.01399037 -0.02787875  0.01254001 -0.03099257
                   Y  0.00461556  0.01567387 -0.00911935 -0.00606274  0.01439717
                   Z -0.00875090 -0.02315664  0.01068108  0.00923970 -0.02250569
  8   H            X -0.07263841 -0.03749267 -0.06572178 -0.08405070  0.01164904
                   Y  0.28789112  0.13622730  0.27016616  0.32370294 -0.04418066
                   Z -0.05558733 -0.03034391 -0.04799606 -0.06658808  0.00853180
  9   H            X -0.21300182 -0.09922997 -0.20110987  0.14724612  0.19016365
                   Y -0.20685227 -0.10058325 -0.19199981  0.14518832  0.18711616
                   Z -0.05558733 -0.03034391 -0.04799606  0.04068279  0.05340107
 10   H            X  0.28564023 -0.13672264 -0.26683165  0.16503671  0.28039729
                   Y  0.08103885 -0.03564405 -0.07816635  0.04573603  0.07735761
                   Z  0.05558733 -0.03034391 -0.04799606  0.03454196  0.05756402
 11   H            X -0.21300182  0.09922997  0.20110987 -0.11837034  0.20936117
                   Y  0.20685227 -0.10058325 -0.19199981  0.11677216 -0.20604944
                   Z  0.05558733 -0.03034391 -0.04799606  0.03258093 -0.05869623
 12   H            X -0.07263841  0.03749267  0.06572178  0.08485227 -0.00055847
                   Y -0.28789112  0.13622730  0.27016616  0.32669180 -0.00282682
                   Z  0.05558733 -0.03034391 -0.04799606 -0.06712289  0.00113220
 13   H            X  0.28564023  0.13672264  0.26683165 -0.12300048  0.30121527
                   Y -0.08103885 -0.03564405 -0.07816635  0.03413671 -0.08313044
                   Z -0.05558733 -0.03034391 -0.04799606  0.02590528 -0.06193287
 14   H            X -0.01587511 -0.02629246  0.00408251 -0.03273751  0.00446126
                   Y  0.10586196  0.14708748  0.00297201  0.19163535 -0.02647867
                   Z  0.21041028  0.28197130  0.01637088  0.37101340 -0.05152165
 15   H            X -0.08374159 -0.11423526 -0.00461509  0.09272338  0.11920047
                   Y -0.06667923 -0.09631368  0.00204955  0.07689614  0.09898222
                   Z  0.21041028  0.28197130  0.01637088 -0.23012576 -0.29554621
 16   H            X  0.09961671 -0.14052773 -0.00053258  0.09316851  0.15873536
                   Y  0.03918273 -0.05077380 -0.00502156  0.03442317  0.05877612
                   Z -0.21041028  0.28197130  0.01637088 -0.18933155 -0.32320116
 17   H            X -0.08374159  0.11423526  0.00461509 -0.07461873  0.13129517
                   Y  0.06667923 -0.09631368  0.00204955  0.06186336 -0.10901111
                   Z -0.21041028  0.28197130  0.01637088 -0.18523464  0.32556651
 18   H            X -0.01587511  0.02629246 -0.00408251  0.03303879 -0.00029274
                   Y -0.10586196  0.14708748  0.00297201  0.19345127 -0.00135359
                   Z -0.21041028  0.28197130  0.01637088  0.37456619 -0.00236535
 19   H            X  0.09961671  0.14052773  0.00053258 -0.06937413  0.17048319
                   Y -0.03918273 -0.05077380 -0.00502156  0.02561343 -0.06311529
                   Z  0.21041028  0.28197130  0.01637088 -0.14088765  0.34706786
 20   H            X -0.06115870  0.15520636 -0.24135798  0.07288655 -0.00739217
                   Y -0.00524818 -0.00650321 -0.00163877 -0.00877934  0.00118264
                   Z -0.03255945  0.07028240 -0.11692035  0.02971412 -0.00254772
 21   H            X  0.03512441 -0.07197123  0.12209820  0.01673400  0.02364035
                   Y -0.05034090  0.13766425 -0.20820275 -0.03981187 -0.05496991
                   Z -0.03255945  0.07028240 -0.11692035 -0.01706345 -0.02445932
 22   H            X  0.02603429  0.08323512 -0.11925977 -0.02357358 -0.03750538
                   Y -0.05558908 -0.13116104  0.20984152  0.03181292  0.04971056
                   Z  0.03255945  0.07028240 -0.11692035 -0.01640279 -0.02490720
 23   H            X  0.03512441  0.07197123 -0.12209820 -0.01316061  0.02580099
                   Y  0.05034090  0.13766425 -0.20820275 -0.03149345  0.06012353
                   Z  0.03255945  0.07028240 -0.11692035 -0.01336887  0.02665883
 24   H            X -0.06115870 -0.15520636  0.24135798 -0.07319202  0.00316570
                   Y  0.00524818 -0.00650321 -0.00163877 -0.00885816  0.00009212
                   Z  0.03255945  0.07028240 -0.11692035  0.02977166 -0.00175163
 25   H            X  0.02603429 -0.08323512  0.11925977  0.01793532 -0.04050545
                   Y  0.05558908 -0.13116104  0.20984152  0.02433393 -0.05376859
                   Z -0.03255945  0.07028240 -0.11692035 -0.01265067  0.02700705

 TRANS. SAYVETZ    X  0.00000000  0.00000000  0.00000000 -0.00000015 -0.00000203
                   Y  0.00000000  0.00000000 -0.00000000 -0.00000203  0.00000015
                   Z -0.00000000 -0.00000584 -0.00000005  0.00000000 -0.00000000
               TOTAL  0.00000000  0.00000584  0.00000005  0.00000204  0.00000204

   ROT. SAYVETZ    X  0.00000000 -0.00000000 -0.00000000 -0.00000104 -0.00001439
                   Y  0.00000000  0.00000000  0.00000000 -0.00001439  0.00000104
                   Z  0.00000000  0.00001015  0.00003410  0.00000000 -0.00000000
               TOTAL  0.00000000  0.00001015  0.00003410  0.00001443  0.00001443

                           71          72          73          74          75
       FREQUENCY:      3736.58     3736.58     3738.90     3739.10     3739.10  
        SYMMETRY:         E           E           A1          E           E   
    REDUCED MASS:      1.09083     1.09083     1.09051     1.09051     1.09051
    IR INTENSITY:      0.19262     0.19262     0.00000     1.42781     1.42781

  1   NI           X -0.00000096 -0.00000067 -0.00000000  0.00000697 -0.00000687
                   Y  0.00000067 -0.00000096 -0.00000000 -0.00000687 -0.00000697
                   Z  0.00000000  0.00000000 -0.00000000 -0.00000000 -0.00000000
  2   N            X -0.01366440  0.00426796 -0.02022300  0.02381792 -0.01949710
                   Y  0.03140057  0.01830694 -0.00042035 -0.00536768  0.00292290
                   Z  0.00796019  0.01903697 -0.02373386  0.02345579 -0.02024715
  3   N            X  0.02575903 -0.00863944  0.01047554  0.00988052  0.00267908
                   Y  0.01849317 -0.02111650 -0.01730346 -0.02754386 -0.01101449
                   Z -0.02046659 -0.00262476 -0.02373386 -0.02926244 -0.01018973
  4   N            X -0.03594375  0.00735219  0.00974747  0.02044487  0.00263691
                   Y -0.00612277  0.01194048 -0.01772381 -0.02318852 -0.00470449
                   Z  0.01126613 -0.01728714  0.02373386  0.03035428  0.00622406
  5   N            X  0.00050177  0.02716460  0.01047554 -0.00254315 -0.00991638
                   Y  0.01368964 -0.02450505  0.01730346 -0.01063523 -0.02769251
                   Z  0.00933804  0.01840032  0.02373386 -0.00978695 -0.02939961
  6   N            X -0.00056293 -0.01430435 -0.02022300  0.01982232 -0.02354794
                   Y -0.02777931 -0.02344034  0.00042035  0.00299633 -0.00532704
                   Z -0.02060417 -0.00111318  0.02373386 -0.02056733  0.02317555
  7   N            X -0.00513083 -0.03632743  0.00974747 -0.00235592 -0.02047915
                   Y -0.00919482  0.00977336  0.01772381 -0.00438563 -0.02325093
                   Z  0.01250641 -0.01641221 -0.02373386  0.00580666  0.03043689
  8   H            X  0.08355513  0.03636763  0.01853170 -0.03501527  0.02495311
                   Y -0.33061507 -0.13470610 -0.09058291  0.15658832 -0.11471816
                   Z  0.06406557  0.02968256  0.01171540 -0.02371845  0.01682702
  9   H            X -0.20755367  0.16254333  0.06918125  0.13428452  0.05884304
                   Y -0.20443937  0.15640270  0.06134037  0.12269839  0.05458163
                   Z -0.05773864  0.04064113  0.01171540  0.02643185  0.01212727
 10   H            X  0.34705089 -0.07339578 -0.08771295 -0.18821967 -0.02287182
                   Y  0.09789290 -0.01848900 -0.02924253 -0.05931643 -0.00778981
                   Z  0.06837152 -0.01762915 -0.01171540 -0.02891430 -0.00311074
 11   H            X  0.08350353 -0.25005203  0.06918125 -0.05699354 -0.13507987
                   Y -0.07876336  0.24505835 -0.06134037  0.05289162  0.12343632
                   Z -0.01891847  0.06802605 -0.01171540  0.01176317  0.02659589
 12   H            X  0.06228841  0.06651480  0.01853170 -0.02543158  0.03466932
                   Y  0.23780347  0.26627348  0.09058291 -0.11685757  0.15499828
                   Z -0.04945306 -0.05039690 -0.01171540  0.01715113 -0.02348515
 13   H            X  0.04727209  0.35156309 -0.08771295  0.02028508  0.18851599
                   Y -0.01541961 -0.09842306  0.02924253 -0.00697456 -0.05941780
                   Z -0.00632693 -0.07032370  0.01171540 -0.00271340 -0.02895429
 14   H            X  0.01672536  0.02285584 -0.02104116  0.01924924 -0.01663937
                   Y -0.11129729 -0.12573826  0.09991904 -0.08499166  0.07702073
                   Z -0.22094884 -0.24049006  0.18470497 -0.15335608  0.14016576
 15   H            X -0.12841863  0.02749837 -0.07601185 -0.08255064 -0.02621747
                   Y -0.10665477  0.01940573 -0.06818170 -0.07541356 -0.02477916
                   Z  0.31874492 -0.07110227  0.18470497  0.19806515  0.06272738
 16   H            X  0.12474927 -0.09943328  0.09705301  0.10925866  0.02485848
                   Y  0.04826409 -0.03493633  0.03173734  0.03430313  0.00843051
                   Z -0.26073407  0.19665097 -0.18470497 -0.20226008 -0.04749093
 17   H            X -0.01717184 -0.13020227 -0.07601185  0.02508144  0.08290287
                   Y  0.01749509  0.10698478  0.06818170 -0.02374126 -0.07574671
                   Z -0.03993771 -0.32412781 -0.18470497  0.06000169  0.19890783
 18   H            X  0.02714198  0.00808951 -0.02104116  0.01690213 -0.01901894
                   Y  0.15578687  0.06267096 -0.09991904  0.07818055 -0.08392602
                   Z  0.30067177  0.12747684 -0.18470497  0.14225839 -0.15141691
 19   H            X -0.05182609  0.15087549  0.09705301 -0.02335582 -0.10958971
                   Y  0.01672236 -0.05718681 -0.03173734  0.00795868  0.03441566
                   Z -0.09779609  0.31159234  0.18470497 -0.04470907 -0.20289315
 20   H            X  0.09034763 -0.11808127  0.28407650 -0.31486076  0.26339712
                   Y  0.00601046  0.00530010 -0.00442271  0.00344742 -0.00360198
                   Z  0.04683974 -0.05354313  0.13384223 -0.14944662  0.12452004
 21   H            X -0.02196610 -0.07085483 -0.13820807 -0.18857523 -0.06946357
                   Y  0.05323691  0.11761383  0.24822882  0.33630811  0.12268356
                   Z  0.02294984  0.06733597  0.13384223  0.18256083  0.06716456
 22   H            X  0.02782470  0.06980068 -0.14586843 -0.20581194 -0.03937768
                   Y -0.06193086 -0.11264243  0.24380611  0.34694289  0.06528156
                   Z  0.03640404  0.06111934 -0.13384223 -0.19121180 -0.03574324
 23   H            X -0.07411792  0.00307426 -0.13820807  0.06686755  0.18951131
                   Y -0.12865728 -0.01069981 -0.24822882  0.11805390  0.33796106
                   Z -0.07113292  0.00096715 -0.13384223  0.06465135  0.18346590
 24   H            X -0.08093338  0.12472237  0.28407650 -0.26769587  0.31121418
                   Y -0.00700917 -0.00388435  0.00442271 -0.00364897  0.00339763
                   Z  0.03472888 -0.06208649 -0.13384223  0.12656045 -0.14772266
 25   H            X  0.07509006  0.00279850 -0.14586843  0.03654781  0.20633326
                   Y  0.12689023  0.02055766 -0.24380611  0.06051129  0.34780660
                   Z -0.06978958 -0.01379284  0.13384223 -0.03311420 -0.19168459

 TRANS. SAYVETZ    X -0.00000076 -0.00000054  0.00000000  0.00000141 -0.00000139
                   Y  0.00000054 -0.00000076  0.00000000 -0.00000139 -0.00000141
                   Z -0.00000000 -0.00000000 -0.00000000  0.00000000  0.00000000
               TOTAL  0.00000093  0.00000093  0.00000000  0.00000198  0.00000198

   ROT. SAYVETZ    X -0.00000363 -0.00000256 -0.00000000 -0.00000627  0.00000618
                   Y  0.00000256 -0.00000363 -0.00000000  0.00000618  0.00000627
                   Z  0.00000000 -0.00000000 -0.00000000 -0.00000000 -0.00000000
               TOTAL  0.00000444  0.00000444  0.00000000  0.00000880  0.00000880

 REFERENCE ON SAYVETZ CONDITIONS - A. SAYVETZ, J.CHEM.PHYS., 7, 383-389(1939).

 NOTE - THE MODES J,K ARE ORTHONORMALIZED ACCORDING TO
 SUM ON I   M(I) * (X(I,J)*X(I,K) + Y(I,J)*Y(I,K) + Z(I,J)*Z(I,K)) = DELTA(J,K)

  MODE FREQ(CM**-1)  SYMMETRY  RED. MASS  IR INTENS.
     1       1.153    E        3.313501    0.000000
     2       1.153    E        3.313501    0.000000
     3       0.292    A2       4.324594    0.000000
     4       0.005    E        6.403610    0.000000
     5       0.005    E        6.403610    0.000000
     6       0.284    A2       4.407102    0.000000
     7      56.314    E        1.164982    0.000014
     8      56.314    E        1.164982    0.000014
     9      73.138    E        1.023280    0.000031
    10      73.138    E        1.023280    0.000031
    11     112.127    A1       1.155913    0.000000
    12     126.402    A2       1.025973    0.000219
    13     133.993    A1       2.979947    0.000000
    14     141.101    E        2.285343    0.000005
    15     141.101    E        2.285343    0.000005
    16     182.195    E        3.279089    0.029427
    17     182.195    E        3.279089    0.029427
    18     186.594    A2       3.758124    0.065355
    19     192.401    E        3.452569    0.032877
    20     192.401    E        3.452569    0.032877
    21     193.831    A1       2.357047    0.000000
    22     215.704    E        4.287376    0.000022
    23     215.704    E        4.287376    0.000022
    24     287.228    E        5.358048    0.055640
    25     287.228    E        5.358048    0.055640
    26     287.230    A2       5.272025    0.053786
    27     322.528    A1       4.498578    0.000000
    28     504.835    E        1.111116    0.000687
    29     504.835    E        1.111116    0.000687
    30     509.461    A2       1.110426    0.003268
    31     586.820    E        1.144445    0.000026
    32     586.820    E        1.144445    0.000026
    33     588.284    A1       1.139678    0.000000
    34     696.987    A2       1.200496    7.864805
    35     699.038    E        1.179252    4.395834
    36     699.038    E        1.179252    4.395834
    37     704.431    A1       1.146744    0.000000
    38     708.171    E        1.160766    3.591918
    39     708.171    E        1.160766    3.591918
    40    1412.644    E        1.175462    0.197426
    41    1412.644    E        1.175462    0.197426
    42    1421.882    A2       1.169791   13.767590
    43    1424.128    E        1.169301   13.519835
    44    1424.128    E        1.169301   13.519835
    45    1454.368    A1       1.160396    0.000000
    46    1773.031    A2       1.064521    4.093169
    47    1785.105    E        1.063961    0.025993
    48    1785.105    E        1.063961    0.025993
    49    1792.745    A1       1.063722    0.000000
    50    1794.784    E        1.063680    0.237989
    51    1794.784    E        1.063680    0.237989
    52    1797.260    E        1.064091    3.026822
    53    1797.260    E        1.064091    3.026822
    54    1800.588    A1       1.063699    0.000000
    55    1810.396    E        1.064564    0.956037
    56    1810.396    E        1.064564    0.956037
    57    1815.490    A2       1.064541    0.034062
    58    3584.711    A2       1.028363    0.432560
    59    3584.749    E        1.028252    0.009096
    60    3584.749    E        1.028252    0.009096
    61    3586.053    E        1.028333    0.399998
    62    3586.053    E        1.028333    0.399998
    63    3588.152    A1       1.028856    0.000000
    64    3734.583    E        1.090964    0.098560
    65    3734.583    E        1.090964    0.098560
    66    3735.617    A1       1.090870    0.000000
    67    3735.851    A2       1.090988    3.068659
    68    3736.184    A2       1.090697    0.665692
    69    3736.400    E        1.090916    1.961236
    70    3736.400    E        1.090916    1.961236
    71    3736.575    E        1.090831    0.192625
    72    3736.575    E        1.090831    0.192625
    73    3738.896    A1       1.090511    0.000000
    74    3739.100    E        1.090512    1.427813
    75    3739.100    E        1.090512    1.427813

     -------------------------------
     THERMOCHEMISTRY AT T=  298.15 K
     -------------------------------

 USING IDEAL GAS, RIGID ROTOR, HARMONIC NORMAL MODE APPROXIMATIONS.
 P=  1.01325E+05 PASCAL.
 ALL FREQUENCIES ARE SCALED BY   1.00000
 THE MOMENTS OF INERTIA ARE (IN AMU*BOHR**2)
   1349.22915  1353.91731  1353.91731
 THE ROTATIONAL SYMMETRY NUMBER IS  6.0
 THE ROTATIONAL CONSTANTS ARE (IN GHZ)
      1.33638     1.33176     1.33176
      7 -     75 VIBRATIONAL MODES ARE USED IN THERMOCHEMISTRY.
 THE HARMONIC ZERO POINT ENERGY IS (SCALED BY   1.000)
        0.245169 HARTREE/MOLECULE    53808.413466 CM**-1/MOLECULE 
      153.846129 KCAL/MOL              643.692202 KJ/MOL

               Q               LN Q
 ELEC.     3.00000E+00       1.098612
 TRANS.    7.96194E+07      18.192768
 ROT.      9.38264E+04      11.449202
 VIB.      2.79613E+06      14.843747
 TOT.      6.26646E+19      45.584328

              E         H         G         CV        CP        S
           KJ/MOL    KJ/MOL    KJ/MOL   J/MOL-K   J/MOL-K   J/MOL-K
 ELEC.      0.000     0.000    -2.723     0.000     0.000     9.134
 TRANS.     3.718     6.197   -45.099    12.472    20.786   172.048
 ROT.       3.718     3.718   -28.382    12.472    12.472   107.665
 VIB.     682.397   682.397   606.895   216.340   216.340   253.235
 TOTAL    689.834   692.313   530.691   241.283   249.598   542.082
 VIB. THERMAL CORRECTION E(T)-E(0) = H(T)-H(0) = 38705.100 J/MOL

              E         H         G         CV        CP        S
         KCAL/MOL  KCAL/MOL  KCAL/MOL CAL/MOL-K CAL/MOL-K CAL/MOL-K
 ELEC.      0.000     0.000    -0.651     0.000     0.000     2.183
 TRANS.     0.889     1.481   -10.779     2.981     4.968    41.120
 ROT.       0.889     0.889    -6.783     2.981     2.981    25.733
 VIB.     163.097   163.097   145.051    51.707    51.707    60.525
 TOTAL    164.874   165.467   126.838    57.668    59.655   129.561
 VIB. THERMAL CORRECTION E(T)-E(0) = H(T)-H(0) =  9250.741 CAL/MOL
 ......END OF NORMAL COORDINATE ANALYSIS......
 STEP CPU TIME =     0.01 TOTAL CPU TIME =       83.9 (    1.4 MIN)
 TOTAL WALL CLOCK TIME=       86.0 SECONDS, CPU UTILIZATION IS  97.60%
              2889363  WORDS OF DYNAMIC MEMORY USED
 EXECUTION OF GAMESS TERMINATED NORMALLY Mon Nov 28 23:30:55 2016
 DDI: 263640 bytes (0.3 MB / 0 MWords) used by master data server.

 ----------------------------------------
 CPU timing information for all processes
 ========================================
 0: 83.605 + 0.333 = 83.939
 ----------------------------------------
 ddikick.x: exited gracefully.
unset echo
----- accounting info -----
Files used on the master node compute-3-0 were:
-rw-rw-r-- 1 sarom sarom  425921 Nov 29  2016 .//niamm.dat
-rw-rw-r-- 1 sarom sarom  229769 Nov 29  2016 .//niamm.F05
-rw-rw-r-- 1 sarom sarom 5137040 Nov 29  2016 .//niamm.F10
-rw-rw-r-- 1 sarom sarom 8426400 Nov 29  2016 .//niamm.F18
-rw-rw-r-- 1 sarom sarom  229769 Nov 28 17:27 .//niamm.inp
-rw-rw-r-- 1 sarom sarom  439854 Nov 29  2016 .//niamm.log
Mon Nov 28 23:31:11 CST 2016
0.203u 0.254s 1:42.41 0.4%	0+0k 0+584io 0pf+0w
