----- GAMESS execution script 'rungms' -----
This job is running on host compute-3-0
under operating system Linux at Mon Nov 28 21:22:26 CST 2016
Available scratch disk space (Kbyte units) at beginning of the job is
Filesystem            1K-blocks       Used  Available Use% Mounted on
bolt.local:/export/home/sarom
                     9590469632 1552972800 7550328832  18% /home/sarom
Copying input file mc-detpt-bic-ts.inp to your run's scratch directory...
cp mc-detpt-bic-ts.inp .//mc-detpt-bic-ts.F05
unset echo
/home/sarom/gamessGH/ddikick.x /home/sarom/gamessGH/gamess.00.x mc-detpt-bic-ts -ddi 1 1 localhost -scr ./

 Distributed Data Interface kickoff program.
 Initiating 1 compute processes on 1 nodes to run the following command:
 /home/sarom/gamessGH/gamess.00.x mc-detpt-bic-ts 

          ******************************************************
          *         GAMESS VERSION = 18 AUG 2016 (R1)          *
          *             FROM IOWA STATE UNIVERSITY             *
          * M.W.SCHMIDT, K.K.BALDRIDGE, J.A.BOATZ, S.T.ELBERT, *
          *   M.S.GORDON, J.H.JENSEN, S.KOSEKI, N.MATSUNAGA,   *
          *          K.A.NGUYEN, S.J.SU, T.L.WINDUS,           *
          *       TOGETHER WITH M.DUPUIS, J.A.MONTGOMERY       *
          *         J.COMPUT.CHEM.  14, 1347-1363(1993)        *
          **************** 64 BIT LINUX VERSION ****************

  SINCE 1993, STUDENTS AND POSTDOCS WORKING AT IOWA STATE UNIVERSITY
  AND ALSO IN THEIR VARIOUS JOBS AFTER LEAVING ISU HAVE MADE IMPORTANT
  CONTRIBUTIONS TO THE CODE:
     IVANA ADAMOVIC, CHRISTINE AIKENS, YURI ALEXEEV, POOJA ARORA,
     ANDREY ASADCHEV, ROB BELL, PRADIPTA BANDYOPADHYAY, JONATHAN BENTZ,
     BRETT BODE, KURT BRORSEN, CALEB CARLIN, GALINA CHABAN, WEI CHEN,
     CHEOL HO CHOI, PAUL DAY, ALBERT DEFUSCO, NUWAN DESILVA, TIM DUDLEY,
     DMITRI FEDOROV, GRAHAM FLETCHER, MARK FREITAG, KURT GLAESEMANN,
     DAN KEMP, GRANT MERRILL, NORIYUKI MINEZAWA, JONATHAN MULLIN,
     TAKESHI NAGATA, SEAN NEDD, HEATHER NETZLOFF, BOSILJKA NJEGIC, RYAN OLSON,
     MIKE PAK, SPENCER PRUITT, LUKE ROSKOP, JIM SHOEMAKER, LYUDMILA SLIPCHENKO,
     TONY SMITH, SAROM SOK LEANG, JIE SONG, TETSUYA TAKETSUGU, SIMON WEBB,
     PENG XU, SOOHAENG YOO, FEDERICO ZAHARIEV

  ADDITIONAL CODE HAS BEEN PROVIDED BY COLLABORATORS IN OTHER GROUPS:
     IOWA STATE UNIVERSITY:
          JOE IVANIC, AARON WEST, LAIMUTIS BYTAUTAS, KLAUS RUEDENBERG
     UNIVERSITY OF TOKYO: KIMIHIKO HIRAO, TAKAHITO NAKAJIMA,
          TAKAO TSUNEDA, MUNEAKI KAMIYA, SUSUMU YANAGISAWA,
          KIYOSHI YAGI, MAHITO CHIBA, SEIKEN TOKURA, NAOAKI KAWAKAMI
     UNIVERSITY OF AARHUS: FRANK JENSEN
     UNIVERSITY OF IOWA: VISVALDAS KAIRYS, HUI LI
     NATIONAL INST. OF STANDARDS AND TECHNOLOGY: WALT STEVENS, DAVID GARMER
     UNIVERSITY OF PISA: BENEDETTA MENNUCCI, JACOPO TOMASI
     UNIVERSITY OF MEMPHIS: HENRY KURTZ, PRAKASHAN KORAMBATH
     UNIVERSITY OF ALBERTA: TOBY ZENG, MARIUSZ KLOBUKOWSKI
     UNIVERSITY OF NEW ENGLAND: MARK SPACKMAN
     MIE UNIVERSITY: HIROAKI UMEDA
     NAT. INST. OF ADVANCED INDUSTRIAL SCIENCE AND TECHNOLOGY: KAZUO KITAURA
     MICHIGAN STATE UNIVERSITY:
          KAROL KOWALSKI, MARTA WLOCH, JEFFREY GOUR, JESSE LUTZ,
          WEI LI, PIOTR PIECUCH
     UNIVERSITY OF SILESIA: MONIKA MUSIAL, STANISLAW KUCHARSKI
     FACULTES UNIVERSITAIRES NOTRE-DAME DE LA PAIX:
          OLIVIER QUINET, BENOIT CHAMPAGNE
     UNIVERSITY OF CALIFORNIA - SANTA BARBARA: BERNARD KIRTMAN
     INSTITUTE FOR MOLECULAR SCIENCE:
          KAZUYA ISHIMURA, MICHIO KATOUDA, AND SHIGERU NAGASE
     UNIVERSITY OF NOTRE DAME: ANNA POMOGAEVA, DAN CHIPMAN
     KYUSHU UNIVERSITY:
          HARUYUKI NAKANO,
          FENG LONG GU, JACEK KORCHOWIEC, MARCIN MAKOWSKI, AND YURIKO AOKI,
          HIROTOSHI MORI AND EISAKU MIYOSHI
     PENNSYLVANIA STATE UNIVERSITY:
          TZVETELIN IORDANOV, CHET SWALINA, JONATHAN SKONE,
          SHARON HAMMES-SCHIFFER
     WASEDA UNIVERSITY:
          MASATO KOBAYASHI, TOMOKO AKAMA, TSUGUKI TOUMA,
          TAKESHI YOSHIKAWA, YASUHIRO IKABATA, JUNJI SEINO,
          YUYA NAKAJIMA, HIROMI NAKAI
     NANJING UNIVERSITY: SHUHUA LI
     UNIVERSITY OF NEBRASKA:
          PEIFENG SU, DEJUN SI, NANDUN THELLAMUREGE, YALI WANG, HUI LI
     UNIVERSITY OF ZURICH: ROBERTO PEVERATI, KIM BALDRIDGE
     N. COPERNICUS UNIVERSITY AND JACKSON STATE UNIVERSITY:
          MARIA BARYSZ
     UNIVERSITY OF COPENHAGEN: Jimmy Kromann, CASPER STEINMANN
     TOKYO INSTITUTE OF TECHNOLOGY: HIROYA NAKATA
     NAGOYA UNIVERSITY: YOSHIO NISHIMOTO, STEPHAN IRLE
     MOSCOW STATE UNIVERSITY: VLADIMIR MIRONOV

 EXECUTION OF GAMESS BEGUN Mon Nov 28 21:22:26 2016

            ECHO OF THE FIRST FEW INPUT CARDS -
 INPUT CARD>!   transition state between short and long bond isomers.  (see long input)     
 INPUT CARD>!                                                                               
 INPUT CARD>!     FINAL MCSCF E= -1159.1455448906, 2 iters, E(MP2)= -1159.4191305499        
 INPUT CARD>!                                                                               
 INPUT CARD>!   This run takes 19 seconds on 2.66 GHz Cloverton (27 Apr 2015)               
 INPUT CARD>!                                                                               
 INPUT CARD> $contrl scftyp=mcscf runtyp=energy mplevl=2 molplt=.t. nzvar=24 $end           
 INPUT CARD> $system mwords=5 $end                                                          
 INPUT CARD> $basis  gbasis=n31 ngauss=6 ndfunc=1 $end                                      
 INPUT CARD> $zmat   izmat(1)=1,1,2,  1,1,4,  1,1,3,  1,2,4,  1,2,3,  3,3,2,1,4,            
 INPUT CARD>            1,1,5, 2,5,1,2, 3,5,1,2,4,                                          
 INPUT CARD>            1,6,2, 2,6,2,1, 3,6,2,1,3,                                          
 INPUT CARD>            1,3,7, 1,3,9,  2,7,3,9,  6,7,9,3,1,2,  2,7,3,1, 2,7,3,2,            
 INPUT CARD>            1,4,8, 1,4,10, 2,8,4,10, 6,8,10,4,1,2, 2,8,4,1, 2,8,4,2 $end        
 INPUT CARD> $guess  guess=moread norb=88  $end                                             
 INPUT CARD>--- $scf    nco=30 npair=1 $end                                                 
 INPUT CARD> $mcscf  cistep=aldet fullnr=.true. $end                                        
 INPUT CARD> $det    stsym=A1 ncore=26 nact=10 nels=10 $end                                 
 INPUT CARD> $mrmp   mrpt=detmrpt $end                                                      
 INPUT CARD> $statpt opttol=1d-5 nstep=100 $end                                             
 INPUT CARD> $force  nvib=2 $end                                                            
 INPUT CARD> $data                                                                          
 INPUT CARD>transition state for the isomerization of tetrasilabicylo[1.0.0]butane          
 INPUT CARD>Cnv 2                                                                           
 INPUT CARD>                                                                                
 INPUT CARD>SI         14.0   1.2510188088   0.0000000000   0.1361230802                    
 INPUT CARD>SI         14.0   0.0000000000   1.7931284825  -0.7036556793                    
 INPUT CARD>H           1.0   2.2685946097  -0.0000000000   1.2073445303                    
 INPUT CARD>H           1.0  -0.0000000000   2.9803987959   0.1781908769                    
 INPUT CARD>H           1.0   0.0000000000   2.2053731730  -2.1243734091                    
 INPUT CARD> $end                                                                           
 INPUT CARD>                                                                                
 INPUT CARD>============= RHF/6-31G(d) transition state                                     
 INPUT CARD>SI         14.0   1.2422521782  -0.0000000000   0.0927205015                    
 INPUT CARD>SI         14.0   0.0000000000   1.7805467394  -0.6665313993                    
 INPUT CARD>H           1.0   2.1028687323   0.0000000000   1.2924033535                    
 INPUT CARD>H           1.0  -0.0000000000   2.9590748944   0.2261142365                    
 INPUT CARD>H           1.0   0.0000000000   2.1989120312  -2.0830718400                    
 INPUT CARD>                                                                                
 INPUT CARD>============= GVB/6-31G(d) transition state                                     
 INPUT CARD>SI         14.0   1.2634629909  -0.0000000000   0.0942650149                    
 INPUT CARD>SI         14.0  -0.0000000000   1.7717826171  -0.6644322225                    
 INPUT CARD>H           1.0   2.2486333731  -0.0000000000   1.1942190254                    
 INPUT CARD>H           1.0  -0.0000000000   2.9564543362   0.2211779357                    
 INPUT CARD>H           1.0   0.0000000000   2.1938730116  -2.0810989944                    
 INPUT CARD>                                                                                
 INPUT CARD>============= MCSCF/6-31G(d) transition state                                   
 INPUT CARD>SI         14.0   1.2510188088   0.0000000000   0.1361230802                    
 INPUT CARD>SI         14.0   0.0000000000   1.7931284825  -0.7036556793                    
 INPUT CARD>H           1.0   2.2685946097  -0.0000000000   1.2073445303                    
    5000000 WORDS OF MEMORY AVAILABLE

     BASIS OPTIONS
     -------------
     GBASIS=N31          IGAUSS=       6      POLAR=POPN31  
     NDFUNC=       1     NFFUNC=       0     DIFFSP=       F
     NPFUNC=       0      DIFFS=       F     BASNAM=        


     RUN TITLE
     ---------
 transition state for the isomerization of tetrasilabicylo[1.0.0]butane          

 THE POINT GROUP OF THE MOLECULE IS CNV     
 THE ORDER OF THE PRINCIPAL AXIS IS     2

 ATOM      ATOMIC                      COORDINATES (BOHR)
           CHARGE         X                   Y                   Z
 SI         14.0    -2.3640827541        0.0000000000        0.2572353222
 SI         14.0     2.3640827541        0.0000000000        0.2572353222
 SI         14.0    -0.0000000000       -3.3885214927       -1.3297164236
 SI         14.0     0.0000000000        3.3885214927       -1.3297164236
 H           1.0    -4.2870221896        0.0000000000        2.2815503350
 H           1.0     4.2870221896       -0.0000000000        2.2815503350
 H           1.0    -0.0000000000       -5.6321370584        0.3367319309
 H           1.0    -0.0000000000        5.6321370584        0.3367319309
 H           1.0    -0.0000000000       -4.1675509976       -4.0144836388
 H           1.0     0.0000000000        4.1675509976       -4.0144836388

          INTERNUCLEAR DISTANCES (ANGS.)
          ------------------------------

                1 SI         2 SI         3 SI         4 SI         5 H     

   1 SI      0.0000000    2.5020376 *  2.3421328 *  2.3421328 *  1.4774897 *
   2 SI      2.5020376 *  0.0000000    2.3421328 *  2.3421328 *  3.6790208  
   3 SI      2.3421328 *  2.3421328 *  0.0000000    3.5862570    3.4660861  
   4 SI      2.3421328 *  2.3421328 *  3.5862570    0.0000000    3.4660861  
   5 H       1.4774897 *  3.6790208    3.4660861    3.4660861    0.0000000  
   6 H       3.6790208    1.4774897 *  3.4660861    3.4660861    4.5371892  
   7 H       3.2325833    3.2325833    1.4789402 *  4.8542987    3.8843861  
   8 H       3.2325833    3.2325833    4.8542987    1.4789402 *  3.8843861  
   9 H       3.3968461    3.3968461    1.4793189 *  4.2434013    4.5946204  
  10 H       3.3968461    3.3968461    4.2434013    1.4793189 *  4.5946204  

                6 H          7 H          8 H          9 H         10 H     

   1 SI      3.6790208    3.2325833    3.2325833    3.3968461    3.3968461  
   2 SI      1.4774897 *  3.2325833    3.2325833    3.3968461    3.3968461  
   3 SI      3.4660861    1.4789402 *  4.8542987    1.4793189 *  4.2434013  
   4 SI      3.4660861    4.8542987    1.4789402 *  4.2434013    1.4793189 *
   5 H       4.5371892    3.8843861    3.8843861    4.5946204    4.5946204  
   6 H       0.0000000    3.8843861    3.8843861    4.5946204    4.5946204  
   7 H       3.8843861    0.0000000    5.9607976    2.4294993 *  5.6739786  
   8 H       3.8843861    5.9607976    0.0000000    5.6739786    2.4294993 *
   9 H       4.5946204    2.4294993 *  5.6739786    0.0000000    4.4107463  
  10 H       4.5946204    5.6739786    2.4294993 *  4.4107463    0.0000000  

  * ... LESS THAN  3.000


     ATOMIC BASIS SET
     ----------------
 THE CONTRACTED PRIMITIVE FUNCTIONS HAVE BEEN UNNORMALIZED
 THE CONTRACTED BASIS FUNCTIONS ARE NOW NORMALIZED TO UNITY

  SHELL TYPE  PRIMITIVE        EXPONENT          CONTRACTION COEFFICIENT(S)

 SI        

      6   S       1         16192.1000000    0.001949239405
      6   S       2          2436.0900000    0.014855895466
      6   S       3           556.0010000    0.072568877851
      6   S       4           156.8130000    0.245654925022
      6   S       5            50.1692000    0.486059851646
      6   S       6            17.0300000    0.325719900585

      7   L       7           293.3500000   -0.002829912441    0.004433341604
      7   L       8            70.1173000   -0.036073731114    0.032440211739
      7   L       9            22.4301000   -0.116808100749    0.133719048387
      7   L      10             8.1942500    0.093576880711    0.326780118247
      7   L      11             3.1476800    0.601705518979    0.451139163247
      7   L      12             1.2151500    0.422072364043    0.264105095568

      8   L      13             1.6537000   -0.240599186106   -0.015177406538
      8   L      14             0.5407600    0.073795050368    0.275139118516
      8   L      15             0.2044060    1.040936478740    0.783008337279

      9   L      16             0.0723837    1.000000000000    1.000000000000

     10   D      17             0.3950000    1.000000000000

 SI        

     16   S      18         16192.1000000    0.001949239405
     16   S      19          2436.0900000    0.014855895466
     16   S      20           556.0010000    0.072568877851
     16   S      21           156.8130000    0.245654925022
     16   S      22            50.1692000    0.486059851646
     16   S      23            17.0300000    0.325719900585

     17   L      24           293.3500000   -0.002829912441    0.004433341604
     17   L      25            70.1173000   -0.036073731114    0.032440211739
     17   L      26            22.4301000   -0.116808100749    0.133719048387
     17   L      27             8.1942500    0.093576880711    0.326780118247
     17   L      28             3.1476800    0.601705518979    0.451139163247
     17   L      29             1.2151500    0.422072364043    0.264105095568

     18   L      30             1.6537000   -0.240599186106   -0.015177406538
     18   L      31             0.5407600    0.073795050368    0.275139118516
     18   L      32             0.2044060    1.040936478740    0.783008337279

     19   L      33             0.0723837    1.000000000000    1.000000000000

     20   D      34             0.3950000    1.000000000000

 H         

     23   S      35            18.7311370    0.033494604338
     23   S      36             2.8253944    0.234726953484
     23   S      37             0.6401217    0.813757326146

     24   S      38             0.1612778    1.000000000000

 H         

     27   S      39            18.7311370    0.033494604338
     27   S      40             2.8253944    0.234726953484
     27   S      41             0.6401217    0.813757326146

     28   S      42             0.1612778    1.000000000000

 H         

     31   S      43            18.7311370    0.033494604338
     31   S      44             2.8253944    0.234726953484
     31   S      45             0.6401217    0.813757326146

     32   S      46             0.1612778    1.000000000000

 TOTAL NUMBER OF BASIS SET SHELLS             =   32
 NUMBER OF CARTESIAN GAUSSIAN BASIS FUNCTIONS =   88
 NUMBER OF ELECTRONS                          =   62
 CHARGE OF MOLECULE                           =    0
 SPIN MULTIPLICITY                            =    1
 NUMBER OF OCCUPIED ORBITALS (ALPHA)          =   31
 NUMBER OF OCCUPIED ORBITALS (BETA )          =   31
 TOTAL NUMBER OF ATOMS                        =   10
 THE NUCLEAR REPULSION ENERGY IS      316.5391672812

     $CONTRL OPTIONS
     ---------------
 SCFTYP=MCSCF        RUNTYP=ENERGY       EXETYP=RUN     
 MPLEVL=       2     CITYP =NONE         CCTYP =NONE         VBTYP =NONE    
 DFTTYP=NONE         TDDFT =NONE    
 MULT  =       1     ICHARG=       0     NZVAR =      24     COORD =UNIQUE  
 PP    =NONE         RELWFN=NONE         LOCAL =NONE         NUMGRD=       F
 ISPHER=      -1     NOSYM =       0     MAXIT =      30     UNITS =ANGS    
 PLTORB=       F     MOLPLT=       T     AIMPAC=       F     FRIEND=        
 NPRINT=       7     IREST =       0     GEOM  =INPUT   
 NORMF =       0     NORMP =       0     ITOL  =      20     ICUT  =       9
 INTTYP=BEST         GRDTYP=BEST         QMTTOL= 1.0E-06

     $SYSTEM OPTIONS
     ---------------
  REPLICATED MEMORY=     5000000 WORDS (ON EVERY NODE).
 DISTRIBUTED MEMDDI=           0 MILLION WORDS IN AGGREGATE,
 MEMDDI DISTRIBUTED OVER   1 PROCESSORS IS           0 WORDS/PROCESSOR.
 TOTAL MEMORY REQUESTED ON EACH PROCESSOR=     5000000 WORDS.
 TIMLIM=      525600.00 MINUTES, OR     365.0 DAYS.
 PARALL= F  BALTYP=  DLB     KDIAG=    0  COREFL= F
 MXSEQ2=     300 MXSEQ3=     150  mem10=         0

          ----------------
          PROPERTIES INPUT
          ----------------

     MOMENTS            FIELD           POTENTIAL          DENSITY
 IEMOM =       1   IEFLD =       0   IEPOT =       0   IEDEN =       0
 WHERE =COMASS     WHERE =NUCLEI     WHERE =NUCLEI     WHERE =NUCLEI  
 OUTPUT=BOTH       OUTPUT=BOTH       OUTPUT=BOTH       OUTPUT=BOTH    
 IEMINT=       0   IEFINT=       0                     IEDINT=       0
                                                       MORB  =       0

     -------------------------------
     INTEGRAL TRANSFORMATION OPTIONS
     -------------------------------
     NWORD  =            0
     CUTOFF = 1.0E-09     MPTRAN =       0
     DIRTRF =       F     AOINTS =DUP     

          ----------------------
          MCSCF INPUT PARAMETERS
          ----------------------
 CONVERGER SELECTION: FOCAS = F  SOSCF = F  FULLNR = T  QUD = F  JACOBI = F
 SECULAR EQUATION METHOD CISTEP = ALDET   
 --- GENERAL INPUT OPTIONS:
 MAXIT =      30  MICIT =       1  ACURCY= 1.000E-06
 DAMP  =   0.000  CANONC=       T  ENGTOL= 1.000E-10
 EKT   =       F  NPUNCH=       2  NWORD =         0
 REGENERATE CI AFTER CONVERGENCE = NONE    
 DIABATIZATION AFTER CONVERGENCE =        F
 --- INPUT FOR FULLNR CONVERGER:
 METHOD=DM2       FORS  =       F  DROPC =       T
 LINSER=       F  FCORE =       F  NORB  =      88

          ----------------------
          INTEGRAL INPUT OPTIONS
          ----------------------
 NOPK  =       1 NORDER=       0 SCHWRZ=       T

 ------------------------------------------
 MULTIREFERENCE PERTURBATION THEORY CONTROL
 ------------------------------------------
 MRPT=DETMRPT  READ CONVERGED MCSCF VECTORS= F


   --- ENCODED Z MATRIX ---
 COORD  TYPE   I   J   K   L   M   N
    1      1    1   2
    2      1    1   4
    3      1    1   3
    4      1    2   4
    5      1    2   3
    6      3    3   2   1   4
    7      1    1   5
    8      2    5   1   2
    9      3    5   1   2   4
   10      1    6   2
   11      2    6   2   1
   12      3    6   2   1   3
   13      1    3   7
   14      1    3   9
   15      2    7   3   9
   16      6    7   9   3   1   2
   17      2    7   3   1
   18      2    7   3   2
   19      1    4   8
   20      1    4  10
   21      2    8   4  10
   22      6    8  10   4   1   2
   23      2    8   4   1
   24      2    8   4   2

 THE DETERMINANT OF THE G MATRIX IS 10**(   -20)


                     --------------------
                     INTERNAL COORDINATES
                     --------------------

                 - - ATOMS - -         COORDINATE      COORDINATE
 NO.   TYPE    I  J  K  L  M  N        (BOHR,RAD)       (ANG,DEG)
 ----------------------------------------------------------------
   1 STRETCH   1  2                     4.7281655       2.5020376
   2 STRETCH   1  4                     4.4259893       2.3421328
   3 STRETCH   1  3                     4.4259893       2.3421328
   4 STRETCH   2  4                     4.4259893       2.3421328
   5 STRETCH   2  3                     4.4259893       2.3421328
   6 TORSION   3  2  1  4              -2.2656057    -129.8096431
   7 STRETCH   1  5                     2.7920507       1.4774897
   8 BEND      5  1  2                  2.3305176     133.5288214
   9 TORSION   5  1  2  4              -2.0087898    -115.0951784
  10 STRETCH   6  2                     2.7920507       1.4774897
  11 BEND      6  2  1                  2.3305176     133.5288214
  12 TORSION   6  2  1  3              -2.0087898    -115.0951784
  13 STRETCH   3  7                     2.7947917       1.4789402
  14 STRETCH   3  9                     2.7955075       1.4793189
  15 BEND      7  3  9                  1.9272311     110.4222081
  16 DIHED. 5  7  9  3  1  2           -1.5707963     -90.0000000
  17 BEND      7  3  1                  1.9832024     113.6291268
  18 BEND      7  3  2                  1.9832024     113.6291268
  19 STRETCH   4  8                     2.7947917       1.4789402
  20 STRETCH   4 10                     2.7955075       1.4793189
  21 BEND      8  4 10                  1.9272311     110.4222081
  22 DIHED. 5  8 10  4  1  2            1.5707963      90.0000000
  23 BEND      8  4  1                  1.9832024     113.6291268
  24 BEND      8  4  2                  1.9832024     113.6291268

     ------------------------------------------
     THE POINT GROUP IS CNV, NAXIS= 2, ORDER= 4
     ------------------------------------------

     DIMENSIONS OF THE SYMMETRY SUBSPACES ARE
 A1  =   34     A2  =   10     B1  =   21     B2  =   23

 ..... DONE SETTING UP THE RUN .....
 STEP CPU TIME =     0.20 TOTAL CPU TIME =        0.2 (    0.0 MIN)
 TOTAL WALL CLOCK TIME=        0.3 SECONDS, CPU UTILIZATION IS  74.07%

          ********************
          1 ELECTRON INTEGRALS
          ********************
 TIME TO DO   DIPOLE INTEGRALS=      0.01
 ...... END OF ONE-ELECTRON INTEGRALS ......
 STEP CPU TIME =     0.01 TOTAL CPU TIME =        0.2 (    0.0 MIN)
 TOTAL WALL CLOCK TIME=        0.3 SECONDS, CPU UTILIZATION IS  77.78%

          -------------
          GUESS OPTIONS
          -------------
          GUESS =MOREAD            NORB  =      88          NORDER=       0
          MIX   =       F          PRTMO =       F          PUNMO =       F
          TOLZ  = 1.0E-08          TOLE  = 1.0E-05
          SYMDEN=       F          PURIFY=       F

 INITIAL GUESS ORBITALS GENERATED BY MOREAD   ROUTINE.

 SYMMETRIES FOR INITIAL GUESS ORBITALS FOLLOW.   BOTH SET(S).
    31 ORBITALS ARE OCCUPIED (   20 CORE ORBITALS).
     1=B2       2=A1       3=B1       4=A1       5=B2       6=A1       7=B1  
     8=A1       9=A1      10=B2      11=B1      12=A2      13=B2      14=A1  
    15=B1      16=A1      17=A1      18=B1      19=A2      20=B2      21=A1  
    22=B2      23=A1      24=B1      25=A1      26=B2      27=A1      28=B2  
    29=B1      30=A2      31=A1      32=B1      33=A1      34=B1      35=B2  
    36=A2      37=A1      38=A1      39=B2      40=B1      41=A1      42=B2  
    43=B2      44=A1      45=A2      46=B1      47=B2      48=A1      49=A2  
    50=A1      51=B1      52=B2      53=A1      54=B1      55=B1      56=A1  
    57=B2      58=A1      59=A2      60=A1      61=B2      62=B1      63=A1  
    64=A2      65=B2      66=B1      67=A1      68=B2      69=A1      70=A2  
    71=B1      72=B2      73=A1      74=A1      75=B1      76=B1      77=B2  
    78=A2      79=A1      80=B2      81=A1      82=B1      83=B2      84=A1  
    85=A1      86=B2      87=B1      88=A1  
 ...... END OF INITIAL ORBITAL SELECTION ......
 STEP CPU TIME =     0.02 TOTAL CPU TIME =        0.2 (    0.0 MIN)
 TOTAL WALL CLOCK TIME=        0.3 SECONDS, CPU UTILIZATION IS  79.31%

                    ----------------------
                    AO INTEGRAL TECHNOLOGY
                    ----------------------
     S,P,L SHELL ROTATED AXIS INTEGRALS, REPROGRAMMED BY
        KAZUYA ISHIMURA (IMS) AND JOSE SIERRA (SYNSTAR).
     S,P,D,L SHELL ROTATED AXIS INTEGRALS PROGRAMMED BY
        KAZUYA ISHIMURA (INSTITUTE FOR MOLECULAR SCIENCE).
     S,P,D,F,G SHELL TO TOTAL QUARTET ANGULAR MOMENTUM SUM 5,
        ERIC PROGRAM BY GRAHAM FLETCHER (ELORET AND NASA ADVANCED
        SUPERCOMPUTING DIVISION, AMES RESEARCH CENTER).
     S,P,D,F,G,L SHELL GENERAL RYS QUADRATURE PROGRAMMED BY
        MICHEL DUPUIS (PACIFIC NORTHWEST NATIONAL LABORATORY).

          --------------------
          2 ELECTRON INTEGRALS
          --------------------

 THE -PK- OPTION IS OFF, THE INTEGRALS ARE NOT IN SUPERMATRIX FORM.
 STORING   15000 INTEGRALS/RECORD ON DISK, USING 12 BYTES/INTEGRAL.
 TWO ELECTRON INTEGRAL EVALUATION REQUIRES   90924 WORDS OF MEMORY.
 SCHWARZ INEQUALITY OVERHEAD:      3897 INTEGRALS, T=        0.01
 II,JST,KST,LST =  1  1  1  1 NREC =         1 INTLOC =    1
 II,JST,KST,LST =  2  1  1  1 NREC =         1 INTLOC =    1
 II,JST,KST,LST =  3  1  1  1 NREC =         1 INTLOC =    1
 II,JST,KST,LST =  4  1  1  1 NREC =         1 INTLOC =    1
 II,JST,KST,LST =  5  1  1  1 NREC =         1 INTLOC =    1
 II,JST,KST,LST =  6  1  1  1 NREC =         1 INTLOC =    1
 II,JST,KST,LST =  7  1  1  1 NREC =         1 INTLOC =    3
 II,JST,KST,LST =  8  1  1  1 NREC =         1 INTLOC =  160
 II,JST,KST,LST =  9  1  1  1 NREC =         1 INTLOC = 1953
 II,JST,KST,LST = 10  1  1  1 NREC =         1 INTLOC = 8459
 II,JST,KST,LST = 11  1  1  1 NREC =         3 INTLOC = 5745
 II,JST,KST,LST = 12  1  1  1 NREC =         3 INTLOC = 5745
 II,JST,KST,LST = 13  1  1  1 NREC =         3 INTLOC = 5745
 II,JST,KST,LST = 14  1  1  1 NREC =         3 INTLOC = 5745
 II,JST,KST,LST = 15  1  1  1 NREC =         3 INTLOC = 5745
 II,JST,KST,LST = 16  1  1  1 NREC =         3 INTLOC = 5745
 II,JST,KST,LST = 17  1  1  1 NREC =         4 INTLOC = 1576
 II,JST,KST,LST = 18  1  1  1 NREC =         9 INTLOC =  197
 II,JST,KST,LST = 19  1  1  1 NREC =        18 INTLOC = 3968
 II,JST,KST,LST = 20  1  1  1 NREC =        32 INTLOC = 6651
 II,JST,KST,LST = 21  1  1  1 NREC =        64 INTLOC = 6704
 II,JST,KST,LST = 22  1  1  1 NREC =        64 INTLOC = 6704
 II,JST,KST,LST = 23  1  1  1 NREC =        64 INTLOC = 6704
 II,JST,KST,LST = 24  1  1  1 NREC =        70 INTLOC = 9017
 II,JST,KST,LST = 25  1  1  1 NREC =        78 INTLOC =11789
 II,JST,KST,LST = 26  1  1  1 NREC =        78 INTLOC =11789
 II,JST,KST,LST = 27  1  1  1 NREC =        78 INTLOC =11789
 II,JST,KST,LST = 28  1  1  1 NREC =        85 INTLOC = 4883
 II,JST,KST,LST = 29  1  1  1 NREC =        94 INTLOC = 6475
 II,JST,KST,LST = 30  1  1  1 NREC =        94 INTLOC = 6475
 II,JST,KST,LST = 31  1  1  1 NREC =        94 INTLOC = 6475
 II,JST,KST,LST = 32  1  1  1 NREC =       102 INTLOC = 3260
 SCHWARZ INEQUALITY TEST SKIPPED        9013 INTEGRAL BLOCKS.
 TOTAL NUMBER OF NONZERO TWO-ELECTRON INTEGRALS =             1678321
        112 INTEGRAL RECORDS WERE STORED ON DISK FILE  8.
  ...... END OF TWO-ELECTRON INTEGRALS .....
 STEP CPU TIME =     0.21 TOTAL CPU TIME =        0.4 (    0.0 MIN)
 TOTAL WALL CLOCK TIME=        0.5 SECONDS, CPU UTILIZATION IS  81.48%

          -----------------
          MCSCF CALCULATION
          -----------------

 ----- NUCLEAR ENERGY ----- =       316.5391672812

     --------------------------------------------------
          AMES LABORATORY DETERMINANTAL FULL CI
     PROGRAM WRITTEN BY JOE IVANIC AND KLAUS RUEDENBERG
     --------------------------------------------------

 THE POINT GROUP                  =   C2V     
 THE STATE SYMMETRY               =   A1      
 NUMBER OF CORE ORBITALS          =   26
 NUMBER OF ACTIVE ORBITALS        =   10
 NUMBER OF ALPHA ELECTRONS        =   31 (   5 ACTIVE)
 NUMBER OF BETA ELECTRONS         =   31 (   5 ACTIVE)
 NUMBER OF OCCUPIED ORBITALS      =   36
 NUMBER OF CI STATES REQUESTED    =    1
 NUMBER OF CI STARTING VECTORS    =    1
 MAX. NO. OF CI EXPANSION VECTORS =   10
 SIZE OF INITIAL CI GUESS MATRIX  =  300
 MAX. NO. OF CI ITERS/STATE       =  100
 CI DIAGONALIZATION CRITERION     = 1.00E-06
 PURE SPIN STATE AVERAGED 1E- AND 2E- DENSITY MATRIX OPTION=.T.
 STATE=   1 DM2 WEIGHT=   1.00000

 CORRELATION ENERGY ANALYSIS      =    F

 SYMMETRIES FOR THE  26 CORE,  10 ACTIVE ARE

     CORE= B2    A1    B1    A1    B2    A1    B1    A1    A1    B2  
           B1    A2    B2    A1    B1    A1    A1    B1    A2    B2  
           A1    B2    A1    B1    A1    B2  

   ACTIVE= A1    B2    B1    A2    A1    B1    A1    B1    B2    A2  


     --------------------------------------------
     PARTIAL TWO ELECTRON INTEGRAL TRANSFORMATION
     --------------------------------------------

 NUMBER OF CORE MOLECULAR ORBITALS     =   26
 NUMBER OF OCCUPIED MOLECULAR ORBITALS =   36
 TOTAL NUMBER OF MOLECULAR ORBITALS    =   88
 TOTAL NUMBER OF ATOMIC ORBITALS       =   88
 THRESHOLD FOR KEEPING TRANSFORMED 2E- INTEGRALS = 1.000E-09
 AO INTEGRALS WILL BE READ IN FROM DISK...

 PLAN A: REQUIREMENTS FOR FULLY IN-MEMORY TRANSFORMATION:
 # OF WORDS AVAILABLE =              5000000
 # OF WORDS NEEDED    =             12504786

 PLAN B: REQUIREMENTS FOR THE SEGMENTED TRANSFORMATION:
       MINIMUM=         443506 WORDS FOR 1 MOLECULAR ORBITAL PER PASS
       MAXIMUM=       12504786 WORDS FOR ALL MOLECULAR ORBITALS IN 1 PASS
              (         344608 EXTRA WORDS INCLUDES 1 EXTRA ORBITAL/PASS)
 THIS RUN USES=        4234194 WORDS,
 DISTRIBUTING   3 PASSES EACH CONTAINING    12 ORBITALS OVER   1 PROCESSORS.

 CHOOSING SEGMENTED PARTIAL TRANSFORMATION...
 PASS #   1 TOOK        0.49 SECONDS.
 PASS #   2 TOOK        0.53 SECONDS.
 PASS #   3 TOOK        0.67 SECONDS.
 TOTAL NUMBER OF TRANSFORMED 2E- INTEGRALS KEPT =       889317
 ----- FROZEN CORE ENERGY =     -1459.0903240736
 ... END OF INTEGRAL TRANSFORMATION ...
 STEP CPU TIME =     1.71 TOTAL CPU TIME =        2.1 (    0.0 MIN)
 TOTAL WALL CLOCK TIME=        2.5 SECONDS, CPU UTILIZATION IS  87.76%

     --------------------------------------------------
          AMES LABORATORY DETERMINANTAL FULL CI
     PROGRAM WRITTEN BY JOE IVANIC AND KLAUS RUEDENBERG
     --------------------------------------------------

 THE NUMBER OF DETERMINANTS HAVING SPACE SYMMETRY A1 
 IN POINT GROUP C2V  WITH SZ=  0.0 IS          15912
 THE DETERMINANT FULL CI REQUIRES          524717 WORDS
 INITIAL CI VECTOR GUESS TIME  :          0.1
 INITIAL FULL CI ITERATION TIME:          0.0

 ITERATION      ENERGY           GRADIENT
     0    -1159.1292473877     0.14441298
     1    -1159.1445688051     0.03971158
     2    -1159.1454209428     0.01387116
     3    -1159.1455319955     0.00441535
     4    -1159.1455436609     0.00143873
     5    -1159.1455447555     0.00048166
     6    -1159.1455448779     0.00015105
     7    -1159.1455448894     0.00004713
     8    -1159.1455448904     0.00001451
     9    -1159.1455448905     0.00000434
    10    -1159.1455448905     0.00000177
    11    -1159.1455448905     0.00000071

 CONVERGED STATE    1 ENERGY=    -1159.1455448905 IN   11 ITERS

 ALL STATES CONVERGED.

 CI EIGENVECTORS WILL BE LABELED IN GROUP=C2V     
 PRINTING CI COEFFICIENTS LARGER THAN 5.000E-02

 STATE   1  ENERGY=     -1159.1455448905  S=  0.00  SZ=  0.00  SPACE SYM=A1  

   ALPHA    |   BETA     | CI COEFFICIENT
------------|------------|---------------
 1111100000 | 1111100000 |   0.9601259507
 1111010000 | 1111010000 |  -0.1109970167
 1111010000 | 1101101000 |   0.0500879427
 1101101000 | 1111010000 |   0.0500879427
 ..... DONE WITH DETERMINANT CI COMPUTATION .....
 STEP CPU TIME =     0.30 TOTAL CPU TIME =        2.5 (    0.0 MIN)
 TOTAL WALL CLOCK TIME=        3.5 SECONDS, CPU UTILIZATION IS  70.61%

     --------------------------------------------------
      ONE AND TWO PARTICLE DENSITY MATRIX COMPUTATION
     PROGRAM WRITTEN BY JOE IVANIC AND KLAUS RUEDENBERG
     --------------------------------------------------

      54725 WORDS WILL BE USED TO FORM THE DENSITIES
 THE DENSITIES ARE STATE AVERAGED OVER   1 ROOT(S)
 STATE=   1   ENERGY=    -1159.1455448905   WEIGHT= 1.00000   S=  0.00
 SIEVING THE A1   SYMMETRY NONZERO DENSITY ELEMENTS IN GROUP C2V     
        418 NONZERO DM2 ELEMENTS WRITTEN IN       1 RECORDS TO FILE 15
 ..... DONE WITH 1 AND 2 PARTICLE DENSITY MATRIX .....
 STEP CPU TIME =     0.02 TOTAL CPU TIME =        2.5 (    0.0 MIN)
 TOTAL WALL CLOCK TIME=        3.6 SECONDS, CPU UTILIZATION IS  69.19%

     --------------------------------     -----------------------------
     MCHF NEWTON-RAPHSON OPTIMIZATION     CODE WRITTEN BY MICHEL DUPUIS
     --------------------------------     -----------------------------
 FORMING FOCK OPERATOR OVER ACTIVE ORBITAL DENSITY, MEMORY=    248647
 STEP CPU TIME =     0.03 TOTAL CPU TIME =        2.5 (    0.0 MIN)
 TOTAL WALL CLOCK TIME=        3.7 SECONDS, CPU UTILIZATION IS  68.49%
 MEMORY DEMAND FOR 2 ELECTRON NTN-RPH CONTRIBUTIONS
      METHOD=DM2     NEEDS   1986023 WORDS
      METHOD=TEI     NEEDS    454951 WORDS
 TOTAL AVAILABLE MEMORY IS   5000000 WORDS
 CHOOSING DM2 DRIVEN METHOD...
 FORMING -LGR- + -COU- + -EXC- FROM (IJ//KL) INTEGRALS
 STEP CPU TIME =     0.01 TOTAL CPU TIME =        2.5 (    0.0 MIN)
 TOTAL WALL CLOCK TIME=        3.9 SECONDS, CPU UTILIZATION IS  65.03%
 FORMING -LGR- + -COU- + -EXC- FROM (AJ//KL) INTEGRALS
 STEP CPU TIME =     0.02 TOTAL CPU TIME =        2.5 (    0.0 MIN)
 TOTAL WALL CLOCK TIME=        3.9 SECONDS, CPU UTILIZATION IS  65.21%
 FORMING         -COU-         FROM (AB//KL) INTEGRALS
 STEP CPU TIME =     0.01 TOTAL CPU TIME =        2.5 (    0.0 MIN)
 TOTAL WALL CLOCK TIME=        3.9 SECONDS, CPU UTILIZATION IS  65.30%
 FORMING                 -EXC- FROM (AJ//BL) INTEGRALS
 ..... DONE WITH 2 ELECTRON CONTRIBUTIONS .....
 STEP CPU TIME =     0.01 TOTAL CPU TIME =        2.5 (    0.0 MIN)
 TOTAL WALL CLOCK TIME=        3.9 SECONDS, CPU UTILIZATION IS  65.38%
 ..... DONE WITH 1 ELECTRON CONTRIBUTIONS .....
 STEP CPU TIME =     0.00 TOTAL CPU TIME =        2.5 (    0.0 MIN)
 TOTAL WALL CLOCK TIME=        3.9 SECONDS, CPU UTILIZATION IS  65.22%
 NUMBER OF INDEPENDENT ORBITAL ROTATION PARAMETERS =   605
 ..... DONE SOLVING NEWTON-RAPHSON EQUATIONS .....
 STEP CPU TIME =     0.01 TOTAL CPU TIME =        2.6 (    0.0 MIN)
 TOTAL WALL CLOCK TIME=        4.0 SECONDS, CPU UTILIZATION IS  63.37%
 ..... DONE WITH NTN-RPH ORBITAL ROTATIONS ..... 
 STEP CPU TIME =     0.00 TOTAL CPU TIME =        2.6 (    0.0 MIN)
 TOTAL WALL CLOCK TIME=        4.0 SECONDS, CPU UTILIZATION IS  63.21%
 MAXIMUM MEMORY USED BY NTN-RPH CODE WAS   1986023 WORDS.

 ITER     TOTAL ENERGY      DEL(E)  LAGRANGIAN ASYMMETRY   SQCDF  MICIT   DAMP
   1    -1159.145544891 -0.145544891  0.000002   42   26 2.096E-09  1   0.0000
   2    -1159.145544891 -0.000000000  0.000000   78   30 0.000E+00  1   0.0000

          --------------------
          LAGRANGIAN CONVERGED
          --------------------

 FINAL MCSCF ENERGY IS    -1159.1455448906 AFTER   2 ITERATIONS

 -MCCI- BASED ON OPTIMIZED ORBITALS
 ----------------------------------

 PLEASE NOTE: IF THE ACTIVE ORBITALS ARE CANONICALIZED BELOW,
 THE FOLLOWING CI EXPANSION COEFFICIENTS AND THE DENSITY DO NOT
 CORRESPOND TO THE PRINTED ORBITALS.  THE PRINTED EXPANSIONS MATCH
 THE ORBITALS USED DURING THE LAST ITERATION.  IF YOU WISH TO SEE
 CI EXPANSIONS BASED ON THE CANONICAL (OR NATURAL) ORBITALS, YOU
 MUST RUN A CI CALCULATION WITH THAT ORBITAL CHOICE READ IN $VEC.

 CI EIGENVECTORS WILL BE LABELED IN GROUP=C2V     
 PRINTING CI COEFFICIENTS LARGER THAN 5.000E-02

 STATE   1  ENERGY=     -1159.1455448906  S=  0.00  SZ=  0.00  SPACE SYM=A1  

   ALPHA    |   BETA     | CI COEFFICIENT
------------|------------|---------------
 1111100000 | 1111100000 |   0.9601259894
 1111010000 | 1111010000 |  -0.1109970553
 1111010000 | 1101101000 |   0.0500879254
 1101101000 | 1111010000 |   0.0500879254

 DENSITY MATRIX OVER ACTIVE MO-S

             1           2           3           4           5

    1    1.9852400
    2    0.0000000   1.9771851
    3    0.0000000   0.0000000   1.9671412
    4    0.0000000   0.0000000   0.0000000   1.9637640
    5   -0.0000002   0.0000000   0.0000000   0.0000000   1.9453051
    6    0.0000000   0.0000000  -0.0000026   0.0000000   0.0000000
    7   -0.0000009   0.0000000   0.0000000   0.0000000   0.0000058
    8    0.0000000   0.0000000  -0.0000008   0.0000000   0.0000000
    9    0.0000000  -0.0000011   0.0000000   0.0000000   0.0000000
   10    0.0000000   0.0000000   0.0000000   0.0000025   0.0000000

             6           7           8           9          10

    6    0.0557191
    7    0.0000000   0.0362509
    8   -0.0000007   0.0000000   0.0263165
    9    0.0000000   0.0000000   0.0000000   0.0227602
   10    0.0000000   0.0000000   0.0000000   0.0000000   0.0203179

 FORMING THE "STANDARD FOCK OPERATOR" USING INTEGRALS FROM DISK...
    26 FILLED,   10 ACTIVE, AND   52 VIRTUAL ORBITALS  WILL BE CANONICALIZED

          ----------------------
          MCSCF NATURAL ORBITALS
          ----------------------

                      1          2          3          4          5
                  -68.7790   -68.7790   -68.7601   -68.7601    -6.1353
                     B2         A1         B1         A1         B2  
    1  SI 1  S    0.000000  -0.000089   0.704886   0.704889   0.000000
    2  SI 1  S    0.000000  -0.000008   0.008779   0.008771   0.000000
    3  SI 1  X    0.000000   0.000007   0.000009   0.000009   0.000000
    4  SI 1  Y   -0.000003  -0.000000  -0.000000   0.000000   0.000472
    5  SI 1  Z    0.000000   0.000000   0.000011   0.000009   0.000000
    6  SI 1  S    0.000000   0.000266  -0.012117  -0.011985   0.000000
    7  SI 1  X    0.000000   0.000065  -0.000129   0.000004   0.000000
    8  SI 1  Y   -0.000141  -0.000000  -0.000000   0.000000  -0.000997
    9  SI 1  Z    0.000000  -0.000066  -0.000002   0.000016   0.000000
   10  SI 1  S    0.000000  -0.000433   0.002521   0.001986   0.000000
   11  SI 1  X    0.000000   0.000075   0.000539   0.000405   0.000000
   12  SI 1  Y    0.000395  -0.000000  -0.000000   0.000000  -0.001081
   13  SI 1  Z    0.000000  -0.000145  -0.000171  -0.000482   0.000000
   14  SI 1 XX    0.000000  -0.000070   0.004134   0.004137   0.000000
   15  SI 1 YY    0.000000  -0.000055   0.004172   0.004140   0.000000
   16  SI 1 ZZ    0.000000  -0.000060   0.004151   0.004119   0.000000
   17  SI 1 XY    0.000034  -0.000000  -0.000000   0.000000  -0.000083
   18  SI 1 XZ    0.000000   0.000007   0.000001   0.000013   0.000000
   19  SI 1 YZ   -0.000020  -0.000000  -0.000000   0.000000   0.000079
   20  SI 2  S    0.000000  -0.000089  -0.704886   0.704889   0.000000
   21  SI 2  S    0.000000  -0.000008  -0.008779   0.008771   0.000000
   22  SI 2  X    0.000000  -0.000007   0.000009  -0.000009   0.000000
   23  SI 2  Y   -0.000003  -0.000000  -0.000000   0.000000   0.000472
   24  SI 2  Z    0.000000   0.000000  -0.000011   0.000009   0.000000
   25  SI 2  S    0.000000   0.000266   0.012117  -0.011985   0.000000
   26  SI 2  X    0.000000  -0.000065  -0.000129  -0.000004   0.000000
   27  SI 2  Y   -0.000141  -0.000000  -0.000000   0.000000  -0.000997
   28  SI 2  Z    0.000000  -0.000066   0.000002   0.000016   0.000000
   29  SI 2  S    0.000000  -0.000433  -0.002521   0.001986   0.000000
   30  SI 2  X    0.000000  -0.000075   0.000539  -0.000405   0.000000
   31  SI 2  Y    0.000395  -0.000000  -0.000000   0.000000  -0.001081
   32  SI 2  Z    0.000000  -0.000145   0.000171  -0.000482   0.000000
   33  SI 2 XX    0.000000  -0.000070  -0.004134   0.004137   0.000000
   34  SI 2 YY    0.000000  -0.000055  -0.004172   0.004140   0.000000
   35  SI 2 ZZ    0.000000  -0.000060  -0.004151   0.004119   0.000000
   36  SI 2 XY   -0.000034  -0.000000  -0.000000   0.000000   0.000083
   37  SI 2 XZ    0.000000  -0.000007   0.000001  -0.000013   0.000000
   38  SI 2 YZ   -0.000020  -0.000000  -0.000000   0.000000   0.000079
   39  SI 3  S    0.704887   0.704889  -0.000000   0.000099  -0.189556
   40  SI 3  S    0.008785   0.008794  -0.000000   0.000004   0.728310
   41  SI 3  X    0.000000  -0.000000   0.000002   0.000000   0.000000
   42  SI 3  Y    0.000008   0.000012  -0.000000   0.000012  -0.000247
   43  SI 3  Z    0.000002   0.000004  -0.000000   0.000003  -0.000311
   44  SI 3  S   -0.012050  -0.011938  -0.000000   0.000312   0.006371
   45  SI 3  X    0.000000  -0.000000  -0.000106   0.000000   0.000000
   46  SI 3  Y   -0.000039  -0.000086  -0.000000   0.000062   0.001273
   47  SI 3  Z   -0.000013  -0.000029  -0.000000   0.000050   0.000511
   48  SI 3  S    0.002218   0.001566  -0.000000  -0.000841  -0.003279
   49  SI 3  X    0.000000  -0.000000   0.000232   0.000000   0.000000
   50  SI 3  Y    0.000403   0.000121  -0.000000  -0.000370  -0.000630
   51  SI 3  Z    0.000169   0.000293  -0.000000   0.000149  -0.000419
   52  SI 3 XX    0.004167   0.004162  -0.000000  -0.000050   0.001288
   53  SI 3 YY    0.004169   0.004139  -0.000000  -0.000080   0.001343
   54  SI 3 ZZ    0.004154   0.004132  -0.000000  -0.000055   0.001185
   55  SI 3 XY    0.000000  -0.000000   0.000023   0.000000   0.000000
   56  SI 3 XZ    0.000000  -0.000000  -0.000001   0.000000   0.000000
   57  SI 3 YZ    0.000007  -0.000011  -0.000000  -0.000036   0.000188
   58  SI 4  S   -0.704887   0.704889  -0.000000   0.000099   0.189556
   59  SI 4  S   -0.008785   0.008794  -0.000000   0.000004  -0.728310
   60  SI 4  X    0.000000  -0.000000   0.000002   0.000000   0.000000
   61  SI 4  Y    0.000008  -0.000012  -0.000000  -0.000012  -0.000247
   62  SI 4  Z   -0.000002   0.000004  -0.000000   0.000003   0.000311
   63  SI 4  S    0.012050  -0.011938  -0.000000   0.000312  -0.006371
   64  SI 4  X    0.000000  -0.000000  -0.000106   0.000000   0.000000
   65  SI 4  Y   -0.000039   0.000086  -0.000000  -0.000062   0.001273
   66  SI 4  Z    0.000013  -0.000029  -0.000000   0.000050  -0.000511
   67  SI 4  S   -0.002218   0.001566  -0.000000  -0.000841   0.003279
   68  SI 4  X    0.000000  -0.000000   0.000232   0.000000   0.000000
   69  SI 4  Y    0.000403  -0.000121  -0.000000   0.000370  -0.000630
   70  SI 4  Z   -0.000169   0.000293  -0.000000   0.000149   0.000419
   71  SI 4 XX   -0.004167   0.004162  -0.000000  -0.000050  -0.001288
   72  SI 4 YY   -0.004169   0.004139  -0.000000  -0.000080  -0.001343
   73  SI 4 ZZ   -0.004154   0.004132  -0.000000  -0.000055  -0.001185
   74  SI 4 XY    0.000000  -0.000000  -0.000023   0.000000   0.000000
   75  SI 4 XZ    0.000000  -0.000000  -0.000001   0.000000   0.000000
   76  SI 4 YZ    0.000007   0.000011  -0.000000   0.000036   0.000188
   77  H  5  S    0.000000  -0.000018  -0.000052  -0.000067   0.000000
   78  H  5  S    0.000000   0.000152   0.000110   0.000314   0.000000
   79  H  6  S    0.000000  -0.000018   0.000052  -0.000067   0.000000
   80  H  6  S    0.000000   0.000152  -0.000110   0.000314   0.000000
   81  H  7  S   -0.000036  -0.000019  -0.000000   0.000000   0.000071
   82  H  7  S    0.000051  -0.000028  -0.000000  -0.000152  -0.000208
   83  H  8  S    0.000036  -0.000019  -0.000000   0.000000  -0.000071
   84  H  8  S   -0.000051  -0.000028  -0.000000  -0.000152   0.000208
   85  H  9  S   -0.000036  -0.000046  -0.000000  -0.000018   0.000128
   86  H  9  S    0.000051   0.000196  -0.000000   0.000118  -0.000181
   87  H 10  S    0.000036  -0.000046  -0.000000  -0.000018  -0.000128
   88  H 10  S   -0.000051   0.000196  -0.000000   0.000118   0.000181

                      6          7          8          9         10
                   -6.1352    -6.1194    -6.1193    -4.2409    -4.2409
                     A1         B1         A1         A1         B2  
    1  SI 1  S    0.000134  -0.189554  -0.189428   0.000209   0.000000
    2  SI 1  S   -0.000616   0.728250   0.727700  -0.000907   0.000000
    3  SI 1  X   -0.000289  -0.000583  -0.001296   0.003407   0.000000
    4  SI 1  Y   -0.000000   0.000000  -0.000000   0.000000  -0.003971
    5  SI 1  Z    0.000220   0.001166   0.001029  -0.006992   0.000000
    6  SI 1  S    0.001416   0.006364   0.007836   0.002193   0.000000
    7  SI 1  X    0.000442   0.000543   0.001925   0.000240   0.000000
    8  SI 1  Y   -0.000000   0.000000  -0.000000   0.000000  -0.001054
    9  SI 1  Z   -0.000542  -0.000603  -0.000189  -0.000392   0.000000
   10  SI 1  S    0.001072  -0.002707  -0.002217   0.000313   0.000000
   11  SI 1  X   -0.000269  -0.000693  -0.000578  -0.001057   0.000000
   12  SI 1  Y   -0.000000   0.000000  -0.000000   0.000000  -0.000253
   13  SI 1  Z    0.000102  -0.000088   0.001108   0.000729   0.000000
   14  SI 1 XX    0.000008   0.001447   0.001392  -0.000124   0.000000
   15  SI 1 YY   -0.000036   0.001284   0.001157  -0.000070   0.000000
   16  SI 1 ZZ   -0.000005   0.001118   0.000999  -0.000150   0.000000
   17  SI 1 XY   -0.000000   0.000000  -0.000000   0.000000   0.000054
   18  SI 1 XZ    0.000038  -0.000128  -0.000045   0.000367   0.000000
   19  SI 1 YZ   -0.000000   0.000000  -0.000000   0.000000  -0.000097
   20  SI 2  S    0.000134   0.189554  -0.189428   0.000209   0.000000
   21  SI 2  S   -0.000616  -0.728250   0.727700  -0.000907   0.000000
   22  SI 2  X    0.000289  -0.000583   0.001296  -0.003407   0.000000
   23  SI 2  Y   -0.000000   0.000000  -0.000000   0.000000  -0.003971
   24  SI 2  Z    0.000220  -0.001166   0.001029  -0.006992   0.000000
   25  SI 2  S    0.001416  -0.006364   0.007836   0.002193   0.000000
   26  SI 2  X   -0.000442   0.000543  -0.001925  -0.000240   0.000000
   27  SI 2  Y   -0.000000   0.000000  -0.000000   0.000000  -0.001054
   28  SI 2  Z   -0.000542   0.000603  -0.000189  -0.000392   0.000000
   29  SI 2  S    0.001072   0.002707  -0.002217   0.000313   0.000000
   30  SI 2  X    0.000269  -0.000693   0.000578   0.001057   0.000000
   31  SI 2  Y   -0.000000   0.000000  -0.000000   0.000000  -0.000253
   32  SI 2  Z    0.000102   0.000088   0.001108   0.000729   0.000000
   33  SI 2 XX    0.000008  -0.001447   0.001392  -0.000124   0.000000
   34  SI 2 YY   -0.000036  -0.001284   0.001157  -0.000070   0.000000
   35  SI 2 ZZ   -0.000005  -0.001118   0.000999  -0.000150   0.000000
   36  SI 2 XY   -0.000000   0.000000  -0.000000   0.000000  -0.000054
   37  SI 2 XZ   -0.000038  -0.000128   0.000045  -0.000367   0.000000
   38  SI 2 YZ   -0.000000   0.000000  -0.000000   0.000000  -0.000097
   39  SI 3  S   -0.189582   0.000000   0.000127   0.000162   0.000205
   40  SI 3  S    0.728379   0.000000  -0.000580  -0.000667  -0.000890
   41  SI 3  X   -0.000000   0.000296  -0.000000   0.000000   0.000000
   42  SI 3  Y   -0.000214   0.000000  -0.000544   0.679600   0.684373
   43  SI 3  Z   -0.000283   0.000000  -0.000237  -0.179751  -0.160611
   44  SI 3  S    0.005794   0.000000   0.001026   0.001185   0.001954
   45  SI 3  X   -0.000000  -0.000688  -0.000000   0.000000   0.000000
   46  SI 3  Y    0.001125   0.000000   0.001135   0.015077   0.015021
   47  SI 3  Z    0.000388   0.000000   0.000483  -0.002846  -0.002291
   48  SI 3  S   -0.001912   0.000000   0.001501   0.000546  -0.000556
   49  SI 3  X   -0.000000  -0.000594  -0.000000   0.000000   0.000000
   50  SI 3  Y   -0.000151   0.000000   0.000689  -0.002336  -0.003157
   51  SI 3  Z   -0.000569   0.000000  -0.000392  -0.000157   0.000908
   52  SI 3 XX    0.001206   0.000000   0.000018   0.000347   0.000307
   53  SI 3 YY    0.001477   0.000000   0.000047   0.000598   0.000126
   54  SI 3 ZZ    0.001133   0.000000  -0.000042  -0.000285  -0.000452
   55  SI 3 XY   -0.000000  -0.000074  -0.000000   0.000000   0.000000
   56  SI 3 XZ   -0.000000   0.000006  -0.000000   0.000000   0.000000
   57  SI 3 YZ    0.000118   0.000000   0.000153   0.000672   0.000790
   58  SI 4  S   -0.189582   0.000000   0.000127   0.000162  -0.000205
   59  SI 4  S    0.728379   0.000000  -0.000580  -0.000667   0.000890
   60  SI 4  X   -0.000000   0.000296  -0.000000   0.000000   0.000000
   61  SI 4  Y    0.000214   0.000000   0.000544  -0.679600   0.684373
   62  SI 4  Z   -0.000283   0.000000  -0.000237  -0.179751   0.160611
   63  SI 4  S    0.005794   0.000000   0.001026   0.001185  -0.001954
   64  SI 4  X   -0.000000  -0.000688  -0.000000   0.000000   0.000000
   65  SI 4  Y   -0.001125   0.000000  -0.001135  -0.015077   0.015021
   66  SI 4  Z    0.000388   0.000000   0.000483  -0.002846   0.002291
   67  SI 4  S   -0.001912   0.000000   0.001501   0.000546   0.000556
   68  SI 4  X   -0.000000  -0.000594  -0.000000   0.000000   0.000000
   69  SI 4  Y    0.000151   0.000000  -0.000689   0.002336  -0.003157
   70  SI 4  Z   -0.000569   0.000000  -0.000392  -0.000157  -0.000908
   71  SI 4 XX    0.001206   0.000000   0.000018   0.000347  -0.000307
   72  SI 4 YY    0.001477   0.000000   0.000047   0.000598  -0.000126
   73  SI 4 ZZ    0.001133   0.000000  -0.000042  -0.000285   0.000452
   74  SI 4 XY   -0.000000   0.000074  -0.000000   0.000000   0.000000
   75  SI 4 XZ   -0.000000   0.000006  -0.000000   0.000000   0.000000
   76  SI 4 YZ   -0.000118   0.000000  -0.000153  -0.000672   0.000790
   77  H  5  S   -0.000076   0.000084   0.000077   0.000047   0.000000
   78  H  5  S   -0.000545  -0.000334  -0.001039  -0.001155   0.000000
   79  H  6  S   -0.000076  -0.000084   0.000077   0.000047   0.000000
   80  H  6  S   -0.000545   0.000334  -0.001039  -0.001155   0.000000
   81  H  7  S    0.000136   0.000000  -0.000225  -0.000796  -0.000825
   82  H  7  S    0.000099   0.000000   0.000008   0.001024   0.000016
   83  H  8  S    0.000136   0.000000  -0.000225  -0.000796   0.000825
   84  H  8  S    0.000099   0.000000   0.000008   0.001024  -0.000016
   85  H  9  S    0.000128   0.000000  -0.000141  -0.000199  -0.000176
   86  H  9  S   -0.000519   0.000000  -0.000500  -0.000625  -0.000097
   87  H 10  S    0.000128   0.000000  -0.000141  -0.000199   0.000176
   88  H 10  S   -0.000519   0.000000  -0.000500  -0.000625   0.000097

                     11         12         13         14         15
                   -4.2408    -4.2407    -4.2406    -4.2405    -4.2251
                     B1         A2         B2         A1         B1  
    1  SI 1  S   -0.000215   0.000000   0.000000   0.000167   0.000017
    2  SI 1  S    0.001008   0.000000   0.000000  -0.000819  -0.000280
    3  SI 1  X   -0.002415   0.000000   0.000000   0.003837   0.699814
    4  SI 1  Y   -0.000000   0.002628  -0.005538   0.000000   0.000000
    5  SI 1  Z    0.003762   0.000000   0.000000  -0.002228   0.069708
    6  SI 1  S   -0.001821   0.000000   0.000000   0.001336   0.000454
    7  SI 1  X   -0.000217   0.000000   0.000000   0.000084   0.015438
    8  SI 1  Y   -0.000000   0.001494  -0.000451   0.000000   0.000000
    9  SI 1  Z    0.000923   0.000000   0.000000  -0.000637   0.000157
   10  SI 1  S   -0.001165   0.000000   0.000000   0.000495   0.001997
   11  SI 1  X    0.001513   0.000000   0.000000  -0.000084  -0.002462
   12  SI 1  Y   -0.000000   0.002223  -0.000359   0.000000   0.000000
   13  SI 1  Z    0.000549   0.000000   0.000000   0.000076  -0.001815
   14  SI 1 XX   -0.000071   0.000000   0.000000  -0.000123   0.001183
   15  SI 1 YY    0.000020   0.000000   0.000000  -0.000401   0.000602
   16  SI 1 ZZ   -0.000182   0.000000   0.000000   0.000113  -0.000267
   17  SI 1 XY   -0.000000  -0.000005   0.000205   0.000000   0.000000
   18  SI 1 XZ   -0.000062   0.000000   0.000000  -0.000001   0.000203
   19  SI 1 YZ   -0.000000  -0.000072   0.000160   0.000000   0.000000
   20  SI 2  S    0.000215   0.000000   0.000000   0.000167  -0.000017
   21  SI 2  S   -0.001008   0.000000   0.000000  -0.000819   0.000280
   22  SI 2  X   -0.002415   0.000000   0.000000  -0.003837   0.699814
   23  SI 2  Y   -0.000000  -0.002628  -0.005538   0.000000   0.000000
   24  SI 2  Z   -0.003762   0.000000   0.000000  -0.002228  -0.069708
   25  SI 2  S    0.001821   0.000000   0.000000   0.001336  -0.000454
   26  SI 2  X   -0.000217   0.000000   0.000000  -0.000084   0.015438
   27  SI 2  Y   -0.000000  -0.001494  -0.000451   0.000000   0.000000
   28  SI 2  Z   -0.000923   0.000000   0.000000  -0.000637  -0.000157
   29  SI 2  S    0.001165   0.000000   0.000000   0.000495  -0.001997
   30  SI 2  X    0.001513   0.000000   0.000000   0.000084  -0.002462
   31  SI 2  Y   -0.000000  -0.002223  -0.000359   0.000000   0.000000
   32  SI 2  Z   -0.000549   0.000000   0.000000   0.000076   0.001815
   33  SI 2 XX    0.000071   0.000000   0.000000  -0.000123  -0.001183
   34  SI 2 YY   -0.000020   0.000000   0.000000  -0.000401  -0.000602
   35  SI 2 ZZ    0.000182   0.000000   0.000000   0.000113   0.000267
   36  SI 2 XY   -0.000000  -0.000005  -0.000205   0.000000   0.000000
   37  SI 2 XZ   -0.000062   0.000000   0.000000   0.000001   0.000203
   38  SI 2 YZ   -0.000000   0.000072   0.000160   0.000000   0.000000
   39  SI 3  S   -0.000000   0.000000   0.000078   0.000062   0.000000
   40  SI 3  S   -0.000000   0.000000  -0.000405  -0.000315   0.000000
   41  SI 3  X    0.703034   0.702803   0.000000   0.000000   0.002577
   42  SI 3  Y   -0.000000   0.000000   0.159831   0.179058   0.000000
   43  SI 3  Z   -0.000000   0.000000   0.684803   0.680064   0.000000
   44  SI 3  S   -0.000000   0.000000   0.000969   0.000775   0.000000
   45  SI 3  X    0.014994   0.015616   0.000000   0.000000  -0.000506
   46  SI 3  Y   -0.000000   0.000000   0.004473   0.004765   0.000000
   47  SI 3  Z   -0.000000   0.000000   0.013826   0.013598   0.000000
   48  SI 3  S   -0.000000   0.000000   0.000178   0.000161   0.000000
   49  SI 3  X   -0.003498  -0.003583   0.000000   0.000000   0.000572
   50  SI 3  Y   -0.000000   0.000000  -0.000491  -0.000698   0.000000
   51  SI 3  Z   -0.000000   0.000000  -0.002834  -0.002728   0.000000
   52  SI 3 XX   -0.000000   0.000000   0.000300   0.000311   0.000000
   53  SI 3 YY   -0.000000   0.000000   0.000586   0.000709   0.000000
   54  SI 3 ZZ   -0.000000   0.000000  -0.000522  -0.000582   0.000000
   55  SI 3 XY    0.000647   0.000575   0.000000   0.000000   0.000123
   56  SI 3 XZ    0.000213   0.000270   0.000000   0.000000   0.000008
   57  SI 3 YZ   -0.000000   0.000000   0.000111   0.000064   0.000000
   58  SI 4  S   -0.000000   0.000000  -0.000078   0.000062   0.000000
   59  SI 4  S   -0.000000   0.000000   0.000405  -0.000315   0.000000
   60  SI 4  X    0.703034  -0.702803   0.000000   0.000000   0.002577
   61  SI 4  Y   -0.000000   0.000000   0.159831  -0.179058   0.000000
   62  SI 4  Z   -0.000000   0.000000  -0.684803   0.680064   0.000000
   63  SI 4  S   -0.000000   0.000000  -0.000969   0.000775   0.000000
   64  SI 4  X    0.014994  -0.015616   0.000000   0.000000  -0.000506
   65  SI 4  Y   -0.000000   0.000000   0.004473  -0.004765   0.000000
   66  SI 4  Z   -0.000000   0.000000  -0.013826   0.013598   0.000000
   67  SI 4  S   -0.000000   0.000000  -0.000178   0.000161   0.000000
   68  SI 4  X   -0.003498   0.003583   0.000000   0.000000   0.000572
   69  SI 4  Y   -0.000000   0.000000  -0.000491   0.000698   0.000000
   70  SI 4  Z   -0.000000   0.000000   0.002834  -0.002728   0.000000
   71  SI 4 XX   -0.000000   0.000000  -0.000300   0.000311   0.000000
   72  SI 4 YY   -0.000000   0.000000  -0.000586   0.000709   0.000000
   73  SI 4 ZZ   -0.000000   0.000000   0.000522  -0.000582   0.000000
   74  SI 4 XY   -0.000647   0.000575   0.000000   0.000000  -0.000123
   75  SI 4 XZ    0.000213  -0.000270   0.000000   0.000000   0.000008
   76  SI 4 YZ   -0.000000   0.000000   0.000111  -0.000064   0.000000
   77  H  5  S    0.000312   0.000000   0.000000  -0.000195  -0.000565
   78  H  5  S    0.000941   0.000000   0.000000   0.000034   0.000567
   79  H  6  S   -0.000312   0.000000   0.000000  -0.000195   0.000565
   80  H  6  S   -0.000941   0.000000   0.000000   0.000034  -0.000567
   81  H  7  S   -0.000000   0.000000   0.000138   0.000234   0.000000
   82  H  7  S   -0.000000   0.000000  -0.000593  -0.000455   0.000000
   83  H  8  S   -0.000000   0.000000  -0.000138   0.000234   0.000000
   84  H  8  S   -0.000000   0.000000   0.000593  -0.000455   0.000000
   85  H  9  S   -0.000000   0.000000  -0.000822  -0.000857   0.000000
   86  H  9  S   -0.000000   0.000000   0.000511   0.000409   0.000000
   87  H 10  S   -0.000000   0.000000   0.000822  -0.000857   0.000000
   88  H 10  S   -0.000000   0.000000  -0.000511   0.000409   0.000000

                     16         17         18         19         20
                   -4.2250    -4.2242    -4.2242    -4.2236    -4.2236
                     A1         A1         B1         A2         B2  
    1  SI 1  S    0.000224   0.000257   0.000207  -0.000000  -0.000000
    2  SI 1  S   -0.001302  -0.000957  -0.000713  -0.000000  -0.000000
    3  SI 1  X    0.701900  -0.005149  -0.069072  -0.000000  -0.000000
    4  SI 1  Y   -0.000000  -0.000000   0.000000   0.702347   0.702203
    5  SI 1  Z    0.005118   0.703183   0.699907  -0.000000  -0.000000
    6  SI 1  S    0.003043   0.000716   0.000306  -0.000000  -0.000000
    7  SI 1  X    0.017147   0.000354  -0.002195  -0.000000  -0.000000
    8  SI 1  Y   -0.000000  -0.000000   0.000000   0.017188   0.017194
    9  SI 1  Z   -0.000132   0.014420   0.014158  -0.000000  -0.000000
   10  SI 1  S    0.003187  -0.000393  -0.001209  -0.000000  -0.000000
   11  SI 1  X   -0.001533  -0.000340  -0.000711  -0.000000  -0.000000
   12  SI 1  Y   -0.000000  -0.000000   0.000000  -0.004230  -0.003527
   13  SI 1  Z   -0.000673  -0.002225  -0.003374  -0.000000  -0.000000
   14  SI 1 XX    0.000017   0.000009  -0.000507  -0.000000  -0.000000
   15  SI 1 YY    0.000514  -0.000588  -0.000715  -0.000000  -0.000000
   16  SI 1 ZZ   -0.000530   0.000050  -0.000052  -0.000000  -0.000000
   17  SI 1 XY   -0.000000  -0.000000   0.000000   0.000608   0.000869
   18  SI 1 XZ    0.000298  -0.000184  -0.000079  -0.000000  -0.000000
   19  SI 1 YZ   -0.000000  -0.000000   0.000000  -0.000550  -0.000551
   20  SI 2  S    0.000224   0.000257  -0.000207  -0.000000  -0.000000
   21  SI 2  S   -0.001302  -0.000957   0.000713  -0.000000  -0.000000
   22  SI 2  X   -0.701900   0.005149  -0.069072  -0.000000  -0.000000
   23  SI 2  Y   -0.000000  -0.000000   0.000000  -0.702347   0.702203
   24  SI 2  Z    0.005118   0.703183  -0.699907  -0.000000  -0.000000
   25  SI 2  S    0.003043   0.000716  -0.000306  -0.000000  -0.000000
   26  SI 2  X   -0.017147  -0.000354  -0.002195  -0.000000  -0.000000
   27  SI 2  Y   -0.000000  -0.000000   0.000000  -0.017188   0.017194
   28  SI 2  Z   -0.000132   0.014420  -0.014158  -0.000000  -0.000000
   29  SI 2  S    0.003187  -0.000393   0.001209  -0.000000  -0.000000
   30  SI 2  X    0.001533   0.000340  -0.000711  -0.000000  -0.000000
   31  SI 2  Y   -0.000000  -0.000000   0.000000   0.004230  -0.003527
   32  SI 2  Z   -0.000673  -0.002225   0.003374  -0.000000  -0.000000
   33  SI 2 XX    0.000017   0.000009   0.000507  -0.000000  -0.000000
   34  SI 2 YY    0.000514  -0.000588   0.000715  -0.000000  -0.000000
   35  SI 2 ZZ   -0.000530   0.000050   0.000052  -0.000000  -0.000000
   36  SI 2 XY   -0.000000  -0.000000   0.000000   0.000608  -0.000869
   37  SI 2 XZ   -0.000298   0.000184  -0.000079  -0.000000  -0.000000
   38  SI 2 YZ   -0.000000  -0.000000   0.000000   0.000550  -0.000551
   39  SI 3  S    0.000186  -0.000047   0.000000  -0.000000  -0.000300
   40  SI 3  S   -0.000851   0.000245   0.000000  -0.000000   0.001444
   41  SI 3  X   -0.000000  -0.000000  -0.004747  -0.004671  -0.000000
   42  SI 3  Y   -0.005522   0.007891   0.000000  -0.000000   0.007192
   43  SI 3  Z   -0.003468   0.000638   0.000000  -0.000000   0.005270
   44  SI 3  S    0.001751  -0.000079   0.000000  -0.000000  -0.002487
   45  SI 3  X   -0.000000  -0.000000   0.000074   0.002056  -0.000000
   46  SI 3  Y    0.000815   0.000524   0.000000  -0.000000  -0.002082
   47  SI 3  Z    0.000528   0.000017   0.000000  -0.000000  -0.000444
   48  SI 3  S   -0.002954  -0.000070   0.000000  -0.000000  -0.002321
   49  SI 3  X   -0.000000  -0.000000   0.000593   0.002738  -0.000000
   50  SI 3  Y   -0.000763   0.000110   0.000000  -0.000000  -0.000419
   51  SI 3  Z    0.000522   0.000492   0.000000  -0.000000  -0.000439
   52  SI 3 XX    0.000064  -0.000073   0.000000  -0.000000  -0.000155
   53  SI 3 YY   -0.000318   0.000358   0.000000  -0.000000   0.000003
   54  SI 3 ZZ   -0.000150  -0.000085   0.000000  -0.000000   0.000223
   55  SI 3 XY   -0.000000  -0.000000  -0.000162   0.000055  -0.000000
   56  SI 3 XZ   -0.000000  -0.000000   0.000061  -0.000012  -0.000000
   57  SI 3 YZ    0.000175   0.000041   0.000000  -0.000000  -0.000085
   58  SI 4  S    0.000186  -0.000047   0.000000  -0.000000   0.000300
   59  SI 4  S   -0.000851   0.000245   0.000000  -0.000000  -0.001444
   60  SI 4  X   -0.000000  -0.000000  -0.004747   0.004671  -0.000000
   61  SI 4  Y    0.005522  -0.007891   0.000000  -0.000000   0.007192
   62  SI 4  Z   -0.003468   0.000638   0.000000  -0.000000  -0.005270
   63  SI 4  S    0.001751  -0.000079   0.000000  -0.000000   0.002487
   64  SI 4  X   -0.000000  -0.000000   0.000074  -0.002056  -0.000000
   65  SI 4  Y   -0.000815  -0.000524   0.000000  -0.000000  -0.002082
   66  SI 4  Z    0.000528   0.000017   0.000000  -0.000000   0.000444
   67  SI 4  S   -0.002954  -0.000070   0.000000  -0.000000   0.002321
   68  SI 4  X   -0.000000  -0.000000   0.000593  -0.002738  -0.000000
   69  SI 4  Y    0.000763  -0.000110   0.000000  -0.000000  -0.000419
   70  SI 4  Z    0.000522   0.000492   0.000000  -0.000000   0.000439
   71  SI 4 XX    0.000064  -0.000073   0.000000  -0.000000   0.000155
   72  SI 4 YY   -0.000318   0.000358   0.000000  -0.000000  -0.000003
   73  SI 4 ZZ   -0.000150  -0.000085   0.000000  -0.000000  -0.000223
   74  SI 4 XY   -0.000000  -0.000000   0.000162   0.000055  -0.000000
   75  SI 4 XZ   -0.000000  -0.000000   0.000061   0.000012  -0.000000
   76  SI 4 YZ   -0.000175  -0.000041   0.000000  -0.000000  -0.000085
   77  H  5  S   -0.000887   0.000459   0.000721  -0.000000  -0.000000
   78  H  5  S    0.000193  -0.000991  -0.000409  -0.000000  -0.000000
   79  H  6  S   -0.000887   0.000459  -0.000721  -0.000000  -0.000000
   80  H  6  S    0.000193  -0.000991   0.000409  -0.000000  -0.000000
   81  H  7  S   -0.000285  -0.000068   0.000000  -0.000000   0.000547
   82  H  7  S   -0.000220   0.000144   0.000000  -0.000000   0.000592
   83  H  8  S   -0.000285  -0.000068   0.000000  -0.000000  -0.000547
   84  H  8  S   -0.000220   0.000144   0.000000  -0.000000  -0.000592
   85  H  9  S   -0.000223   0.000230   0.000000  -0.000000   0.000375
   86  H  9  S    0.000933   0.000207   0.000000  -0.000000   0.000556
   87  H 10  S   -0.000223   0.000230   0.000000  -0.000000  -0.000375
   88  H 10  S    0.000933   0.000207   0.000000  -0.000000  -0.000556

                     21         22         23         24         25
                   -0.6562    -0.6516    -0.5808    -0.5758    -0.4918
                     A1         B2         A1         B1         A1  
    1  SI 1  S   -0.000088   0.000000   0.023136   0.023833  -0.003441
    2  SI 1  S    0.000775   0.000000  -0.113688  -0.115789   0.017063
    3  SI 1  X    0.004502   0.000000   0.062171   0.059861  -0.006710
    4  SI 1  Y   -0.000000  -0.000916  -0.000000  -0.000000   0.000000
    5  SI 1  Z   -0.004039   0.000000  -0.071649  -0.068202   0.006349
    6  SI 1  S   -0.012567   0.000000   0.221537   0.234815  -0.033944
    7  SI 1  X   -0.013432   0.000000  -0.156935  -0.155202   0.014393
    8  SI 1  Y   -0.000000   0.006742  -0.000000  -0.000000   0.000000
    9  SI 1  Z    0.011105   0.000000   0.183155   0.175935  -0.020269
   10  SI 1  S   -0.023419   0.000000   0.063757   0.001852  -0.031810
   11  SI 1  X   -0.005863   0.000000  -0.022330  -0.040015  -0.014101
   12  SI 1  Y   -0.000000   0.004970  -0.000000  -0.000000   0.000000
   13  SI 1  Z    0.018094   0.000000   0.033330   0.039501  -0.013330
   14  SI 1 XX   -0.003566   0.000000   0.023919   0.020517  -0.004859
   15  SI 1 YY    0.012212   0.000000  -0.020449  -0.022872   0.010821
   16  SI 1 ZZ    0.003184   0.000000   0.024177   0.024246  -0.009182
   17  SI 1 XY   -0.000000  -0.002674  -0.000000  -0.000000   0.000000
   18  SI 1 XZ   -0.003799   0.000000  -0.036985  -0.049789   0.009205
   19  SI 1 YZ   -0.000000   0.005665  -0.000000  -0.000000   0.000000
   20  SI 2  S   -0.000088   0.000000   0.023136  -0.023833  -0.003441
   21  SI 2  S    0.000775   0.000000  -0.113688   0.115789   0.017063
   22  SI 2  X   -0.004502   0.000000  -0.062171   0.059861   0.006710
   23  SI 2  Y   -0.000000  -0.000916  -0.000000  -0.000000   0.000000
   24  SI 2  Z   -0.004039   0.000000  -0.071649   0.068202   0.006349
   25  SI 2  S   -0.012567   0.000000   0.221537  -0.234815  -0.033944
   26  SI 2  X    0.013432   0.000000   0.156935  -0.155202  -0.014393
   27  SI 2  Y   -0.000000   0.006742  -0.000000  -0.000000   0.000000
   28  SI 2  Z    0.011105   0.000000   0.183155  -0.175935  -0.020269
   29  SI 2  S   -0.023419   0.000000   0.063757  -0.001852  -0.031810
   30  SI 2  X    0.005863   0.000000   0.022330  -0.040015   0.014101
   31  SI 2  Y   -0.000000   0.004970  -0.000000  -0.000000   0.000000
   32  SI 2  Z    0.018094   0.000000   0.033330  -0.039501  -0.013330
   33  SI 2 XX   -0.003566   0.000000   0.023919  -0.020517  -0.004859
   34  SI 2 YY    0.012212   0.000000  -0.020449   0.022872   0.010821
   35  SI 2 ZZ    0.003184   0.000000   0.024177  -0.024246  -0.009182
   36  SI 2 XY   -0.000000   0.002674  -0.000000  -0.000000   0.000000
   37  SI 2 XZ    0.003799   0.000000   0.036985  -0.049789  -0.009205
   38  SI 2 YZ   -0.000000   0.005665  -0.000000  -0.000000   0.000000
   39  SI 3  S    0.032175   0.031161  -0.004616  -0.000000   0.000631
   40  SI 3  S   -0.157568  -0.151975   0.022699  -0.000000  -0.004012
   41  SI 3  X   -0.000000   0.000000  -0.000000  -0.008107   0.000000
   42  SI 3  Y    0.059906   0.063694   0.012880  -0.000000   0.038069
   43  SI 3  Z    0.020203   0.021463  -0.014202  -0.000000  -0.109186
   44  SI 3  S    0.312122   0.302945  -0.052701  -0.000000   0.003988
   45  SI 3  X   -0.000000   0.000000  -0.000000   0.022736   0.000000
   46  SI 3  Y   -0.154501  -0.165821  -0.031282  -0.000000  -0.097218
   47  SI 3  Z   -0.051814  -0.057598   0.035028  -0.000000   0.279421
   48  SI 3  S    0.083603   0.040746  -0.013125  -0.000000   0.032988
   49  SI 3  X   -0.000000   0.000000  -0.000000   0.016465   0.000000
   50  SI 3  Y   -0.008098  -0.027954  -0.007063  -0.000000  -0.002178
   51  SI 3  Z   -0.003644  -0.011571  -0.003726  -0.000000   0.048306
   52  SI 3 XX   -0.021238  -0.024128   0.004375  -0.000000   0.001851
   53  SI 3 YY    0.009366   0.013437  -0.000724  -0.000000   0.035692
   54  SI 3 ZZ    0.045151   0.042543  -0.000280  -0.000000  -0.038069
   55  SI 3 XY   -0.000000   0.000000  -0.000000  -0.001381   0.000000
   56  SI 3 XZ   -0.000000   0.000000  -0.000000  -0.004828   0.000000
   57  SI 3 YZ   -0.012795  -0.017047  -0.001751  -0.000000  -0.058050
   58  SI 4  S    0.032175  -0.031161  -0.004616  -0.000000   0.000631
   59  SI 4  S   -0.157568   0.151975   0.022699  -0.000000  -0.004012
   60  SI 4  X   -0.000000   0.000000  -0.000000  -0.008107   0.000000
   61  SI 4  Y   -0.059906   0.063694  -0.012880  -0.000000  -0.038069
   62  SI 4  Z    0.020203  -0.021463  -0.014202  -0.000000  -0.109186
   63  SI 4  S    0.312122  -0.302945  -0.052701  -0.000000   0.003988
   64  SI 4  X   -0.000000   0.000000  -0.000000   0.022736   0.000000
   65  SI 4  Y    0.154501  -0.165821   0.031282  -0.000000   0.097218
   66  SI 4  Z   -0.051814   0.057598   0.035028  -0.000000   0.279421
   67  SI 4  S    0.083603  -0.040746  -0.013125  -0.000000   0.032988
   68  SI 4  X   -0.000000   0.000000  -0.000000   0.016465   0.000000
   69  SI 4  Y    0.008098  -0.027954   0.007063  -0.000000   0.002178
   70  SI 4  Z   -0.003644   0.011571  -0.003726  -0.000000   0.048306
   71  SI 4 XX   -0.021238   0.024128   0.004375  -0.000000   0.001851
   72  SI 4 YY    0.009366  -0.013437  -0.000724  -0.000000   0.035692
   73  SI 4 ZZ    0.045151  -0.042543  -0.000280  -0.000000  -0.038069
   74  SI 4 XY   -0.000000   0.000000  -0.000000   0.001381   0.000000
   75  SI 4 XZ   -0.000000   0.000000  -0.000000  -0.004828   0.000000
   76  SI 4 YZ    0.012795  -0.017047   0.001751  -0.000000   0.058050
   77  H  5  S    0.011577   0.000000   0.208240   0.216695  -0.033471
   78  H  5  S    0.010801   0.000000   0.202566   0.229009  -0.035303
   79  H  6  S    0.011577   0.000000   0.208240  -0.216695  -0.033471
   80  H  6  S    0.010801   0.000000   0.202566  -0.229009  -0.035303
   81  H  7  S    0.136532   0.143857   0.013045  -0.000000   0.164883
   82  H  7  S    0.125406   0.144646   0.018517  -0.000000   0.188786
   83  H  8  S    0.136532  -0.143857   0.013045  -0.000000   0.164883
   84  H  8  S    0.125406  -0.144646   0.018517  -0.000000   0.188786
   85  H  9  S    0.140654   0.138857  -0.019663  -0.000000  -0.162198
   86  H  9  S    0.132380   0.131814  -0.016352  -0.000000  -0.195008
   87  H 10  S    0.140654  -0.138857  -0.019663  -0.000000  -0.162198
   88  H 10  S    0.132380  -0.131814  -0.016352  -0.000000  -0.195008

                     26         27         28         29         30
                   -0.4896     1.9852     1.9772     1.9671     1.9638
                     B2         A1         B2         B1         A2  
    1  SI 1  S   -0.000000   0.030639  -0.000000   0.031714  -0.000000
    2  SI 1  S   -0.000000  -0.147393  -0.000000  -0.156434  -0.000000
    3  SI 1  X   -0.000000  -0.083414  -0.000000  -0.022816  -0.000000
    4  SI 1  Y    0.004485  -0.000000  -0.119611   0.000000  -0.127183
    5  SI 1  Z   -0.000000   0.040816  -0.000000   0.078566  -0.000000
    6  SI 1  S   -0.000000   0.287161  -0.000000   0.320351  -0.000000
    7  SI 1  X   -0.000000   0.180084  -0.000000   0.061557  -0.000000
    8  SI 1  Y   -0.006101  -0.000000   0.295583   0.000000   0.340728
    9  SI 1  Z   -0.000000  -0.101129  -0.000000  -0.212470  -0.000000
   10  SI 1  S   -0.000000   0.091150  -0.000000   0.317774  -0.000000
   11  SI 1  X   -0.000000   0.020203  -0.000000   0.089204  -0.000000
   12  SI 1  Y   -0.001022  -0.000000   0.023410   0.000000   0.133500
   13  SI 1  Z   -0.000000  -0.030506  -0.000000  -0.094470  -0.000000
   14  SI 1 XX   -0.000000   0.022262  -0.000000  -0.022897  -0.000000
   15  SI 1 YY   -0.000000   0.014564  -0.000000   0.049771  -0.000000
   16  SI 1 ZZ   -0.000000  -0.012536  -0.000000   0.001462  -0.000000
   17  SI 1 XY   -0.001844  -0.000000   0.049121   0.000000   0.010111
   18  SI 1 XZ   -0.000000   0.000283  -0.000000   0.010062  -0.000000
   19  SI 1 YZ   -0.006362  -0.000000  -0.029770   0.000000  -0.038947
   20  SI 2  S   -0.000000   0.030639  -0.000000  -0.031714  -0.000000
   21  SI 2  S   -0.000000  -0.147393  -0.000000   0.156434  -0.000000
   22  SI 2  X   -0.000000   0.083414  -0.000000  -0.022816  -0.000000
   23  SI 2  Y    0.004485  -0.000000  -0.119611   0.000000   0.127183
   24  SI 2  Z   -0.000000   0.040816  -0.000000  -0.078566  -0.000000
   25  SI 2  S   -0.000000   0.287161  -0.000000  -0.320351  -0.000000
   26  SI 2  X   -0.000000  -0.180084  -0.000000   0.061557  -0.000000
   27  SI 2  Y   -0.006101  -0.000000   0.295583   0.000000  -0.340728
   28  SI 2  Z   -0.000000  -0.101129  -0.000000   0.212470  -0.000000
   29  SI 2  S   -0.000000   0.091150  -0.000000  -0.317774  -0.000000
   30  SI 2  X   -0.000000  -0.020203  -0.000000   0.089204  -0.000000
   31  SI 2  Y   -0.001022  -0.000000   0.023410   0.000000  -0.133500
   32  SI 2  Z   -0.000000  -0.030506  -0.000000   0.094470  -0.000000
   33  SI 2 XX   -0.000000   0.022262  -0.000000   0.022897  -0.000000
   34  SI 2 YY   -0.000000   0.014564  -0.000000  -0.049771  -0.000000
   35  SI 2 ZZ   -0.000000  -0.012536  -0.000000  -0.001462  -0.000000
   36  SI 2 XY    0.001844  -0.000000  -0.049121   0.000000   0.010111
   37  SI 2 XZ   -0.000000  -0.000283  -0.000000   0.010062  -0.000000
   38  SI 2 YZ   -0.006362  -0.000000  -0.029770   0.000000   0.038947
   39  SI 3  S   -0.001072   0.016272  -0.024338   0.000000  -0.000000
   40  SI 3  S    0.004607  -0.076493   0.115829   0.000000  -0.000000
   41  SI 3  X   -0.000000  -0.000000  -0.000000   0.098797  -0.126813
   42  SI 3  Y    0.038540  -0.081712   0.104993   0.000000  -0.000000
   43  SI 3  Z   -0.111016  -0.031972   0.041043   0.000000  -0.000000
   44  SI 3  S   -0.015314   0.153913  -0.250898   0.000000  -0.000000
   45  SI 3  X   -0.000000  -0.000000  -0.000000  -0.256385   0.340511
   46  SI 3  Y   -0.100525   0.188298  -0.270472   0.000000  -0.000000
   47  SI 3  Z    0.283684   0.072394  -0.104218   0.000000  -0.000000
   48  SI 3  S   -0.006135  -0.005633  -0.147695   0.000000  -0.000000
   49  SI 3  X   -0.000000  -0.000000  -0.000000  -0.046458   0.118727
   50  SI 3  Y   -0.016464   0.001136  -0.074981   0.000000  -0.000000
   51  SI 3  Z    0.039739   0.004531  -0.018129   0.000000  -0.000000
   52  SI 3 XX   -0.000424   0.011623  -0.027193   0.000000  -0.000000
   53  SI 3 YY    0.037430   0.024593  -0.011979   0.000000  -0.000000
   54  SI 3 ZZ   -0.037612  -0.021213   0.018166   0.000000  -0.000000
   55  SI 3 XY   -0.000000  -0.000000  -0.000000  -0.050273   0.046117
   56  SI 3 XZ   -0.000000  -0.000000  -0.000000  -0.015472   0.024933
   57  SI 3 YZ   -0.057790   0.019603  -0.033139   0.000000  -0.000000
   58  SI 4  S    0.001072   0.016272   0.024338   0.000000  -0.000000
   59  SI 4  S   -0.004607  -0.076493  -0.115829   0.000000  -0.000000
   60  SI 4  X   -0.000000  -0.000000  -0.000000   0.098797   0.126813
   61  SI 4  Y    0.038540   0.081712   0.104993   0.000000  -0.000000
   62  SI 4  Z    0.111016  -0.031972  -0.041043   0.000000  -0.000000
   63  SI 4  S    0.015314   0.153913   0.250898   0.000000  -0.000000
   64  SI 4  X   -0.000000  -0.000000  -0.000000  -0.256385  -0.340511
   65  SI 4  Y   -0.100525  -0.188298  -0.270472   0.000000  -0.000000
   66  SI 4  Z   -0.283684   0.072394   0.104218   0.000000  -0.000000
   67  SI 4  S    0.006135  -0.005633   0.147695   0.000000  -0.000000
   68  SI 4  X   -0.000000  -0.000000  -0.000000  -0.046458  -0.118727
   69  SI 4  Y   -0.016464  -0.001136  -0.074981   0.000000  -0.000000
   70  SI 4  Z   -0.039739   0.004531   0.018129   0.000000  -0.000000
   71  SI 4 XX    0.000424   0.011623   0.027193   0.000000  -0.000000
   72  SI 4 YY   -0.037430   0.024593   0.011979   0.000000  -0.000000
   73  SI 4 ZZ    0.037612  -0.021213  -0.018166   0.000000  -0.000000
   74  SI 4 XY   -0.000000  -0.000000  -0.000000   0.050273   0.046117
   75  SI 4 XZ   -0.000000  -0.000000  -0.000000  -0.015472  -0.024933
   76  SI 4 YZ   -0.057790  -0.019603  -0.033139   0.000000  -0.000000
   77  H  5  S   -0.000000  -0.031161  -0.000000  -0.054135  -0.000000
   78  H  5  S   -0.000000  -0.051493  -0.000000  -0.110731  -0.000000
   79  H  6  S   -0.000000  -0.031161  -0.000000   0.054135  -0.000000
   80  H  6  S   -0.000000  -0.051493  -0.000000   0.110731  -0.000000
   81  H  7  S    0.164160  -0.024465   0.052078   0.000000  -0.000000
   82  H  7  S    0.195479  -0.041021   0.104301   0.000000  -0.000000
   83  H  8  S   -0.164160  -0.024465  -0.052078   0.000000  -0.000000
   84  H  8  S   -0.195479  -0.041021  -0.104301   0.000000  -0.000000
   85  H  9  S   -0.165433  -0.033752   0.034952   0.000000  -0.000000
   86  H  9  S   -0.191477  -0.049960   0.075078   0.000000  -0.000000
   87  H 10  S    0.165433  -0.033752  -0.034952   0.000000  -0.000000
   88  H 10  S    0.191477  -0.049960  -0.075078   0.000000  -0.000000

                     31         32         33         34         35
                    1.9453     0.0557     0.0363     0.0263     0.0228
                     A1         B1         A1         B1         B2  
    1  SI 1  S   -0.001348   0.000906   0.035697   0.041365  -0.000000
    2  SI 1  S    0.004330  -0.005754  -0.147341  -0.157695  -0.000000
    3  SI 1  X   -0.111900  -0.144070  -0.008704  -0.105833  -0.000000
    4  SI 1  Y   -0.000000  -0.000000  -0.000000   0.000000  -0.191638
    5  SI 1  Z   -0.104788  -0.138033   0.083041   0.011470  -0.000000
    6  SI 1  S   -0.034122  -0.014924   0.593895   0.737488  -0.000000
    7  SI 1  X    0.310463   0.515104   0.053884   0.425606  -0.000000
    8  SI 1  Y   -0.000000  -0.000000  -0.000000   0.000000   0.769666
    9  SI 1  Z    0.293421   0.494115  -0.332062  -0.067545  -0.000000
   10  SI 1  S    0.140728   0.077358   0.251340  -0.013291  -0.000000
   11  SI 1  X    0.181189   0.110694   0.082490   0.028898  -0.000000
   12  SI 1  Y   -0.000000  -0.000000  -0.000000   0.000000   0.057383
   13  SI 1  Z    0.142253   0.111897   0.004200   0.056385  -0.000000
   14  SI 1 XX    0.047159   0.055079  -0.065523  -0.013771  -0.000000
   15  SI 1 YY   -0.016087   0.017060   0.037259   0.034714  -0.000000
   16  SI 1 ZZ   -0.023558  -0.033536  -0.001843  -0.040293  -0.000000
   17  SI 1 XY   -0.000000  -0.000000  -0.000000   0.000000  -0.013241
   18  SI 1 XZ    0.040790   0.006747   0.100238   0.077570  -0.000000
   19  SI 1 YZ   -0.000000  -0.000000  -0.000000   0.000000  -0.129015
   20  SI 2  S   -0.001348  -0.000906   0.035697  -0.041365  -0.000000
   21  SI 2  S    0.004330   0.005754  -0.147341   0.157695  -0.000000
   22  SI 2  X    0.111900  -0.144070   0.008704  -0.105833  -0.000000
   23  SI 2  Y   -0.000000  -0.000000  -0.000000   0.000000  -0.191638
   24  SI 2  Z   -0.104788   0.138033   0.083041  -0.011470  -0.000000
   25  SI 2  S   -0.034122   0.014924   0.593895  -0.737488  -0.000000
   26  SI 2  X   -0.310463   0.515104  -0.053884   0.425606  -0.000000
   27  SI 2  Y   -0.000000  -0.000000  -0.000000   0.000000   0.769666
   28  SI 2  Z    0.293421  -0.494115  -0.332062   0.067545  -0.000000
   29  SI 2  S    0.140728  -0.077358   0.251340   0.013291  -0.000000
   30  SI 2  X   -0.181189   0.110694  -0.082490   0.028898  -0.000000
   31  SI 2  Y   -0.000000  -0.000000  -0.000000   0.000000   0.057383
   32  SI 2  Z    0.142253  -0.111897   0.004200  -0.056385  -0.000000
   33  SI 2 XX    0.047159  -0.055079  -0.065523   0.013771  -0.000000
   34  SI 2 YY   -0.016087  -0.017060   0.037259  -0.034714  -0.000000
   35  SI 2 ZZ   -0.023558   0.033536  -0.001843   0.040293  -0.000000
   36  SI 2 XY   -0.000000  -0.000000  -0.000000   0.000000   0.013241
   37  SI 2 XZ   -0.040790   0.006747  -0.100238   0.077570  -0.000000
   38  SI 2 YZ   -0.000000  -0.000000  -0.000000   0.000000  -0.129015
   39  SI 3  S   -0.005231  -0.000000  -0.030783   0.000000   0.031762
   40  SI 3  S    0.029938  -0.000000   0.126642   0.000000  -0.119038
   41  SI 3  X   -0.000000   0.090065  -0.000000  -0.154971  -0.000000
   42  SI 3  Y    0.021490  -0.000000   0.121128   0.000000  -0.110823
   43  SI 3  Z   -0.009319  -0.000000   0.031566   0.000000  -0.035696
   44  SI 3  S   -0.039108  -0.000000  -0.476686   0.000000   0.553898
   45  SI 3  X   -0.000000  -0.311553  -0.000000   0.581017  -0.000000
   46  SI 3  Y   -0.065121  -0.000000  -0.470919   0.000000   0.469276
   47  SI 3  Z    0.027430  -0.000000  -0.124722   0.000000   0.163724
   48  SI 3  S   -0.250825  -0.000000  -0.257061   0.000000   0.052880
   49  SI 3  X   -0.000000  -0.050003  -0.000000   0.040954  -0.000000
[...]
    4             0.004517
    5             0.000000
    6             0.000000
    7             0.000000
    8             0.000000
    9             0.000000
   10             0.000000
 WARNING! MCSCF POPULATIONS SHOWN ABOVE ARE FOR THE NATURAL ORBITALS.
 IGNORE THE ABOVE DATA FOR MCSCF FUNCTIONS WHICH ARE NOT OF -FORS- TYPE.
 THE FOLLOWING POPULATIONS ARE CORRECT FOR ANY MCSCF WAVEFUNCTION.

               ----- POPULATIONS IN EACH AO -----
                             MULLIKEN      LOWDIN
              1  SI 1  S      1.99912     1.99866
              2  SI 1  S      2.00022     1.97246
              3  SI 1  X      1.99268     1.96653
              4  SI 1  Y      1.99307     1.96799
              5  SI 1  Z      1.99351     1.96926
              6  SI 1  S      0.94313     0.41869
              7  SI 1  X      0.65207     0.58339
              8  SI 1  Y      0.70903     0.63654
              9  SI 1  Z      0.71793     0.65148
             10  SI 1  S      0.33735     0.27092
             11  SI 1  X      0.14708     0.29771
             12  SI 1  Y      0.13339     0.29401
             13  SI 1  Z      0.24960     0.39057
             14  SI 1 XX      0.04503     0.18939
             15  SI 1 YY      0.03915     0.19830
             16  SI 1 ZZ      0.02841     0.18136
             17  SI 1 XY      0.02322     0.03161
             18  SI 1 XZ      0.03957     0.04780
             19  SI 1 YZ      0.01644     0.01970
             20  SI 2  S      1.99912     1.99866
             21  SI 2  S      2.00022     1.97246
             22  SI 2  X      1.99268     1.96653
             23  SI 2  Y      1.99307     1.96799
             24  SI 2  Z      1.99351     1.96926
             25  SI 2  S      0.94313     0.41869
             26  SI 2  X      0.65207     0.58339
             27  SI 2  Y      0.70903     0.63654
             28  SI 2  Z      0.71793     0.65148
             29  SI 2  S      0.33735     0.27092
             30  SI 2  X      0.14708     0.29771
             31  SI 2  Y      0.13339     0.29401
             32  SI 2  Z      0.24960     0.39057
             33  SI 2 XX      0.04503     0.18939
             34  SI 2 YY      0.03915     0.19830
             35  SI 2 ZZ      0.02841     0.18136
             36  SI 2 XY      0.02322     0.03161
             37  SI 2 XZ      0.03957     0.04780
             38  SI 2 YZ      0.01644     0.01970
             39  SI 3  S      1.99912     1.99863
             40  SI 3  S      2.00027     1.97280
             41  SI 3  X      1.99299     1.96686
             42  SI 3  Y      1.99327     1.96798
             43  SI 3  Z      1.99374     1.96916
             44  SI 3  S      0.93114     0.40455
             45  SI 3  X      0.63930     0.58663
             46  SI 3  Y      0.68909     0.60353
             47  SI 3  Z      0.69500     0.60884
             48  SI 3  S      0.24401     0.26475
             49  SI 3  X      0.16184     0.32475
             50  SI 3  Y      0.07943     0.26360
             51  SI 3  Z      0.08093     0.29104
             52  SI 3 XX      0.00497     0.14519
             53  SI 3 YY      0.05297     0.20019
             54  SI 3 ZZ      0.08342     0.23282
             55  SI 3 XY      0.03234     0.04181
             56  SI 3 XZ      0.00649     0.00845
             57  SI 3 YZ      0.07100     0.08751
             58  SI 4  S      1.99912     1.99863
             59  SI 4  S      2.00027     1.97280
             60  SI 4  X      1.99299     1.96686
             61  SI 4  Y      1.99327     1.96798
             62  SI 4  Z      1.99374     1.96916
             63  SI 4  S      0.93114     0.40455
             64  SI 4  X      0.63930     0.58663
             65  SI 4  Y      0.68909     0.60353
             66  SI 4  Z      0.69500     0.60884
             67  SI 4  S      0.24401     0.26475
             68  SI 4  X      0.16184     0.32475
             69  SI 4  Y      0.07943     0.26360
             70  SI 4  Z      0.08093     0.29104
             71  SI 4 XX      0.00497     0.14519
             72  SI 4 YY      0.05297     0.20019
             73  SI 4 ZZ      0.08342     0.23282
             74  SI 4 XY      0.03234     0.04181
             75  SI 4 XZ      0.00649     0.00845
             76  SI 4 YZ      0.07100     0.08751
             77  H  5  S      0.48179     0.46873
             78  H  5  S      0.55631     0.50430
             79  H  6  S      0.48179     0.46873
             80  H  6  S      0.55631     0.50430
             81  H  7  S      0.48950     0.48064
             82  H  7  S      0.58457     0.51297
             83  H  8  S      0.48950     0.48064
             84  H  8  S      0.58457     0.51297
             85  H  9  S      0.49095     0.48737
             86  H  9  S      0.58556     0.52053
             87  H 10  S      0.49095     0.48737
             88  H 10  S      0.58556     0.52053

          ----- MULLIKEN ATOMIC OVERLAP POPULATIONS -----
          (OFF-DIAGONAL ELEMENTS NEED TO BE MULTIPLIED BY 2)

             1           2           3           4           5

    1   13.2429719
    2    0.0276201  13.2429719
    3    0.2360882   0.2360882  12.5610689
    4    0.2360882   0.2360882  -0.0104141  12.5610689
    5    0.3535803   0.0047140  -0.0037509  -0.0037509   0.6873328
    6    0.0047140   0.3535803  -0.0037509  -0.0037509  -0.0000867
    7   -0.0142379  -0.0142379   0.3896336   0.0024948   0.0000279
    8   -0.0142379  -0.0142379   0.0024948   0.3896336   0.0000279
    9   -0.0062936  -0.0062936   0.3473527  -0.0034787  -0.0000021
   10   -0.0062936  -0.0062936  -0.0034787   0.3473527  -0.0000021

             6           7           8           9          10

    6    0.6873328
    7    0.0000279   0.7252245
    8    0.0000279  -0.0000012   0.7252245
    9   -0.0000021  -0.0148587  -0.0000018   0.7599526
   10   -0.0000021  -0.0000018  -0.0148587   0.0001321   0.7599526

          TOTAL MULLIKEN AND LOWDIN ATOMIC POPULATIONS
       ATOM         MULL.POP.    CHARGE          LOW.POP.     CHARGE
    1 SI           14.060000   -0.060000        14.086383   -0.086383
    2 SI           14.060000   -0.060000        14.086383   -0.086383
    3 SI           13.751332    0.248668        13.939081    0.060919
    4 SI           13.751332    0.248668        13.939081    0.060919
    5 H             1.038090   -0.038090         0.973028    0.026972
    6 H             1.038090   -0.038090         0.973028    0.026972
    7 H             1.074071   -0.074071         0.993610    0.006390
    8 H             1.074071   -0.074071         0.993610    0.006390
    9 H             1.076507   -0.076507         1.007898   -0.007898
   10 H             1.076507   -0.076507         1.007898   -0.007898

          ---------------------
          ELECTROSTATIC MOMENTS
          ---------------------

 POINT   1           X           Y           Z (BOHR)    CHARGE
                -0.000000    0.000000   -0.532609       -0.00 (A.U.)
         DX          DY          DZ         /D/  (DEBYE)
     0.000000   -0.000000   -0.057144    0.057144
 ...... END OF PROPERTY EVALUATION ......
 STEP CPU TIME =     0.01 TOTAL CPU TIME =        4.7 (    0.1 MIN)
 TOTAL WALL CLOCK TIME=        8.1 SECONDS, CPU UTILIZATION IS  58.23%

     --------------------------------------------------
          AMES LABORATORY DETERMINANTAL FULL CI
     PROGRAM WRITTEN BY JOE IVANIC AND KLAUS RUEDENBERG
     --------------------------------------------------

 THE POINT GROUP                  =   C2V     
 THE STATE SYMMETRY               =   A1      
 NUMBER OF CORE ORBITALS          =   26
 NUMBER OF ACTIVE ORBITALS        =   10
 NUMBER OF ALPHA ELECTRONS        =   31 (   5 ACTIVE)
 NUMBER OF BETA ELECTRONS         =   31 (   5 ACTIVE)
 NUMBER OF OCCUPIED ORBITALS      =   36
 NUMBER OF CI STATES REQUESTED    =    1
 NUMBER OF CI STARTING VECTORS    =    1
 MAX. NO. OF CI EXPANSION VECTORS =   10
 SIZE OF INITIAL CI GUESS MATRIX  =  300
 MAX. NO. OF CI ITERS/STATE       =  100
 CI DIAGONALIZATION CRITERION     = 1.00E-06
 PURE SPIN STATE AVERAGED 1E- AND 2E- DENSITY MATRIX OPTION=.T.
 STATE=   1 DM2 WEIGHT=   1.00000

 CORRELATION ENERGY ANALYSIS      =    F

 SYMMETRIES FOR THE  26 CORE,  10 ACTIVE ARE

     CORE= B2    A1    B1    A1    B2    A1    B1    A1    A1    B2  
           B1    A2    B2    A1    B1    A1    A1    B1    A2    B2  
           A1    B2    A1    B1    A1    B2  

   ACTIVE= A1    B2    B1    A2    A1    B1    A1    B1    B2    A2  


 ==================================================================
 DETERMINANTAL MULTIREFERENCE 2ND ORDER PERTURBATION THEORY (MRPT2)
                  PROGRAM WRITTEN BY JOE IVANIC
         ADVANCED BIOMEDICAL COMPUTING CENTER, NCI-FREDERICK
 ==================================================================

 THE POINT GROUP                  =   C2V     
 THE STATE SYMMETRY               =   A1      
 NUMBER OF CORE     ORBITALS      =   20
 NUMBER OF VALENCE  ORBITALS      =    6
 NUMBER OF ACTIVE   ORBITALS      =   10
 NUMBER OF EXTERNAL ORBITALS      =   52
 NUMBER OF ALPHA ELECTRONS        =   31 (   6 VALENCE) (   5 ACTIVE)
 NUMBER OF BETA ELECTRONS         =   31 (   6 VALENCE) (   5 ACTIVE)
 DENOMINATOR SHIFT PARAMETER      =    0.00000000

 DEFAULTING TO MCSCF INPUT TO DETERMINE STATES IN MRPT:-

 INPUT NO. OF STATES OF SPIN  0.0 =    1
 THESE WOULD SEEM TO BE CI STATES =
    1

 PERTURBATION THEORY OPTIONS:-

 H0 = DIAGONAL ELEMENTS OF FOCK ENERGY MATRIX
 CANONICAL FOCK ORBITALS USED IN ACTIVE SPACE
 VALENCE, EXTERNAL ORBITALS FROM BLOCK DIAGONALIZED FOCK MATRICES

 REFERENCE CI PARAMETERS:-

 NUMBER OF CI STATES REQUESTED    =    1
 NUMBER OF CI STARTING VECTORS    =    1
 MAX. NO. OF CI EXPANSION VECTORS =   10
 SIZE OF INITIAL CI GUESS MATRIX  =  300
 MAX. NO. OF CI ITERS/STATE       =  100
 CI DIAGONALIZATION CRITERION     = 1.00E-06

 SYMMETRIES FOR THE  20 CORE,   6 VALENCE,  10 ACTIVE,  52 EXTERNAL ARE

     CORE= B2    A1    B1    A1    B2    A1    B1    A1    A1    B2  
           B1    A2    B2    A1    B1    A1    A1    B1    A2    B2  

  VALENCE= A1    B2    A1    B1    A1    B2  

   ACTIVE= A1    B2    B1    A2    A1    B1    A1    B1    B2    A2  


 EXTERNAL= A1    A1    B2    B1    A1    B2    B2    A1    A2    B1  
           B2    A1    A2    A1    B1    B2    A1    B1    B1    A1  
           B2    A1    A2    A1    B2    B1    A1    A2    B2    B1  
           A1    B2    A1    A2    B1    B2    A1    A1    B1    B1  
           B2    A2    A1    B2    A1    B1    B2    A1    A1    B2  
           B1    A1  

     =========================================
     EXECUTING INITIAL CI FOR REFERENCE STATES
     =========================================

 TRANSFORMING INTEGRALS (OVER THE ACTIVE SPACE ONLY) FOR THE CI...

     --------------------------------------------
     PARTIAL TWO ELECTRON INTEGRAL TRANSFORMATION
     --------------------------------------------

 NUMBER OF CORE MOLECULAR ORBITALS     =   26
 NUMBER OF OCCUPIED MOLECULAR ORBITALS =   36
 TOTAL NUMBER OF MOLECULAR ORBITALS    =   36
 TOTAL NUMBER OF ATOMIC ORBITALS       =   88
 THRESHOLD FOR KEEPING TRANSFORMED 2E- INTEGRALS = 1.000E-09
 AO INTEGRALS WILL BE READ IN FROM DISK...
 EVALUATING THE FROZEN CORE ENERGY...
 ----- FROZEN CORE ENERGY =     -1459.0903270707

 PLAN A: REQUIREMENTS FOR FULLY IN-MEMORY TRANSFORMATION:
 # OF WORDS AVAILABLE =              5000000
 # OF WORDS NEEDED    =              3544978

 CHOOSING IN MEMORY PARTIAL TRANSFORMATION...
 TOTAL NUMBER OF TRANSFORMED 2E- INTEGRALS KEPT =          418
 ... END OF INTEGRAL TRANSFORMATION ...
 STEP CPU TIME =     0.14 TOTAL CPU TIME =        4.9 (    0.1 MIN)
 TOTAL WALL CLOCK TIME=        8.4 SECONDS, CPU UTILIZATION IS  58.16%

     --------------------------------------------------
          AMES LABORATORY DETERMINANTAL FULL CI
     PROGRAM WRITTEN BY JOE IVANIC AND KLAUS RUEDENBERG
     --------------------------------------------------

 THE NUMBER OF DETERMINANTS HAVING SPACE SYMMETRY A1 
 IN POINT GROUP C2V  WITH SZ=  0.0 IS          15912
 THE DETERMINANT FULL CI REQUIRES          524717 WORDS
 INITIAL CI VECTOR GUESS TIME  :          0.1
 INITIAL FULL CI ITERATION TIME:          0.0

 ITERATION      ENERGY           GRADIENT
     0    -1159.1293931233     0.14387772
     1    -1159.1445825277     0.03939007
     2    -1159.1454229580     0.01373503
     3    -1159.1455320775     0.00438072
     4    -1159.1455436532     0.00143715
     5    -1159.1455447535     0.00048477
     6    -1159.1455448778     0.00015208
     7    -1159.1455448894     0.00004752
     8    -1159.1455448905     0.00001497
     9    -1159.1455448906     0.00000491
    10    -1159.1455448906     0.00000208
    11    -1159.1455448907     0.00000080

 CONVERGED STATE    1 ENERGY=    -1159.1455448907 IN   11 ITERS

 ALL STATES CONVERGED.

 CI EIGENVECTORS WILL BE LABELED IN GROUP=C2V     
 PRINTING CI COEFFICIENTS LARGER THAN 5.000E-02

 STATE   1  ENERGY=     -1159.1455448907  S=  0.00  SZ=  0.00  SPACE SYM=A1  

   ALPHA    |   BETA     | CI COEFFICIENT
------------|------------|---------------
 1111100000 | 1111100000 |   0.9601150108
 1111010000 | 1111010000 |  -0.1088139828
 1111010000 | 1101101000 |  -0.0502477572
 1101101000 | 1111010000 |  -0.0502477572
 ..... DONE WITH DETERMINANT CI COMPUTATION .....
 STEP CPU TIME =     0.27 TOTAL CPU TIME =        5.2 (    0.1 MIN)
 TOTAL WALL CLOCK TIME=        9.4 SECONDS, CPU UTILIZATION IS  54.67%

     ---------------------------
     ONE PARTICLE DENSITY MATRIX
     ---------------------------

 DENSITY MATRIX WILL BE SAVED FOR PROPERTIES OF STATE   1

 CI EIGENSTATE   1 TOTAL ENERGY =    -1159.1455448907

 1-PARTICLE DENSITY MATRIX IN MO BASIS

             1           2           3           4           5

    1    1.9852214
    2    0.0000000   1.9771844
    3    0.0000000   0.0000000   1.9671287
    4    0.0000000   0.0000000   0.0000000   1.9637609
    5   -0.0007822   0.0000000   0.0000000   0.0000000   1.9453193
    6    0.0000000   0.0000000   0.0046059   0.0000000   0.0000000
    7   -0.0024811   0.0000000   0.0000000   0.0000000   0.0015490
    8    0.0000000   0.0000000   0.0016126   0.0000000   0.0000000
    9    0.0000000   0.0011679   0.0000000   0.0000000   0.0000000
   10    0.0000000   0.0000000   0.0000000   0.0024454   0.0000000

             6           7           8           9          10

    6    0.0556978
    7    0.0000000   0.0362553
    8    0.0009788   0.0000000   0.0263503
    9    0.0000000   0.0000000   0.0000000   0.0227609
   10    0.0000000   0.0000000   0.0000000   0.0000000   0.0203210
 ..... DONE WITH ONE PARTICLE DENSITY MATRIX .....
 STEP CPU TIME =     0.00 TOTAL CPU TIME =        5.2 (    0.1 MIN)
 TOTAL WALL CLOCK TIME=        9.5 SECONDS, CPU UTILIZATION IS  54.21%
 ORBITAL CANONICALIZATION ALREADY DONE BY MCSCF PROGRAM
 .... DONE CANONICALIZING MOLECULAR ORBITALS ....
 STEP CPU TIME =     0.03 TOTAL CPU TIME =        5.2 (    0.1 MIN)
 TOTAL WALL CLOCK TIME=        9.6 SECONDS, CPU UTILIZATION IS  53.73%

     ===============================
     EXECUTING SINGLE STATE DET-MRPT
     ===============================
     DETERMINING PT CORRECTION FOR CI STATE    1

 TRANSFORMING INTEGRALS OVER ALL ORBITALS (EXCEPT FROZEN CORE) FOR THE PT...

     --------------------------------------------
     PARTIAL TWO ELECTRON INTEGRAL TRANSFORMATION
     --------------------------------------------

 NUMBER OF CORE MOLECULAR ORBITALS     =   20
 NUMBER OF OCCUPIED MOLECULAR ORBITALS =   36
 TOTAL NUMBER OF MOLECULAR ORBITALS    =   88
 TOTAL NUMBER OF ATOMIC ORBITALS       =   88
 THRESHOLD FOR KEEPING TRANSFORMED 2E- INTEGRALS = 1.000E-09
 AO INTEGRALS WILL BE READ IN FROM DISK...
 EVALUATING THE FROZEN CORE ENERGY...
 ----- FROZEN CORE ENERGY =     -1415.8172218445

 PLAN A: REQUIREMENTS FOR FULLY IN-MEMORY TRANSFORMATION:
 # OF WORDS AVAILABLE =              5000000
 # OF WORDS NEEDED    =              5612626

 PLAN B: REQUIREMENTS FOR THE SEGMENTED TRANSFORMATION:
       MINIMUM=         443506 WORDS FOR 1 MOLECULAR ORBITAL PER PASS
       MAXIMUM=        5612626 WORDS FOR ALL MOLECULAR ORBITALS IN 1 PASS
              (         344608 EXTRA WORDS INCLUDES 1 EXTRA ORBITAL/PASS)
 THIS RUN USES=        2855762 WORDS,
 DISTRIBUTING   2 PASSES EACH CONTAINING     8 ORBITALS OVER   1 PROCESSORS.

 CHOOSING SEGMENTED PARTIAL TRANSFORMATION...
 PASS #   1 TOOK        0.28 SECONDS.
 PASS #   2 TOOK        0.32 SECONDS.
 TOTAL NUMBER OF TRANSFORMED 2E- INTEGRALS KEPT =       166844
 ... END OF INTEGRAL TRANSFORMATION ...
 STEP CPU TIME =     0.64 TOTAL CPU TIME =        5.8 (    0.1 MIN)
 TOTAL WALL CLOCK TIME=       10.4 SECONDS, CPU UTILIZATION IS  55.91%

 CORE    ELECTRONIC BARYCENTRIC 0TH ORDER ENERGY  =  -700.755212544

 *** CI STATE   1 ***

 VAL/ACT ELECTRONIC BARYCENTRIC 0TH ORDER ENERGY  =   -11.184901488
 TOTAL   ELECTRONIC BARYCENTRIC 0TH ORDER ENERGY  =  -711.940114032

 TOTAL   ELECTRONIC       0TH + 1ST ORDER ENERGY  = -1475.684712172
 TOTAL   (MCSCF)          0TH + 1ST ORDER ENERGY  = -1159.145544891

 THE DETERMINANT MRPT REQUIRES      725462 WORDS

 INITIAL CI VECTORS READ FROM DISK, STATES =   1

 TIME FOR 2ND ORDER ENERGY E(2) CALCULATION :        6.1

                     2ND ORDER ENERGY CORRECTION  =        -0.2735856593
 TOTAL MRPT2, E(MP2) 0TH + 1ST + 2ND ORDER ENERGY =     -1159.4191305500

 BREAKDOWN OF E(2) ACCORDING TO CLASS OF EXCITED DETERMINANT

  **** NOTE **** THIS MEANS THAT THE E(2) ENERGY IS SORTED ACCORDING TO
 CONTRIBUTIONS FROM EXCITED DETERMINANTS, NOT ACCORDING TO EXCITATION TYPES:
     V = VALENCE, A = ACTIVE, E = EXTERNAL

                   EXTERNAL DETERMINANT CREATED BY:        E(2)

                                             V -> A    -0.002141903
                                             V -> E    -0.021982145
                                             A -> E    -0.032265197
                                            VV -> AA   -0.002155647
                                            VV -> AE   -0.013616076
           (2 ELECTRONS ARE DIFFERENT SPIN) VA -> AE   -0.009004345
                                            VV -> EE   -0.081855453
                                            VA -> EE   -0.044124050
                                            AA -> EE   -0.066440844
                                            ------------------------
                                              TOTAL    -0.273585659


 ..... DONE WITH MP2 ENERGY .....
 STEP CPU TIME =     6.08 TOTAL CPU TIME =       11.9 (    0.2 MIN)
 TOTAL WALL CLOCK TIME=       16.9 SECONDS, CPU UTILIZATION IS  70.50%
 AN INPUT FILE FOR -MOLPLT- HAS BEEN PUNCHED.
              4234194  WORDS OF DYNAMIC MEMORY USED
 EXECUTION OF GAMESS TERMINATED NORMALLY Mon Nov 28 21:22:43 2016
 DDI: 263640 bytes (0.3 MB / 0 MWords) used by master data server.

 ----------------------------------------
 CPU timing information for all processes
 ========================================
 0: 11.675 + 0.233 = 11.909
 ----------------------------------------
 ddikick.x: exited gracefully.
unset echo
----- accounting info -----
Files used on the master node compute-3-0 were:
-rw-rw-r-- 1 sarom sarom   180278 Nov 29  2016 .//mc-detpt-bic-ts.dat
-rw-rw-r-- 1 sarom sarom   162122 Nov 29  2016 .//mc-detpt-bic-ts.F05
-rw-rw-r-- 1 sarom sarom 20161792 Nov 29  2016 .//mc-detpt-bic-ts.F08
-rw-rw-r-- 1 sarom sarom  2178968 Nov 29  2016 .//mc-detpt-bic-ts.F09
-rw-rw-r-- 1 sarom sarom  2388560 Nov 29  2016 .//mc-detpt-bic-ts.F10
-rw-rw-r-- 1 sarom sarom   127328 Nov 29  2016 .//mc-detpt-bic-ts.F12
-rw-rw-r-- 1 sarom sarom      448 Nov 29  2016 .//mc-detpt-bic-ts.F15
-rw-rw-r-- 1 sarom sarom  1520280 Nov 29  2016 .//mc-detpt-bic-ts.F16
-rw-rw-r-- 1 sarom sarom   162122 Nov 27 05:47 .//mc-detpt-bic-ts.inp
-rw-rw-r-- 1 sarom sarom   226272 Nov 29  2016 .//mc-detpt-bic-ts.log
Mon Nov 28 21:22:48 CST 2016
0.209u 0.442s 0:22.64 2.8%	0+0k 0+448io 0pf+0w
