----- GAMESS execution script 'rungms' -----
This job is running on host compute-3-0
under operating system Linux at Mon Nov 28 21:22:26 CST 2016
Available scratch disk space (Kbyte units) at beginning of the job is
Filesystem            1K-blocks       Used  Available Use% Mounted on
bolt.local:/export/home/sarom
                     9590469632 1552972800 7550328832  18% /home/sarom
Copying input file mc-mcqdpt-lif.inp to your run's scratch directory...
cp mc-mcqdpt-lif.inp .//mc-mcqdpt-lif.F05
unset echo
/home/sarom/gamessGH/ddikick.x /home/sarom/gamessGH/gamess.00.x mc-mcqdpt-lif -ddi 1 1 localhost -scr ./

 Distributed Data Interface kickoff program.
 Initiating 1 compute processes on 1 nodes to run the following command:
 /home/sarom/gamessGH/gamess.00.x mc-mcqdpt-lif 

          ******************************************************
          *         GAMESS VERSION = 18 AUG 2016 (R1)          *
          *             FROM IOWA STATE UNIVERSITY             *
          * M.W.SCHMIDT, K.K.BALDRIDGE, J.A.BOATZ, S.T.ELBERT, *
          *   M.S.GORDON, J.H.JENSEN, S.KOSEKI, N.MATSUNAGA,   *
          *          K.A.NGUYEN, S.J.SU, T.L.WINDUS,           *
          *       TOGETHER WITH M.DUPUIS, J.A.MONTGOMERY       *
          *         J.COMPUT.CHEM.  14, 1347-1363(1993)        *
          **************** 64 BIT LINUX VERSION ****************

  SINCE 1993, STUDENTS AND POSTDOCS WORKING AT IOWA STATE UNIVERSITY
  AND ALSO IN THEIR VARIOUS JOBS AFTER LEAVING ISU HAVE MADE IMPORTANT
  CONTRIBUTIONS TO THE CODE:
     IVANA ADAMOVIC, CHRISTINE AIKENS, YURI ALEXEEV, POOJA ARORA,
     ANDREY ASADCHEV, ROB BELL, PRADIPTA BANDYOPADHYAY, JONATHAN BENTZ,
     BRETT BODE, KURT BRORSEN, CALEB CARLIN, GALINA CHABAN, WEI CHEN,
     CHEOL HO CHOI, PAUL DAY, ALBERT DEFUSCO, NUWAN DESILVA, TIM DUDLEY,
     DMITRI FEDOROV, GRAHAM FLETCHER, MARK FREITAG, KURT GLAESEMANN,
     DAN KEMP, GRANT MERRILL, NORIYUKI MINEZAWA, JONATHAN MULLIN,
     TAKESHI NAGATA, SEAN NEDD, HEATHER NETZLOFF, BOSILJKA NJEGIC, RYAN OLSON,
     MIKE PAK, SPENCER PRUITT, LUKE ROSKOP, JIM SHOEMAKER, LYUDMILA SLIPCHENKO,
     TONY SMITH, SAROM SOK LEANG, JIE SONG, TETSUYA TAKETSUGU, SIMON WEBB,
     PENG XU, SOOHAENG YOO, FEDERICO ZAHARIEV

  ADDITIONAL CODE HAS BEEN PROVIDED BY COLLABORATORS IN OTHER GROUPS:
     IOWA STATE UNIVERSITY:
          JOE IVANIC, AARON WEST, LAIMUTIS BYTAUTAS, KLAUS RUEDENBERG
     UNIVERSITY OF TOKYO: KIMIHIKO HIRAO, TAKAHITO NAKAJIMA,
          TAKAO TSUNEDA, MUNEAKI KAMIYA, SUSUMU YANAGISAWA,
          KIYOSHI YAGI, MAHITO CHIBA, SEIKEN TOKURA, NAOAKI KAWAKAMI
     UNIVERSITY OF AARHUS: FRANK JENSEN
     UNIVERSITY OF IOWA: VISVALDAS KAIRYS, HUI LI
     NATIONAL INST. OF STANDARDS AND TECHNOLOGY: WALT STEVENS, DAVID GARMER
     UNIVERSITY OF PISA: BENEDETTA MENNUCCI, JACOPO TOMASI
     UNIVERSITY OF MEMPHIS: HENRY KURTZ, PRAKASHAN KORAMBATH
     UNIVERSITY OF ALBERTA: TOBY ZENG, MARIUSZ KLOBUKOWSKI
     UNIVERSITY OF NEW ENGLAND: MARK SPACKMAN
     MIE UNIVERSITY: HIROAKI UMEDA
     NAT. INST. OF ADVANCED INDUSTRIAL SCIENCE AND TECHNOLOGY: KAZUO KITAURA
     MICHIGAN STATE UNIVERSITY:
          KAROL KOWALSKI, MARTA WLOCH, JEFFREY GOUR, JESSE LUTZ,
          WEI LI, PIOTR PIECUCH
     UNIVERSITY OF SILESIA: MONIKA MUSIAL, STANISLAW KUCHARSKI
     FACULTES UNIVERSITAIRES NOTRE-DAME DE LA PAIX:
          OLIVIER QUINET, BENOIT CHAMPAGNE
     UNIVERSITY OF CALIFORNIA - SANTA BARBARA: BERNARD KIRTMAN
     INSTITUTE FOR MOLECULAR SCIENCE:
          KAZUYA ISHIMURA, MICHIO KATOUDA, AND SHIGERU NAGASE
     UNIVERSITY OF NOTRE DAME: ANNA POMOGAEVA, DAN CHIPMAN
     KYUSHU UNIVERSITY:
          HARUYUKI NAKANO,
          FENG LONG GU, JACEK KORCHOWIEC, MARCIN MAKOWSKI, AND YURIKO AOKI,
          HIROTOSHI MORI AND EISAKU MIYOSHI
     PENNSYLVANIA STATE UNIVERSITY:
          TZVETELIN IORDANOV, CHET SWALINA, JONATHAN SKONE,
          SHARON HAMMES-SCHIFFER
     WASEDA UNIVERSITY:
          MASATO KOBAYASHI, TOMOKO AKAMA, TSUGUKI TOUMA,
          TAKESHI YOSHIKAWA, YASUHIRO IKABATA, JUNJI SEINO,
          YUYA NAKAJIMA, HIROMI NAKAI
     NANJING UNIVERSITY: SHUHUA LI
     UNIVERSITY OF NEBRASKA:
          PEIFENG SU, DEJUN SI, NANDUN THELLAMUREGE, YALI WANG, HUI LI
     UNIVERSITY OF ZURICH: ROBERTO PEVERATI, KIM BALDRIDGE
     N. COPERNICUS UNIVERSITY AND JACKSON STATE UNIVERSITY:
          MARIA BARYSZ
     UNIVERSITY OF COPENHAGEN: Jimmy Kromann, CASPER STEINMANN
     TOKYO INSTITUTE OF TECHNOLOGY: HIROYA NAKATA
     NAGOYA UNIVERSITY: YOSHIO NISHIMOTO, STEPHAN IRLE
     MOSCOW STATE UNIVERSITY: VLADIMIR MIRONOV

 EXECUTION OF GAMESS BEGUN Mon Nov 28 21:22:26 2016

            ECHO OF THE FIRST FEW INPUT CARDS -
 INPUT CARD>!  1-Sigma-plus LiF...2nd order MC-QDPT calculation, SA-orbitals                
 INPUT CARD>!  The wavefunction contains 55 configurations.                                 
 INPUT CARD>!  This job duplicates the R=9.5 column of Table 6 in                           
 INPUT CARD>!     H.Nakano, J.Chem.Phys. 99, 7983-7992(1993).                               
 INPUT CARD>!  Literature result is -106.93846 and -106.91419                               
 INPUT CARD>!                                                                               
 INPUT CARD>!  MCSCF:                                                                       
 INPUT CARD>!  The FINAL E(1)= -106.848360168,                                              
 INPUT CARD>!            E(2)= -106.825127372, after 2 iterations.                          
 INPUT CARD>!                                                                               
 INPUT CARD>!  MCQDPT:                                                                      
 INPUT CARD>!  CSFs: E(MCSCF) = -106.8483601644  E(MP2) = -106.9384606505                   
 INPUT CARD>!  CSFs: E(MCSCF) = -106.8251273757  E(MP2) = -106.9141888827                   
 INPUT CARD>!                                                                               
 INPUT CARD>!  This run takes 0 seconds on anything ( 8 Nov 2005)                           
 INPUT CARD>!                                                                               
 INPUT CARD> $CONTRL SCFTYP=MCSCF MPLEVL=2 UNITS=BOHR $END                                  
 INPUT CARD> $SYSTEM TIMLIM=8 mwords=1 memddi=1 $END                                        
 INPUT CARD> $GUESS  GUESS=MOREAD NORB=9 $END                                               
 INPUT CARD>                                                                                
 INPUT CARD>!   This test has never correlated the one valence orbital that is not          
 INPUT CARD>!   in the active space, so the input must force 3 frozen orbitals.             
 INPUT CARD>                                                                                
 INPUT CARD>!      the determinant solution                                                 
 INPUT CARD>!   the wstate skips over a doubly degenerate singlet level, and there          
 INPUT CARD>!   are also two triplets before we get to the 2nd singlet-sigma-plus.          
 INPUT CARD>--- $det    group=c1 ncore=3 nact=6 nels=6                                      
 INPUT CARD>---         nstate=7 wstate(1)=1,0,0,1 $end                                     
 INPUT CARD>--- $detpt  nval=0 $end                                                         
 INPUT CARD>                                                                                
 INPUT CARD>!      the CSF solution                                                         
 INPUT CARD>!   note that unlike determinants, the PT can run in a higher group             
 INPUT CARD>!   than the MCSCF (which is done in the C1 group for the hell of it).          
 INPUT CARD> $mcscf  cistep=guga $end                                                       
 INPUT CARD> $drt    group=c1 fors=.t. nmcc=3 ndoc=3 nval=3 $end                            
 INPUT CARD> $gugdia nstate=4 $end                                                          
 INPUT CARD> $gugdm2 wstate(1)=1,0,0,1 $end                                                 
 INPUT CARD> $mrmp   mrpt=mcqdpt $end                                                       
 INPUT CARD> $mcqdpt NMOFZC=3 NMODOC=0 NMOACT=6 ISTSYM=1 KSTATE(1)=1,1 $END                 
 INPUT CARD>                                                                                
 INPUT CARD> $DATA                                                                          
 INPUT CARD>LiF...basis set is???                                                           
 INPUT CARD>Cnv 2                                                                           
 INPUT CARD>                                                                                
 INPUT CARD>Lithium      3.        0.                  0.                0.                 
 INPUT CARD>    1    S    5                                                                 
 INPUT CARD>    1    921.3       0.001367                                                   
 INPUT CARD>    2    138.7       0.010425                                                   
 INPUT CARD>    3     31.94      0.049859                                                   
 INPUT CARD>    4      9.353     0.160701                                                   
    1000000 WORDS OF MEMORY AVAILABLE


     RUN TITLE
     ---------
 LiF...basis set is???                                                           

 THE POINT GROUP OF THE MOLECULE IS CNV     
 THE ORDER OF THE PRINCIPAL AXIS IS     2
 *** WARNING! ATOM   1 SHELL    1 TYPE S HAS NORMALIZATION   1.93476671
 *** WARNING! ATOM   1 SHELL    2 TYPE S HAS NORMALIZATION   1.73640574

 ATOM      ATOMIC                      COORDINATES (BOHR)
           CHARGE         X                   Y                   Z
 LITHIUM     3.0     0.0000000000        0.0000000000        0.0000000000
 FLUORINE    9.0     0.0000000000        0.0000000000        9.5000000000

          INTERNUCLEAR DISTANCES (ANGS.)
          ------------------------------

                1 LITH       2 FLUO  

   1 LITH    0.0000000    5.0271839  
   2 FLUO    5.0271839    0.0000000  

  * ... LESS THAN  3.000


     ATOMIC BASIS SET
     ----------------
 THE CONTRACTED PRIMITIVE FUNCTIONS HAVE BEEN UNNORMALIZED
 THE CONTRACTED BASIS FUNCTIONS ARE NOW NORMALIZED TO UNITY

  SHELL TYPE  PRIMITIVE        EXPONENT          CONTRACTION COEFFICIENT(S)

 LITHIUM   

      1   S       1           921.3000000    0.002644826094
      1   S       2           138.7000000    0.020169942966
      1   S       3            31.9400000    0.096465533462
      1   S       4             9.3530000    0.310918945284
      1   S       5             3.1580000    0.666728347805

      2   S       6             1.1570000    0.738314510155
      2   S       7             0.4446000    0.294265207438

      3   S       8             0.0766600    1.000000000000

      4   S       9             0.0286400    1.000000000000

      5   P      10             1.4880000    0.038770015474
      5   P      11             0.2667000    0.236257094298
      5   P      12             0.0720100    0.830448331458

      6   P      13             0.0237000    1.000000000000

 FLUORINE  

      7   S      14          9994.7900000    0.002016998646
      7   S      15          1506.0300000    0.015294989735
      7   S      16           350.2690000    0.073109950931
      7   S      17           104.0530000    0.246419834613
      7   S      18            34.8432000    0.612592588852
      7   S      19             4.3688000    0.242488837251

      8   S      20            12.2164000    1.000000000000

      9   S      21             1.2078000    1.000000000000

     10   S      22             0.3634000    1.000000000000

     11   P      23            44.3555000    0.020868000628
     11   P      24            10.0820000    0.130092003916
     11   P      25             2.9959000    0.396219011926
     11   P      26             0.9383000    0.620368018673

     12   P      27             0.2733000    1.000000000000

     13   P      28             0.0800000    1.000000000000

     14   D      29             1.4000000    1.000000000000

 TOTAL NUMBER OF BASIS SET SHELLS             =   14
 NUMBER OF CARTESIAN GAUSSIAN BASIS FUNCTIONS =   29
 NUMBER OF ELECTRONS                          =   12
 CHARGE OF MOLECULE                           =    0
 SPIN MULTIPLICITY                            =    1
 NUMBER OF OCCUPIED ORBITALS (ALPHA)          =    6
 NUMBER OF OCCUPIED ORBITALS (BETA )          =    6
 TOTAL NUMBER OF ATOMS                        =    2
 THE NUCLEAR REPULSION ENERGY IS        2.8421052632

 THIS MOLECULE IS RECOGNIZED AS BEING LINEAR,
 ORBITAL LZ DEGENERACY TOLERANCE ETOLLZ= 1.00E-06

     $CONTRL OPTIONS
     ---------------
 SCFTYP=MCSCF        RUNTYP=ENERGY       EXETYP=RUN     
 MPLEVL=       2     CITYP =NONE         CCTYP =NONE         VBTYP =NONE    
 DFTTYP=NONE         TDDFT =NONE    
 MULT  =       1     ICHARG=       0     NZVAR =       0     COORD =UNIQUE  
 PP    =NONE         RELWFN=NONE         LOCAL =NONE         NUMGRD=       F
 ISPHER=      -1     NOSYM =       0     MAXIT =      30     UNITS =BOHR    
 PLTORB=       F     MOLPLT=       F     AIMPAC=       F     FRIEND=        
 NPRINT=       7     IREST =       0     GEOM  =INPUT   
 NORMF =       0     NORMP =       0     ITOL  =      20     ICUT  =       9
 INTTYP=BEST         GRDTYP=BEST         QMTTOL= 1.0E-06

     $SYSTEM OPTIONS
     ---------------
  REPLICATED MEMORY=     1000000 WORDS (ON EVERY NODE).
 DISTRIBUTED MEMDDI=           1 MILLION WORDS IN AGGREGATE,
 MEMDDI DISTRIBUTED OVER   1 PROCESSORS IS     1000000 WORDS/PROCESSOR.
 TOTAL MEMORY REQUESTED ON EACH PROCESSOR=     2000000 WORDS.
 TIMLIM=           8.00 MINUTES, OR       0.0 DAYS.
 PARALL= F  BALTYP=  DLB     KDIAG=    0  COREFL= F
 MXSEQ2=     300 MXSEQ3=     150  mem10=         0

          ----------------
          PROPERTIES INPUT
          ----------------

     MOMENTS            FIELD           POTENTIAL          DENSITY
 IEMOM =       1   IEFLD =       0   IEPOT =       0   IEDEN =       0
 WHERE =COMASS     WHERE =NUCLEI     WHERE =NUCLEI     WHERE =NUCLEI  
 OUTPUT=BOTH       OUTPUT=BOTH       OUTPUT=BOTH       OUTPUT=BOTH    
 IEMINT=       0   IEFINT=       0                     IEDINT=       0
                                                       MORB  =       0

     -------------------------------
     INTEGRAL TRANSFORMATION OPTIONS
     -------------------------------
     NWORD  =            0
     CUTOFF = 1.0E-09     MPTRAN =       0
     DIRTRF =       F     AOINTS =DUP     

          ----------------------
          MCSCF INPUT PARAMETERS
          ----------------------
 CONVERGER SELECTION: FOCAS = F  SOSCF = T  FULLNR = F  QUD = F  JACOBI = F
 SECULAR EQUATION METHOD CISTEP = GUGA    
 --- GENERAL INPUT OPTIONS:
 MAXIT =      60  MICIT =       5  ACURCY= 1.000E-06
 DAMP  =   0.000  CANONC=       T  ENGTOL= 1.000E-10
 EKT   =       F  NPUNCH=       2  NWORD =         0
 REGENERATE CI AFTER CONVERGENCE = NONE    
 DIABATIZATION AFTER CONVERGENCE =        F
 --- INPUT FOR SOSCF CONVERGER:
 FORS  =       T  NOFO  =       1

          ----------------------
          INTEGRAL INPUT OPTIONS
          ----------------------
 NOPK  =       1 NORDER=       0 SCHWRZ=       F

 ------------------------------------------
 MULTIREFERENCE PERTURBATION THEORY CONTROL
 ------------------------------------------
 MRPT=MCQDPT   READ CONVERGED MCSCF VECTORS= F


    ----------------------------
    MRMP/MCQDPT INPUT PARAMETERS
    ----------------------------
 # OF ELECTRONS                =        12
 SPIN MULTIPLICITY             =         1
 SPATIAL STATE SYMMETRY        =         1
 # OF STATES                   =         2 (DIMENSION OF EFFECTIVE HAMILTONIAN)
 # OF FROZEN CORE ORBITALS     =         3
 # OF DOUBLY OCCUPIED ORBITALS =         0
 # OF ACTIVE ORBITALS          =         6
 # OF EXTERNAL ORBITALS        =        20
 # OF FROZEN VIRTUAL ORBITALS  =         0

      IFORB      IROT    ISELCT    LENGTH    MAXCSF    MAXERI
          1         0         0      4096      2048      4096
     MAXROW       MDI    MXBASE    MXTRFR    NSOLUT     NSTCI     NSTOP
        200        50        50        80         2         2       100
     GENZRO    THRCON    THRENE    THRERI    THRGEN    THRWGT    REFWGT
  1.000D-12 1.000D-06-1.000D+00 1.000D-12 1.000D-08 1.000D-06       F
      NOSYM    PARAIO    DOORD0    DELSCR
          0         T         T         F

 THE WEIGHTS OF THE CAS STATES IN THE DENSITY MATRIX AVERAGING ARE
   1=  0.500000   2=  0.500000

     ------------------------------------------
     THE POINT GROUP IS CNV, NAXIS= 2, ORDER= 4
     ------------------------------------------

     DIMENSIONS OF THE SYMMETRY SUBSPACES ARE
 A1  =   16     A2  =    1     B1  =    6     B2  =    6

 ..... DONE SETTING UP THE RUN .....
 STEP CPU TIME =     0.02 TOTAL CPU TIME =        0.0 (    0.0 MIN)
 TOTAL WALL CLOCK TIME=        0.0 SECONDS, CPU UTILIZATION IS  66.67%

          ********************
          1 ELECTRON INTEGRALS
          ********************
 TIME TO DO   DIPOLE INTEGRALS=      0.00
 ...... END OF ONE-ELECTRON INTEGRALS ......
 STEP CPU TIME =     0.00 TOTAL CPU TIME =        0.0 (    0.0 MIN)
 TOTAL WALL CLOCK TIME=        0.0 SECONDS, CPU UTILIZATION IS  66.67%

          -------------
          GUESS OPTIONS
          -------------
          GUESS =MOREAD            NORB  =       9          NORDER=       0
          MIX   =       F          PRTMO =       F          PUNMO =       F
          TOLZ  = 1.0E-08          TOLE  = 1.0E-05
          SYMDEN=       F          PURIFY=       F

 INITIAL GUESS ORBITALS GENERATED BY MOREAD   ROUTINE.

 SYMMETRIES FOR INITIAL GUESS ORBITALS FOLLOW.   BOTH SET(S).
     9 ORBITALS ARE OCCUPIED (    2 CORE ORBITALS).
     1=A1       2=A1       3=A1       4=B1       5=B2       6=A1       7=A1  
     8=B1       9=B2      10=A1      11=A1      12=A1      13=A1      14=A1  
    15=A1      16=A1      17=A1      18=A1      19=A1      20=A1      21=A2  
    22=B1      23=B1      24=B1      25=B1      26=B2      27=B2      28=B2  
    29=B2  
 ...... END OF INITIAL ORBITAL SELECTION ......
 STEP CPU TIME =     0.01 TOTAL CPU TIME =        0.0 (    0.0 MIN)
 TOTAL WALL CLOCK TIME=        0.0 SECONDS, CPU UTILIZATION IS 100.00%

                    ----------------------
                    AO INTEGRAL TECHNOLOGY
                    ----------------------
     S,P,L SHELL ROTATED AXIS INTEGRALS, REPROGRAMMED BY
        KAZUYA ISHIMURA (IMS) AND JOSE SIERRA (SYNSTAR).
     S,P,D,L SHELL ROTATED AXIS INTEGRALS PROGRAMMED BY
        KAZUYA ISHIMURA (INSTITUTE FOR MOLECULAR SCIENCE).
     S,P,D,F,G SHELL TO TOTAL QUARTET ANGULAR MOMENTUM SUM 5,
        ERIC PROGRAM BY GRAHAM FLETCHER (ELORET AND NASA ADVANCED
        SUPERCOMPUTING DIVISION, AMES RESEARCH CENTER).
     S,P,D,F,G,L SHELL GENERAL RYS QUADRATURE PROGRAMMED BY
        MICHEL DUPUIS (PACIFIC NORTHWEST NATIONAL LABORATORY).

          --------------------
          2 ELECTRON INTEGRALS
          --------------------

 THE -PK- OPTION IS OFF, THE INTEGRALS ARE NOT IN SUPERMATRIX FORM.
 STORING   15000 INTEGRALS/RECORD ON DISK, USING 12 BYTES/INTEGRAL.
 TWO ELECTRON INTEGRAL EVALUATION REQUIRES   90501 WORDS OF MEMORY.
 II,JST,KST,LST =  1  1  1  1 NREC =         1 INTLOC =    1
 II,JST,KST,LST =  2  1  1  1 NREC =         1 INTLOC =    2
 II,JST,KST,LST =  3  1  1  1 NREC =         1 INTLOC =    7
 II,JST,KST,LST =  4  1  1  1 NREC =         1 INTLOC =   22
 II,JST,KST,LST =  5  1  1  1 NREC =         1 INTLOC =   56
 II,JST,KST,LST =  6  1  1  1 NREC =         1 INTLOC =  125
 II,JST,KST,LST =  7  1  1  1 NREC =         1 INTLOC =  329
 II,JST,KST,LST =  8  1  1  1 NREC =         1 INTLOC =  519
 II,JST,KST,LST =  9  1  1  1 NREC =         1 INTLOC =  774
 II,JST,KST,LST = 10  1  1  1 NREC =         1 INTLOC = 1132
 II,JST,KST,LST = 11  1  1  1 NREC =         1 INTLOC = 1603
 II,JST,KST,LST = 12  1  1  1 NREC =         1 INTLOC = 3053
 II,JST,KST,LST = 13  1  1  1 NREC =         1 INTLOC = 5424
 II,JST,KST,LST = 14  1  1  1 NREC =         1 INTLOC = 9269
 TOTAL NUMBER OF NONZERO TWO-ELECTRON INTEGRALS =               20912
          2 INTEGRAL RECORDS WERE STORED ON DISK FILE  8.
  ...... END OF TWO-ELECTRON INTEGRALS .....
 STEP CPU TIME =     0.03 TOTAL CPU TIME =        0.1 (    0.0 MIN)
 TOTAL WALL CLOCK TIME=        0.1 SECONDS, CPU UTILIZATION IS  50.00%

          -----------------
          MCSCF CALCULATION
          -----------------

 ----- NUCLEAR ENERGY ----- =         2.8421052632

          -----------------------     ----------------------------
          GUGA DISTINCT ROW TABLE     WRITTEN BY B.R.BROOKS,P.SAXE
          -----------------------     ----------------------------

      GROUP=C1           NPRT=       0
       FORS=       T   INTACT=       F
       FOCI=       F   MXNINT=   50000
       SOCI=       F   MXNEME=   10000
     IEXCIT=       0

      -CORE-    -INTERNAL-  -EXTERNAL-
     NFZC=   0   NDOC=   3   NEXT=   0
     NMCC=   3   NAOS=   0   NFZV=   0
                 NBOS=   0
                 NALP=   0
                 NVAL=   3

 THE MAXIMUM ELECTRON EXCITATION WILL BE   6

 THE FOLLOWING ANALYSIS IS BASED UPON THE $DATA POINT GROUP:

 SYMMETRIES FOR THE   3 CORE,   6 ACTIVE,   0 EXTERNAL MO-S ARE
     CORE= A1    A1    A1  
   ACTIVE= B1    B2    A1    A1    B1    B2  
           DOC   DOC   DOC   VAL   VAL   VAL 

 THE FOLLOWING ANALYSIS IS BASED UPON THE $DRT POINT GROUP:

 SYMMETRIES FOR THE   3 CORE,   6 ACTIVE,   0 EXTERNAL MO-S ARE
     CORE= A     A     A   
   ACTIVE= A     A     A     A     A     A   
           DOC   DOC   DOC   VAL   VAL   VAL 

 MOLECULAR CHARGE          =    0
 NUMBER OF ALPHA ELECTRONS =    6
 NUMBER OF  BETA ELECTRONS =    6

 THE ELECTRONIC STATE IS  1-A   

 THE DISTINCT ROW TABLE HAS        30 ROWS.
  THE WAVEFUNCTION CONTAINS       175 WALKS (CSF-S).

 TOTAL NUMBER OF INTEGRALS =        292
 NUMBER OF INTEGRALS/GROUP =        292
 NUMBER OF INTEGRAL GROUPS =          1
 MAXIMUM RECORD SIZES ARE     500 FOR UNIT 11     175 FOR UNIT 12
                            30001 FOR UNIT 15   30001 FOR UNIT 16
 ...... END OF -DRT- GENERATION ...... 
 STEP CPU TIME =     0.00 TOTAL CPU TIME =        0.1 (    0.0 MIN)
 TOTAL WALL CLOCK TIME=        0.1 SECONDS, CPU UTILIZATION IS  46.15%
 OPENING FILE DAFL30 WITH      81 LOGICAL RECORDS OF     841 WORDS
 WITH A MAXIMUM OF          81 PHYSICAL RECORDS OF    2048 WORDS

          ------------------------------
          CASSCF INTEGRAL TRANSFORMATION
          ------------------------------
 AO INTEGRALS WILL BE READ IN FROM DISK...

 NUMBER OF CORE MOLECULAR ORBITALS     =     3
 NUMBER OF OCCUPIED MOLECULAR ORBITALS =     9
 TOTAL NUMBER OF MOLECULAR ORBITALS    =    29
 TOTAL NUMBER OF ATOMIC ORBITALS       =    29

 ----- CHOOSING THREE STEPS TRANSFORMATION -----
 NUMBER OF WORDS USED      =     147001
 NUMBER OF WORDS AVAILABLE =    1000000
 NUMBER OF PASSES          =          1

 ----- NUCLEAR REPULSION ENERGY =      2.84210526
 ----- FROZEN CORE ENERGY       =    -96.96522601

 ... SYMMETRY ...           CPU =    0.00
 ... (PQ|RS) -> (PQ|KL) ... CPU =    0.01
 ... (PQ|KL) -> (IJ|KL) ... CPU =    0.00

 NUMBER OF (PQ|KL) INTEGRALS WRITTEN       2423
 NUMBER OF (IJ|KL) INTEGRALS WRITTEN         75
 ..... END OF CAS INTEGRAL TRANSFORMATION .....
 STEP CPU TIME =     0.01 TOTAL CPU TIME =        0.1 (    0.0 MIN)
 TOTAL WALL CLOCK TIME=        0.2 SECONDS, CPU UTILIZATION IS  46.67%

          ------------------------
          GUGA-CI INTEGRAL SORTING
          ------------------------

     80097 WORDS NEEDED TO SORT            292 GUGA INTEGRALS IN MEMORY
   1000000 WORDS ARE AVAILABLE
 CHOOSING IN-MEMORY SORTING...
 IN CORE ALGORITHM SORTED             21 NON-ZERO 1E- INTEGRALS
 IN CORE ALGORITHM SORTED             75 NON-ZERO 2E- INTEGRALS
 ...... END OF INTEGRAL SORTING ...... 
 STEP CPU TIME =     0.00 TOTAL CPU TIME =        0.1 (    0.0 MIN)
 TOTAL WALL CLOCK TIME=        0.2 SECONDS, CPU UTILIZATION IS  46.67%

 -------------------------     ---------------------------------------
 ENERGY MATRIX CALCULATION     WRITTEN BY B.R.BROOKS,W.D.LAIDIG,P.SAXE
 -------------------------     ---------------------------------------

 COMPUTING THE HAMILTONIAN FOR THE       175 CSF-S...

       11101 IS THE TOTAL NUMBER OF GENERATED LOOPS
       11101 WERE CREATED BY THE LOOP-DRIVEN ALGORITHM
           0 WERE CREATED IMPLICITLY

        3257 IS THE TOTAL NUMBER OF PROCESSED LOOPS
         684     DIAGONAL LOOPS ARE STORED ON WORK15 IN     1 BUFFERS OF  10000 ELEMENTS.
        2573 OFF DIAGONAL LOOPS ARE STORED ON WORK16 IN     1 BUFFERS OF  10000 ELEMENTS.
 ...... END OF ENERGY MATRIX CALCULATION ...... 
 STEP CPU TIME =     0.00 TOTAL CPU TIME =        0.1 (    0.0 MIN)
 TOTAL WALL CLOCK TIME=        0.2 SECONDS, CPU UTILIZATION IS  38.89%

          -----------------------------------------
          DAVIDSON METHOD CI-MATRIX DIAGONALIZATION
                   WRITTEN BY STEVE ELBERT
          -----------------------------------------
 NUMBER OF STATES REQUESTED =     4
 MAX. NUMB. OF EXPAN. VEC   =    30
 MAX. NUMB. IMPROVED STATES =     4
 MAX. NUMB. OF ITERATIONS   =    50
 CONVERGENCE CRITERION      =    1.0E-06

 CHOOSING TO SOLVE SECULAR EQUATION IN MEMORY
 NUMBER OF WORDS AVAILABLE =    1000000
 NUMBER OF WORDS USED      =      60220
 ENERGY MATRIX BUFFER SIZE =      10000

 ITER. NO.JUST IMPROVED    ENERGY AND STATE
   0  50(MAX.TOL.STATE)   -106.532762318  1   -105.847785550  2   -105.847785492  3   -105.506640992  4
   1   9  0.96539344  8   -106.743020613  1   -106.462722466  2   -105.945094242  3   -105.931654190  4
   2   8  0.72191804  3   -106.835148202  1   -106.793879734  2   -106.080089302  3   -105.981096126  4
   3   7  0.32907651  3   -106.847081526  1   -106.821801250  2   -106.153455250  3   -105.986752272  4
   4   6  0.11222006  3   -106.848303696  1   -106.824909945  2   -106.173522000  3   -105.987260054  4
   5   5  0.39006543  4   -106.848356167  1   -106.825120912  2   -106.177349308  3   -106.004972583  4
   6   4  0.64623734  4   -106.848359501  1   -106.825127586  2   -106.177974720  3   -106.093957580  4
   7   4  0.73056981  3   -106.848359737  1   -106.825127736  2   -106.223963771  3   -106.178175318  4
   8   4  0.41229213  3   -106.848359777  1   -106.825127753  2   -106.618333724  3   -106.178552609  4
   9   4  0.31691965  3   -106.848359782  1   -106.825127756  2   -106.821228810  3   -106.178765126  4
  10   4  0.07377808  2   -106.848359783  1   -106.834180936  2   -106.825127757  3   -106.178844585  4
  11   4  0.01482165  2   -106.848359783  1   -106.834693376  2   -106.825127757  3   -106.178909825  4
  12   4  0.00955005  4   -106.848359783  1   -106.834760434  2   -106.825127757  3   -106.178976379  4
  13   4  0.00448896  4   -106.848359783  1   -106.834766025  2   -106.825127757  3   -106.178998582  4
  14   2  0.00112949  4   -106.848359783  1   -106.834766448  2   -106.825127757  3   -106.179000685  4
  15   2  0.00049009  4   -106.848359783  1   -106.834766515  2   -106.825127757  3   -106.179000943  4
  16   2  0.00052865  4   -106.848359783  1   -106.834766523  2   -106.825127757  3   -106.179001145  4
  17   2  0.00045685  4   -106.848359783  1   -106.834766525  2   -106.825127757  3   -106.179001419  4
  18   2  0.00127031  4   -106.848359783  1   -106.834766525  2   -106.825127757  3   -106.179001572  4
  19   2  0.33462071  4   -106.848359783  1   -106.834766525  2   -106.825127757  3   -106.322737649  4
  20   2  0.66068777  4   -106.848359783  1   -106.834766525  2   -106.825127757  3   -106.661232375  4
  21   1  0.26683874  4   -106.848359783  1   -106.834766525  2   -106.825127757  3   -106.806949677  4
  22   1  0.11949021  3   -106.848359783  1   -106.834766525  2   -106.828709411  3   -106.825127757  4
  23   1  0.04927010  3   -106.848359783  1   -106.834766525  2   -106.833542297  3   -106.825127757  4
  24   1  0.02188252  3   -106.848359783  1   -106.834766525  2   -106.834645116  3   -106.825127757  4
  25   1  0.00639266  3   -106.848359783  1   -106.834766525  2   -106.834746888  3   -106.825127757  4
  26   1  0.00249226  3   -106.848359783  1   -106.834766525  2   -106.834763925  3   -106.825127757  4
  27   1  0.00092014  3   -106.848359783  1   -106.834766525  2   -106.834766117  3   -106.825127757  4
  28   1  0.00039184  3   -106.848359783  1   -106.834766525  2   -106.834766499  3   -106.825127757  4
  29   1  0.00008820  3   -106.848359783  1   -106.834766525  2   -106.834766523  3   -106.825127757  4
  30   1  0.00002273  3   -106.848359783  1   -106.834766525  2   -106.834766525  3   -106.825127757  4
  31   1  0.00000964  3   -106.848359783  1   -106.834766525  2   -106.834766525  3   -106.825127757  4
  32   1  0.00000303  3   -106.848359783  1   -106.834766525  2   -106.834766525  3   -106.825127757  4
  33   1  0.00000092  3   -106.848359783  1   -106.834766525  2   -106.834766525  3   -106.825127757  4
 SOLUTION FOUND WITH INDIRECT METHOD

 STATE #    1  ENERGY =    -106.848359783

      CSF      COEF    OCCUPANCY (IGNORING CORE)
      ---      ----    --------- --------- -----
        1    0.723840  222000
        3   -0.205270  212001
       51    0.419547  221100
       54    0.090069  211101
      126   -0.452433  220200
      132   -0.170241  210201
      147    0.068788  120210

 STATE #    2  ENERGY =    -106.834766525

      CSF      COEF    OCCUPANCY (IGNORING CORE)
      ---      ----    --------- --------- -----
       53    0.578721  122100
       56   -0.149974  112101
       61   -0.102244  112101
       91    0.060288  022110
      128    0.752272  121200
      134   -0.193005  111201
      136    0.132092  111201
      151   -0.077309  021210

 STATE #    3  ENERGY =    -106.834766525

      CSF      COEF    OCCUPANCY (IGNORING CORE)
      ---      ----    --------- --------- -----
       52    0.587775  212100
       60   -0.149425  202101
      127    0.763757  211200
      135    0.192943  201201

 STATE #    4  ENERGY =    -106.825127757

      CSF      COEF    OCCUPANCY (IGNORING CORE)
      ---      ----    --------- --------- -----
        1    0.168342  222000
       13   -0.052020  122010
       51    0.573863  221100
       72    0.066545  121110
      126    0.770370  220200
      132    0.118671  210201
      154    0.058638  110211
      158    0.050326  110211
 ...... END OF CI-MATRIX DIAGONALIZATION ......
 STEP CPU TIME =     0.01 TOTAL CPU TIME =        0.1 (    0.0 MIN)
 TOTAL WALL CLOCK TIME=        0.2 SECONDS, CPU UTILIZATION IS  33.33%

          -------------------------------------
          2-PARTICLE DENSITY MATRIX CALCULATION
          -------------------------------------
 2 BODY DENSITY IS AN AVERAGE OF  2 STATE(S).
   STATE    WEIGHT          ENERGY
     1    0.500000     -106.8483597829
     4    0.500000     -106.8251277566
        11101 -DM2- LOOPS WERE GENERATED
        11101 WERE CREATED BY THE LOOP-DRIVEN ALGORITHM
            0 WERE CREATED IMPLICITLY
          1 RECORDS OF LENGTH 50000 WRITTEN TO FILE 15
 ...... END OF 2-PARTICLE DENSITY MATRIX CALCULATION ......
 STEP CPU TIME =     0.00 TOTAL CPU TIME =        0.1 (    0.0 MIN)
 TOTAL WALL CLOCK TIME=        0.3 SECONDS, CPU UTILIZATION IS  30.77%

          ----------------------------------
          2-PARTICLE DENSITY MATRIX LABELING
          ----------------------------------
      96487 WORDS NEEDED TO LABEL DM2 MATRIX
          1 RECORDS OF LENGTH 50000  READ FROM FILE 15
          1 RECORDS OF LENGTH 15000 WRITTEN TO FILE 16
 ...... END OF 2-PARTICLE DENSITY MATRIX LABELING ......
 STEP CPU TIME =     0.00 TOTAL CPU TIME =        0.1 (    0.0 MIN)
 TOTAL WALL CLOCK TIME=        0.3 SECONDS, CPU UTILIZATION IS  28.57%

          --------------
          -DM2- ORDERING
          --------------
      30253 WORDS NEEDED (   1000000 AVAILABLE) TO ORDER DM2 IN MEMORY
 CHOOSING IN MEMORY ORDERING...
                               1 RECORDS OF LENGTH 15000  READ FROM FILE 16
         88 DM2 VALUES IN      1 RECORDS OF LENGTH 15000 WRITTEN TO FILE 15
 ...... END OF -DM2- ORDERING ...... 
 STEP CPU TIME =     0.00 TOTAL CPU TIME =        0.1 (    0.0 MIN)
 TOTAL WALL CLOCK TIME=        0.3 SECONDS, CPU UTILIZATION IS  26.67%

          --------------------------------------
          APPROXIMATE SECOND-ORDER MCSCF PROGRAM
          --------------------------------------
          PROGRAM WRITTEN BY G.CHABAN, A.MARQUEZ, AND M.DUPUIS

  NUMBER OF WORDS NEEDED     =      45256
  NUMBER AVAILABLE           =    1000000

 ----- GAMMA(IJKL)*(PQ|KL) PRODUCTS ----- CPU TIME =      0.000
 ----- ORBITAL SYMMETRY             ----- CPU TIME =      0.000
 ----- FOCK OPERATORS CONSTRUCTION  ----- CPU TIME =      0.000
     MICIT =   1 ASYMM =    0.000008 ROTMAX =    0.000003
 ----- EFFECTIVE FOCK + ROTATE ORBS ----- CPU TIME =      0.000
     MICIT =   2 ASYMM =    0.000004 ROTMAX =    0.000000
     MICIT =   3 ASYMM =    0.000004 ROTMAX =    0.000001
     MICIT =   4 ASYMM =    0.000003 ROTMAX =    0.000001
     MICIT =   5 ASYMM =    0.000003 ROTMAX =    0.000001
 ..... DONE WITH CASSCF ORBITAL UPDATE .....
 STEP CPU TIME =     0.01 TOTAL CPU TIME =        0.1 (    0.0 MIN)
 TOTAL WALL CLOCK TIME=        0.3 SECONDS, CPU UTILIZATION IS  29.03%

 ITER     TOTAL ENERGY      DEL(E)  LAGRANGIAN ASYMMETRY   SQCDF  MICIT   DAMP
   1     -106.836743770 -0.836743770  0.000008   22    4 2.657E-06  5   0.0000
       ----------START APPROXIMATE SECOND ORDER MCSCF----------
   2     -106.836743770 -0.000000000  0.000004   22    4 4.517E-10  1   0.0000
   3     -106.836743770 -0.000000000  0.000004   10    7 1.718E-09  1   0.0000
   4     -106.836743770  0.000000000  0.000028   10    7 1.434E-10  1   0.0000
   5     -106.836743770 -0.000000000  0.000011   12    7 4.571E-10  1   0.0000
   6     -106.836743770 -0.000000000  0.000003   10    3 2.240E-11  1   0.0000
   7     -106.836743770 -0.000000000  0.000005   12    3 1.806E-10  1   0.0000
   8     -106.836743770 -0.000000000  0.000005   10    7 4.338E-11  1   0.0000
   9     -106.836743770 -0.000000000  0.000002   12    3 3.065E-12  1   0.0000

          ---------------
          SQCDF CONVERGED (BUT THE LAGRANGIAN MATRIX IS NOT ENTIRELY SYMMETRIC)
          ---------------

 FINAL MCSCF ENERGY IS     -106.8367437701 AFTER   9 ITERATIONS

 -MCCI- BASED ON OPTIMIZED ORBITALS
 ----------------------------------

 PLEASE NOTE: IF THE ACTIVE ORBITALS ARE CANONICALIZED BELOW,
 THE FOLLOWING CI EXPANSION COEFFICIENTS AND THE DENSITY DO NOT
 CORRESPOND TO THE PRINTED ORBITALS.  THE PRINTED EXPANSIONS MATCH
 THE ORBITALS USED DURING THE LAST ITERATION.  IF YOU WISH TO SEE
 CI EXPANSIONS BASED ON THE CANONICAL (OR NATURAL) ORBITALS, YOU
 MUST RUN A CI CALCULATION WITH THAT ORBITAL CHOICE READ IN $VEC.

 STATE #    1  ENERGY =    -106.848360168

      CSF      COEF    OCCUPANCY (IGNORING CORE)
      ---      ----    --------- --------- -----
        1    0.723837  222000
        3   -0.205274  212001
       51    0.419538  221100
       54    0.090070  211101
      126   -0.452442  220200
      132   -0.170243  210201
      147    0.068787  120210

 STATE #    2  ENERGY =    -106.834766076

      CSF      COEF    OCCUPANCY (IGNORING CORE)
      ---      ----    --------- --------- -----
       52    0.587775  212100
       60   -0.149426  202101
      127    0.763757  211200
      135    0.192945  201201

 STATE #    3  ENERGY =    -106.834766061

      CSF      COEF    OCCUPANCY (IGNORING CORE)
      ---      ----    --------- --------- -----
       53    0.578720  122100
       56   -0.149977  112101
       61   -0.102245  112101
       91    0.060289  022110
      128    0.752271  121200
      134   -0.193009  111201
      136    0.132093  111201
      151   -0.077310  021210

 STATE #    4  ENERGY =    -106.825127372

      CSF      COEF    OCCUPANCY (IGNORING CORE)
      ---      ----    --------- --------- -----
        1    0.168353  222000
       13   -0.052015  122010
       51    0.573869  221100
       72    0.066538  121110
      126    0.770364  220200
      132    0.118677  210201
      154    0.058636  110211
      158    0.050324  110211

 DENSITY MATRIX OVER ACTIVE MO-S

             1           2           3           4           5

    1    1.9750628
    2    0.0000000   1.9370553
    3    0.0000000   0.0000000   0.8723979
    4   -0.0000000  -0.0000000   0.4834069   1.1274894
    5   -0.0319801  -0.0000000   0.0000000   0.0000000   0.0249935
    6   -0.0000000   0.2714690   0.0000000   0.0000000  -0.0000000

             6

    6    0.0630010

 FORMING THE "STANDARD FOCK OPERATOR" USING INTEGRALS FROM DISK...
     3 FILLED,    6 ACTIVE, AND   20 VIRTUAL ORBITALS  WILL BE CANONICALIZED

          ----------------------
          MCSCF NATURAL ORBITALS
          ----------------------

                      1          2          3          4          5
                  -26.1871    -2.5816    -1.3892     1.9756     1.9756
                     A1         A1         A1         B1         B2  
    1  LI 1  S    0.000001   0.517075  -0.000045   0.000000   0.000000
    2  LI 1  S   -0.000001   0.575198   0.000578   0.000000   0.000000
    3  LI 1  S    0.000007   0.001475  -0.005023   0.000000   0.000000
    4  LI 1  S   -0.000014  -0.000069   0.006729   0.000000   0.000000
    5  LI 1  X    0.000000   0.000000  -0.000000   0.000168   0.000000
    6  LI 1  Y    0.000000   0.000000  -0.000000   0.000000   0.000169
    7  LI 1  Z    0.000007  -0.000494  -0.003409   0.000000   0.000000
    8  LI 1  X    0.000000   0.000000  -0.000000   0.001771   0.000000
    9  LI 1  Y    0.000000   0.000000  -0.000000   0.000000   0.001771
   10  LI 1  Z   -0.000015   0.000244   0.008221   0.000000   0.000000
   11  F  2  S    0.579963   0.000001  -0.147640   0.000000   0.000000
   12  F  2  S    0.462528   0.000002  -0.204679   0.000000   0.000000
   13  F  2  S   -0.001060   0.000006   0.599023   0.000000   0.000000
   14  F  2  S    0.000771  -0.000045   0.541740   0.000000   0.000000
   15  F  2  X    0.000000   0.000000  -0.000000   0.741007   0.000000
   16  F  2  Y    0.000000   0.000000  -0.000000   0.000000   0.741007
   17  F  2  Z   -0.000013  -0.000007   0.000967   0.000000   0.000000
   18  F  2  X    0.000000   0.000000  -0.000000   0.347776   0.000000
   19  F  2  Y    0.000000   0.000000  -0.000000   0.000000   0.347776
   20  F  2  Z    0.000016   0.000002  -0.001785   0.000000   0.000000
   21  F  2  X    0.000000   0.000000  -0.000000   0.096904   0.000000
   22  F  2  Y    0.000000   0.000000  -0.000000   0.000000   0.096904
   23  F  2  Z   -0.000009   0.000013   0.003274   0.000000   0.000000
   24  F  2 XX    0.000659   0.000008  -0.008310   0.000000   0.000000
   25  F  2 YY    0.000659   0.000008  -0.008310   0.000000   0.000000
   26  F  2 ZZ    0.000458   0.000008  -0.008918   0.000000   0.000000
   27  F  2 XY    0.000000   0.000000  -0.000000   0.000000   0.000000
   28  F  2 XZ    0.000000   0.000000  -0.000000  -0.000560   0.000000
   29  F  2 YZ    0.000000   0.000000  -0.000000   0.000000  -0.000560

                      6          7          8          9
                    1.4999     0.5000     0.0245     0.0245
                     A1         A1         B2         B1  
    1  LI 1  S   -0.000328  -0.085191   0.000000   0.000000
    2  LI 1  S   -0.000992  -0.195217   0.000000   0.000000
    3  LI 1  S    0.004526   0.518509   0.000000   0.000000
    4  LI 1  S   -0.000453   0.569266   0.000000   0.000000
    5  LI 1  X    0.000000   0.000000   0.000000   0.000410
    6  LI 1  Y    0.000000   0.000000   0.000407   0.000000
    7  LI 1  Z    0.000330   0.003335   0.000000   0.000000
    8  LI 1  X    0.000000   0.000000   0.000000  -0.009947
    9  LI 1  Y    0.000000   0.000000  -0.009944   0.000000
   10  LI 1  Z   -0.003647  -0.003229   0.000000   0.000000
   11  F  2  S   -0.000232   0.001406   0.000000   0.000000
   12  F  2  S   -0.000244   0.002072   0.000000   0.000000
   13  F  2  S    0.002707  -0.005134   0.000000   0.000000
   14  F  2  S   -0.003799  -0.014525   0.000000   0.000000
   15  F  2  X    0.000000   0.000000   0.000000   0.812198
   16  F  2  Y    0.000000   0.000000   0.812198   0.000000
   17  F  2  Z    0.752733   0.009823   0.000000   0.000000
   18  F  2  X    0.000000   0.000000   0.000000  -0.788756
   19  F  2  Y    0.000000   0.000000  -0.788756   0.000000
   20  F  2  Z    0.353980   0.006420   0.000000   0.000000
   21  F  2  X    0.000000   0.000000   0.000000  -0.323989
   22  F  2  Y    0.000000   0.000000  -0.323989   0.000000
   23  F  2  Z    0.059079   0.007164   0.000000   0.000000
   24  F  2 XX    0.001062   0.000567   0.000000   0.000000
   25  F  2 YY    0.001062   0.000567   0.000000   0.000000
   26  F  2 ZZ   -0.000329   0.000925   0.000000   0.000000
   27  F  2 XY    0.000000   0.000000   0.000000   0.000000
   28  F  2 XZ    0.000000   0.000000   0.000000   0.003175
   29  F  2 YZ    0.000000   0.000000   0.003175   0.000000

 LZ VALUE ANALYSIS FOR THE MOS
 ----------------------------------------
 MO     1 (    1) HAS LZ(WEIGHT)= 0.00(100.0%) 
 MO     2 (    2) HAS LZ(WEIGHT)= 0.00(100.0%) 
 MO     3 (    3) HAS LZ(WEIGHT)= 0.00(100.0%) 
 MO     4 (    4) HAS LZ(WEIGHT)=-1.00( 50.0%)  1.00( 50.0%) 
 MO     5 (    4) HAS LZ(WEIGHT)=-1.00( 50.0%)  1.00( 50.0%) 
 MO     6 (    5) HAS LZ(WEIGHT)= 0.00(100.0%) 
 MO     7 (    6) HAS LZ(WEIGHT)= 0.00(100.0%) 
 MO     8 (    7) HAS LZ(WEIGHT)=-1.00( 50.0%)  1.00( 50.0%) 
 MO     9 (    7) HAS LZ(WEIGHT)=-1.00( 50.0%)  1.00( 50.0%) 
 MO    10 (    8) HAS LZ(WEIGHT)=-1.00( 50.0%)  1.00( 50.0%) 
 MO    11 (    8) HAS LZ(WEIGHT)=-1.00( 50.0%)  1.00( 50.0%) 
 MO    12 (    9) HAS LZ(WEIGHT)= 0.00(100.0%) 
 MO    13 (   10) HAS LZ(WEIGHT)= 0.00(100.0%) 
 MO    14 (   11) HAS LZ(WEIGHT)=-1.00( 50.0%)  1.00( 50.0%) 
 MO    15 (   11) HAS LZ(WEIGHT)=-1.00( 50.0%)  1.00( 50.0%) 
 MO    16 (   12) HAS LZ(WEIGHT)= 0.00(100.0%) 
 MO    17 (   13) HAS LZ(WEIGHT)= 0.00(100.0%) 
 MO    18 (   14) HAS LZ(WEIGHT)=-1.00( 50.0%)  1.00( 50.0%) 
 MO    19 (   14) HAS LZ(WEIGHT)=-1.00( 50.0%)  1.00( 50.0%) 
 MO    20 (   15) HAS LZ(WEIGHT)= 0.00(100.0%) 
 MO    21 (   16) HAS LZ(WEIGHT)= 0.00(100.0%) 
 MO    22 (   17) HAS LZ(WEIGHT)= 0.00(100.0%) 
 MO    23 (   18) HAS LZ(WEIGHT)=-1.00( 50.0%)  1.00( 50.0%) 
 MO    24 (   18) HAS LZ(WEIGHT)=-1.00( 50.0%)  1.00( 50.0%) 
 MO    25 (   19) HAS LZ(WEIGHT)=-2.00( 50.0%)  2.00( 50.0%) 
 MO    26 (   19) HAS LZ(WEIGHT)=-2.00( 50.0%)  2.00( 50.0%) 
 MO    27 (   20) HAS LZ(WEIGHT)= 0.00(100.0%) 
 MO    28 (   21) HAS LZ(WEIGHT)= 0.00(100.0%) 
 MO    29 (   22) HAS LZ(WEIGHT)= 0.00(100.0%) 

          ------------------------
          MCSCF OPTIMIZED ORBITALS
          ------------------------

                      1          2          3          4          5
                  -26.1871    -2.5816    -1.3892    -0.4949    -0.4949
                     A1         A1         A1         B1         B2  
    1  LI 1  S    0.000001   0.517075  -0.000045  -0.000000  -0.000000
    2  LI 1  S   -0.000001   0.575198   0.000578  -0.000000  -0.000000
    3  LI 1  S    0.000007   0.001475  -0.005023  -0.000000  -0.000000
    4  LI 1  S   -0.000014  -0.000069   0.006729  -0.000000  -0.000000
    5  LI 1  X    0.000000   0.000000  -0.000000   0.000173  -0.000000
    6  LI 1  Y    0.000000   0.000000  -0.000000  -0.000000   0.000174
    7  LI 1  Z    0.000007  -0.000494  -0.003409  -0.000000  -0.000000
    8  LI 1  X    0.000000   0.000000  -0.000000   0.001646  -0.000000
    9  LI 1  Y    0.000000   0.000000  -0.000000  -0.000000   0.001645
   10  LI 1  Z   -0.000015   0.000244   0.008221  -0.000000  -0.000000
   11  F  2  S    0.579963   0.000001  -0.147640  -0.000000  -0.000000
   12  F  2  S    0.462528   0.000002  -0.204679  -0.000000  -0.000000
   13  F  2  S   -0.001060   0.000006   0.599023  -0.000000  -0.000000
   14  F  2  S    0.000771  -0.000045   0.541740  -0.000000  -0.000000
   15  F  2  X    0.000000   0.000000  -0.000000   0.751183  -0.000000
   16  F  2  Y    0.000000   0.000000  -0.000000  -0.000000   0.751183
   17  F  2  Z   -0.000013  -0.000007   0.000967  -0.000000  -0.000000
   18  F  2  X    0.000000   0.000000  -0.000000   0.337809  -0.000000
   19  F  2  Y    0.000000   0.000000  -0.000000  -0.000000   0.337809
   20  F  2  Z    0.000016   0.000002  -0.001785  -0.000000  -0.000000
   21  F  2  X    0.000000   0.000000  -0.000000   0.092813  -0.000000
   22  F  2  Y    0.000000   0.000000  -0.000000  -0.000000   0.092813
   23  F  2  Z   -0.000009   0.000013   0.003274  -0.000000  -0.000000
   24  F  2 XX    0.000659   0.000008  -0.008310  -0.000000  -0.000000
   25  F  2 YY    0.000659   0.000008  -0.008310  -0.000000  -0.000000
   26  F  2 ZZ    0.000458   0.000008  -0.008918  -0.000000  -0.000000
   27  F  2 XY    0.000000   0.000000  -0.000000  -0.000000  -0.000000
   28  F  2 XZ    0.000000   0.000000  -0.000000  -0.000520  -0.000000
   29  F  2 YZ    0.000000   0.000000  -0.000000  -0.000000  -0.000520

                      6          7          8          9         10
                   -0.3463    -0.0854     0.9195     0.9195     0.0081
                     A1         A1         B1         B2         B1  
    1  LI 1  S    0.000601  -0.085189   0.000000   0.000000   0.000000
    2  LI 1  S    0.001136  -0.195216   0.000000   0.000000   0.000000
    3  LI 1  S   -0.001127   0.518528   0.000000   0.000000   0.000000
    4  LI 1  S   -0.006658   0.569227   0.000000   0.000000   0.000000
    5  LI 1  X    0.000000  -0.000000   0.000408   0.000000   0.314298
    6  LI 1  Y    0.000000  -0.000000   0.000000   0.000405   0.000000
    7  LI 1  Z    0.000294   0.003338   0.000000   0.000000   0.000000
    8  LI 1  X    0.000000  -0.000000  -0.009968   0.000000   0.777694
    9  LI 1  Y    0.000000  -0.000000   0.000000  -0.009966   0.000000
   10  LI 1  Z   -0.003612  -0.003269   0.000000   0.000000   0.000000
   11  F  2  S   -0.000247   0.001403   0.000000   0.000000   0.000000
   12  F  2  S   -0.000266   0.002069   0.000000   0.000000   0.000000
   13  F  2  S    0.002763  -0.005104   0.000000   0.000000   0.000000
   14  F  2  S   -0.003641  -0.014565   0.000000   0.000000   0.000000
   15  F  2  X    0.000000  -0.000000   0.802795   0.000000   0.009999
   16  F  2  Y    0.000000  -0.000000   0.000000   0.802795   0.000000
   17  F  2  Z    0.752581   0.018027   0.000000   0.000000   0.000000
   18  F  2  X    0.000000  -0.000000  -0.793076   0.000000   0.004803
   19  F  2  Y    0.000000  -0.000000   0.000000  -0.793076   0.000000
   20  F  2  Z    0.353888   0.010279   0.000000   0.000000   0.000000
   21  F  2  X    0.000000  -0.000000  -0.325184   0.000000  -0.083468
   22  F  2  Y    0.000000  -0.000000   0.000000  -0.325184   0.000000
   23  F  2  Z    0.058997   0.007807   0.000000   0.000000   0.000000
   24  F  2 XX    0.001056   0.000578   0.000000   0.000000   0.000000
   25  F  2 YY    0.001056   0.000578   0.000000   0.000000   0.000000
   26  F  2 ZZ   -0.000339   0.000921   0.000000   0.000000   0.000000
   27  F  2 XY    0.000000  -0.000000   0.000000   0.000000   0.000000
   28  F  2 XZ    0.000000  -0.000000   0.003182   0.000000  -0.000216
   29  F  2 YZ    0.000000  -0.000000   0.000000   0.003182   0.000000

                     11         12         13         14         15
                    0.0081     0.0167     0.1064     0.1180     0.1180
                     B2         A1         A1         B2         B1  
    1  LI 1  S    0.000000  -0.010427  -0.071668  -0.000000  -0.000000
    2  LI 1  S    0.000000  -0.030473  -0.209574  -0.000000  -0.000000
    3  LI 1  S    0.000000   0.219443   1.582945  -0.000000  -0.000000
    4  LI 1  S    0.000000  -0.192085  -1.478450  -0.000000  -0.000000
    5  LI 1  X    0.000000   0.000000  -0.000000  -0.000000   1.249559
    6  LI 1  Y    0.314297   0.000000  -0.000000   1.249559  -0.000000
    7  LI 1  Z    0.000000   0.350740  -0.728104  -0.000000  -0.000000
    8  LI 1  X    0.000000   0.000000  -0.000000  -0.000000  -1.039043
    9  LI 1  Y    0.777695   0.000000  -0.000000  -1.039043  -0.000000
   10  LI 1  Z    0.000000   0.754492   0.520944  -0.000000  -0.000000
   11  F  2  S    0.000000   0.005092  -0.000108  -0.000000  -0.000000
   12  F  2  S    0.000000   0.008006   0.000139  -0.000000  -0.000000
   13  F  2  S    0.000000  -0.014791   0.003603  -0.000000  -0.000000
   14  F  2  S    0.000000  -0.075795  -0.015751  -0.000000  -0.000000
   15  F  2  X    0.000000   0.000000  -0.000000  -0.000000  -0.006149
   16  F  2  Y    0.009999   0.000000  -0.000000  -0.006148  -0.000000
   17  F  2  Z    0.000000   0.024166  -0.015454  -0.000000  -0.000000
   18  F  2  X    0.000000   0.000000  -0.000000  -0.000000  -0.005283
   19  F  2  Y    0.004803   0.000000  -0.000000  -0.005283  -0.000000
   20  F  2  Z    0.000000   0.002376  -0.013835  -0.000000  -0.000000
   21  F  2  X    0.000000   0.000000  -0.000000  -0.000000   0.074364
   22  F  2  Y   -0.083469   0.000000  -0.000000   0.074361  -0.000000
   23  F  2  Z    0.000000   0.067572   0.020318  -0.000000  -0.000000
   24  F  2 XX    0.000000   0.005253   0.001994  -0.000000  -0.000000
   25  F  2 YY    0.000000   0.005253   0.001994  -0.000000  -0.000000
   26  F  2 ZZ    0.000000   0.005533   0.001497  -0.000000  -0.000000
   27  F  2 XY    0.000000   0.000000  -0.000000  -0.000000  -0.000000
   28  F  2 XZ    0.000000   0.000000  -0.000000  -0.000000   0.000219
   29  F  2 YZ   -0.000216   0.000000  -0.000000   0.000219  -0.000000

                     16         17         18         19         20
                    0.1338     0.3073     0.7831     0.7831     1.3970
                     A1         A1         B2         B1         A1  
    1  LI 1  S   -0.049178  -0.001663  -0.000000  -0.000000  -0.008744
    2  LI 1  S   -0.142233   0.003850  -0.000000  -0.000000  -0.003008
    3  LI 1  S    1.112206  -0.162158  -0.000000  -0.000000   0.066046
    4  LI 1  S   -1.073868   0.318438  -0.000000  -0.000000  -0.058487
    5  LI 1  X   -0.000000   0.000000  -0.000000   0.039975   0.000000
    6  LI 1  Y   -0.000000   0.000000   0.039977  -0.000000   0.000000
    7  LI 1  Z    0.998553   0.128219  -0.000000  -0.000000   0.088717
    8  LI 1  X   -0.000000   0.000000  -0.000000  -0.095806   0.000000
    9  LI 1  Y   -0.000000   0.000000  -0.095808  -0.000000   0.000000
   10  LI 1  Z   -0.973988   0.152403  -0.000000  -0.000000  -0.113562
   11  F  2  S   -0.008263   0.002237  -0.000000  -0.000000   0.096240
   12  F  2  S   -0.012663   0.003143  -0.000000  -0.000000   0.101471
   13  F  2  S    0.027436  -0.011012  -0.000000  -0.000000  -1.115729
   14  F  2  S    0.112743  -0.015330  -0.000000  -0.000000   1.666746
   15  F  2  X   -0.000000   0.000000  -0.000000   0.443923   0.000000
   16  F  2  Y   -0.000000   0.000000   0.443923  -0.000000   0.000000
   17  F  2  Z   -0.011140  -0.176459  -0.000000  -0.000000   0.431876
   18  F  2  X   -0.000000   0.000000  -0.000000  -1.263463   0.000000
   19  F  2  Y   -0.000000   0.000000  -1.263463  -0.000000   0.000000
   20  F  2  Z    0.033217  -0.431650  -0.000000  -0.000000  -0.673209
   21  F  2  X   -0.000000   0.000000  -0.000000   1.311016   0.000000
   22  F  2  Y   -0.000000   0.000000   1.311016  -0.000000   0.000000
   23  F  2  Z   -0.191043   1.275649  -0.000000  -0.000000   0.261387
   24  F  2 XX   -0.006633  -0.000272  -0.000000  -0.000000  -0.271511
   25  F  2 YY   -0.006633  -0.000272  -0.000000  -0.000000  -0.271511
   26  F  2 ZZ   -0.006497   0.000209  -0.000000  -0.000000  -0.272727
   27  F  2 XY   -0.000000   0.000000  -0.000000  -0.000000   0.000000
   28  F  2 XZ   -0.000000   0.000000  -0.000000   0.000882   0.000000
   29  F  2 YZ   -0.000000   0.000000   0.000882  -0.000000   0.000000

                     21         22         23         24         25
                    1.4363     3.5856     3.5882     3.5882     3.5959
                     A1         A1         B1         B2         A2  
    1  LI 1  S   -0.002526  -0.002227  -0.000000  -0.000000   0.000000
    2  LI 1  S   -0.002698   0.002060  -0.000000  -0.000000   0.000000
    3  LI 1  S    0.089751   0.002694  -0.000000  -0.000000   0.000000
    4  LI 1  S   -0.152622  -0.004550  -0.000000  -0.000000   0.000000
    5  LI 1  X   -0.000000  -0.000000  -0.001459  -0.000000   0.000000
    6  LI 1  Y   -0.000000  -0.000000  -0.000000  -0.001459   0.000000
    7  LI 1  Z    0.007682  -0.000676  -0.000000  -0.000000   0.000000
    8  LI 1  X   -0.000000  -0.000000   0.002830  -0.000000   0.000000
    9  LI 1  Y   -0.000000  -0.000000  -0.000000   0.002830   0.000000
   10  LI 1  Z   -0.131967  -0.002209  -0.000000  -0.000000   0.000000
   11  F  2  S    0.052607   0.000887  -0.000000  -0.000000   0.000000
   12  F  2  S    0.055640   0.001773  -0.000000  -0.000000   0.000000
   13  F  2  S   -0.616367  -0.007326  -0.000000  -0.000000   0.000000
   14  F  2  S    0.929246  -0.000821  -0.000000  -0.000000   0.000000
   15  F  2  X   -0.000000  -0.000000  -0.002602  -0.000000   0.000000
   16  F  2  Y   -0.000000  -0.000000  -0.000000  -0.002602   0.000000
   17  F  2  Z   -0.790436   0.000167  -0.000000  -0.000000   0.000000
   18  F  2  X   -0.000000  -0.000000   0.004012  -0.000000   0.000000
   19  F  2  Y   -0.000000  -0.000000  -0.000000   0.004012   0.000000
   20  F  2  Z    1.280390   0.001888  -0.000000  -0.000000   0.000000
   21  F  2  X   -0.000000  -0.000000  -0.000480  -0.000000   0.000000
   22  F  2  Y   -0.000000  -0.000000  -0.000000  -0.000480   0.000000
   23  F  2  Z   -0.614963  -0.002301  -0.000000  -0.000000   0.000000
   24  F  2 XX   -0.148415  -0.496275  -0.000000  -0.000000   0.000000
   25  F  2 YY   -0.148415  -0.496275  -0.000000  -0.000000   0.000000
   26  F  2 ZZ   -0.149803   1.003719  -0.000000  -0.000000   0.000000
   27  F  2 XY   -0.000000  -0.000000  -0.000000  -0.000000   1.000000
   28  F  2 XZ   -0.000000  -0.000000   0.999996  -0.000000   0.000000
   29  F  2 YZ   -0.000000  -0.000000  -0.000000   0.999996   0.000000

                     26         27         28         29
                    3.5959     4.2256     6.4583    59.5624
                     A1         A1         A1         A1  
    1  LI 1  S   -0.000000  -1.295115   0.013337  -0.001128
    2  LI 1  S    0.000000   1.439468  -0.020128   0.002627
    3  LI 1  S    0.000000  -0.694330   0.048870  -0.011360
    4  LI 1  S    0.000000   0.373576  -0.054817   0.013435
    5  LI 1  X   -0.000000   0.000000   0.000000   0.000000
    6  LI 1  Y   -0.000000   0.000000   0.000000   0.000000
    7  LI 1  Z    0.000000  -0.003293   0.032732  -0.008658
    8  LI 1  X   -0.000000   0.000000   0.000000   0.000000
    9  LI 1  Y   -0.000000   0.000000   0.000000   0.000000
   10  LI 1  Z   -0.000000   0.009824  -0.067476   0.017708
   11  F  2  S   -0.000000  -0.002355  -0.222009  -1.754938
   12  F  2  S   -0.000000  -0.004589  -0.526780   2.106358
   13  F  2  S   -0.000000   0.028958   1.808029  -0.796519
   14  F  2  S    0.000000  -0.026656   1.302250  -0.324077
   15  F  2  X   -0.000000   0.000000   0.000000   0.000000
   16  F  2  Y   -0.000000   0.000000   0.000000   0.000000
   17  F  2  Z    0.000000  -0.001166  -0.003919   0.000740
   18  F  2  X   -0.000000   0.000000   0.000000   0.000000
   19  F  2  Y   -0.000000   0.000000   0.000000   0.000000
   20  F  2  Z   -0.000000   0.000667   0.013420  -0.003032
   21  F  2  X   -0.000000   0.000000   0.000000   0.000000
   22  F  2  Y   -0.000000   0.000000   0.000000   0.000000
   23  F  2  Z    0.000000   0.017508  -0.027726   0.006944
   24  F  2 XX    0.866025  -0.003702  -1.316670   0.412551
   25  F  2 YY   -0.866025  -0.003702  -1.316670   0.412551
   26  F  2 ZZ   -0.000000  -0.006574  -1.311640   0.412513
   27  F  2 XY   -0.000000   0.000000   0.000000   0.000000
   28  F  2 XZ   -0.000000   0.000000   0.000000   0.000000
   29  F  2 YZ   -0.000000   0.000000   0.000000   0.000000
 .....DONE WITH MCSCF ITERATIONS.....
 STEP CPU TIME =     0.10 TOTAL CPU TIME =        0.2 (    0.0 MIN)
 TOTAL WALL CLOCK TIME=        2.0 SECONDS, CPU UTILIZATION IS   9.60%

     ----------------------------------------------------------------
     PROPERTY VALUES FOR THE MCSCF SELF-CONSISTENT FIELD WAVEFUNCTION
     ----------------------------------------------------------------

 THIS MCSCF AVERAGED   2 ROOTS OF DIFFERENT ENERGY.
 SINCE NO STATE-SPECIFIC DENSITY MATRIX IS AVAILABLE,
 PROPERTIES WILL NOT BE COMPUTED.


          -----------------          ---------------------------
          MC-QDPT2 (MR-MP2)          PROGRAM WRITTEN BY H.NAKANO
          -----------------          ---------------------------
                                         PARALLELIZED BY H.UMEDA
                                     ---------------------------


    ----------------------------
    MRMP/MCQDPT INPUT PARAMETERS
    ----------------------------
 # OF ELECTRONS                =        12
 SPIN MULTIPLICITY             =         1
 SPATIAL STATE SYMMETRY        =         1
 # OF STATES                   =         2 (DIMENSION OF EFFECTIVE HAMILTONIAN)
 # OF FROZEN CORE ORBITALS     =         3
 # OF DOUBLY OCCUPIED ORBITALS =         0
 # OF ACTIVE ORBITALS          =         6
 # OF EXTERNAL ORBITALS        =        20
 # OF FROZEN VIRTUAL ORBITALS  =         0

      IFORB      IROT    ISELCT    LENGTH    MAXCSF    MAXERI
          1         0         0      4096      2048      4096
     MAXROW       MDI    MXBASE    MXTRFR    NSOLUT     NSTCI     NSTOP
        200        50        50        80         2         2       100
     GENZRO    THRCON    THRENE    THRERI    THRGEN    THRWGT    REFWGT
  1.000D-12 1.000D-06-1.000D+00 1.000D-12 1.000D-08 1.000D-06       F
      NOSYM    PARAIO    DOORD0    DELSCR
          0         T         T         F

 THE WEIGHTS OF THE CAS STATES IN THE DENSITY MATRIX AVERAGING ARE
   1=  0.500000   2=  0.500000
 THE SYMMETRY OF EACH ORBITAL IS
    1= 1,A1      2= 1,A1      3= 1,A1      4= 3,B1      5= 4,B2      6= 1,A1  
    7= 1,A1      8= 3,B1      9= 4,B2     10= 3,B1     11= 4,B2     12= 1,A1  
   13= 1,A1     14= 4,B2     15= 3,B1     16= 1,A1     17= 1,A1     18= 4,B2  
   19= 3,B1     20= 1,A1     21= 1,A1     22= 1,A1     23= 3,B1     24= 4,B2  
   25= 2,A2     26= 1,A1     27= 1,A1     28= 1,A1     29= 1,A1  
 THE CORRELATED ORBITALS RUN FROM     4 TO     9
 THE     ACTIVE ORBITALS RUN FROM     4 TO     9

 THE RESULTS OF REARRANGING THE ORBITALS BY SYMMETRY TYPE ARE
 SYM.       1       2       3       4       5       6       7       8
 -----------------------------------------------------------------------
 FZC /  1-  3/  0-  0/  0-  0/  0-  0/  0-  0/  0-  0/  0-  0/  0-  0/
 DOC /  0-  0/  0-  0/  0-  0/  0-  0/  0-  0/  0-  0/  0-  0/  0-  0/
 ACT /  4-  5/  0-  0/  6-  7/  8-  9/  0-  0/  0-  0/  0-  0/  0-  0/
 EXT / 10- 20/ 21- 21/ 22- 25/ 26- 29/  0-  0/  0-  0/  0-  0/  0-  0/
 -----------------------------------------------------------------------
 NUMBER OF SPACE ORBITAL PRODUCTS      =       141
 MAXIMUM NUMBER OF SPIN FUNCTIONS      =         5
 TOTAL NUMBER OF CSFS (ALL SYMMETRIES) =       175
 EVALUATING ONE-PARTICLE COUPLING CONSTANTS FOR CAS-CI...
 CAS-CI COUPLING CONSTANTS TOOK     0.0 SECONDS.
 EVALUATING ONE-PARTICLE COUPLING CONSTANTS FOR PT...
 PT COUPLING CONSTANTS TOOK     0.0 SECONDS.
 TOTAL NUMBER OF SYMMETRY ADAPTED CSFS =        55
 CPU TIME TO SET UP SYMMETRY, GENERATE CSFS, AND COUPLING CONSTANTS=      0.02

 TRANSFORMING INTEGRALS OVER OCCUPIED, UNCANONICAL MCSCF ORBITALS.

 SORTING DUPLICATED AO INTEGRAL LIST
 AO INTEGRAL FILE  8 READ     1 TIMES, SORTING TIME=      0.00

 MAXIMUM MEMDDI THAT CAN BE USED IN THE INTEGRAL TRANSFORMATION IS     1 MWORDS
    THE MEMDDI THAT WILL BE USED IN THE INTEGRAL TRANSFORMATION IS     1 MWORDS
 DDI: Creating Array [0] - 435 x 45 = 19575 words.
 TIME FOR FIRST TWO INDEX TRANSFORM=      0.01
 TIME FOR  LAST TWO INDEX TRANSFORM=      0.00
 CPU TIME TO TRANSFORM INTEGRALS=      0.01

 SOLVING FOR CAS-CI STATE FUNCTIONS.

 ##########################
 ###   CAS-CI RESULTS   ###
 ##########################
 CAS-CI STATES CONVERGED, COUPLING COEFFICIENT FILE 51 WAS READ  10 TIMES.

 STATE #    1  ENERGY =    -106.848360164

      CSF      COEF    OCCUPANCY (IGNORING CORE)
      ---      ----    --------- --------- -----
       34    0.287684  202020
       76   -0.944869  +-2020
       77   -0.071055  +-20+-
       84   -0.071055  +-+-20
       86    0.067381  +-+-+-

 STATE #    2  ENERGY =    -106.825127376

      CSF      COEF    OCCUPANCY (IGNORING CORE)
      ---      ----    --------- --------- -----
       34    0.933244  202020
       35   -0.116771  2020+-
       36   -0.065166  202002
       39   -0.116771  20+-20
       40   -0.081328  20+-+-
       45   -0.065166  200220
       76    0.290164  +-2020
 CPU TIME TO GENERATE REFERENCE CI STATES =      0.00

 *** ONE PARTICLE DENSITY MATRIX OVER ACTIVE MO-S ***
                   1            2            3            4            5
     1  1.499775E+00
     2  1.089883E-02 5.001124E-01
     3  0.000000E+00 0.000000E+00 1.975277E+00
     4  0.000000E+00 0.000000E+00-2.458492E-02 2.477907E-02
     5  0.000000E+00 0.000000E+00 0.000000E+00 0.000000E+00 1.975277E+00
     6  0.000000E+00 0.000000E+00 0.000000E+00 0.000000E+00-2.458480E-02
                   6
     6  2.477906E-02

 OVERLAP OF THE CANONICAL ORBITALS WITH PREVIOUS MO INDEX:
    1 1.0000E+00    2 1.0000E+00    3 1.0000E+00    4 1.0000E+00    5 1.0000E+00
    6 1.0000E+00    7 1.0000E+00    8 1.0000E+00    9 1.0000E+00   10 1.0000E+00
   11 1.0000E+00   12 1.0000E+00   13 1.0000E+00   14 1.0000E+00   15 1.0000E+00
   16 1.0000E+00   17 1.0000E+00   18 1.0000E+00   19 1.0000E+00   20 1.0000E+00
   21 1.0000E+00   22 1.0000E+00   23 1.0000E+00   24 1.0000E+00   25 1.0000E+00
   26 1.0000E+00   27 1.0000E+00   28 1.0000E+00   29 1.0000E+00
 CPU TIME TO CANONICALIZE THE ORBITALS =      0.01

 TRANSFORMING INTEGRALS OVER ALL CANONICAL MCSCF ORBITALS.


 MAXIMUM MEMDDI THAT CAN BE USED IN THE INTEGRAL TRANSFORMATION IS     1 MWORDS
    THE MEMDDI THAT WILL BE USED IN THE INTEGRAL TRANSFORMATION IS     1 MWORDS
 DDI: Creating Array [0] - 435 x 225 = 97875 words.
 TIME FOR FIRST TWO INDEX TRANSFORM=      0.03
 TIME FOR  LAST TWO INDEX TRANSFORM=      0.01
 CPU TIME TO TRANSFORM INTEGRALS=      0.04

 SOLVING FOR CAS-CI STATE FUNCTIONS IN CANONICAL ORBITAL BASIS

 ##########################
 ###   CAS-CI RESULTS   ###
 ##########################
 CAS-CI STATES CONVERGED, COUPLING COEFFICIENT FILE 51 WAS READ  10 TIMES.

 STATE #    1  ENERGY =    -106.848360164

      CSF      COEF    OCCUPANCY (IGNORING CORE)
      ---      ----    --------- --------- -----
       34    0.287684  202020
       76   -0.944869  +-2020
       77    0.071055  +-20+-
       84   -0.071055  +-+-20
       86   -0.067381  +-+-+-

 STATE #    2  ENERGY =    -106.825127376

      CSF      COEF    OCCUPANCY (IGNORING CORE)
      ---      ----    --------- --------- -----
       34   -0.933244  202020
       35   -0.116771  2020+-
       36    0.065166  202002
       39    0.116771  20+-20
       40   -0.081328  20+-+-
       45    0.065166  200220
       76   -0.290164  +-2020
 CPU TIME TO GENERATE REFERENCE CI STATES =      0.00

 *** ONE PARTICLE DENSITY MATRIX OVER CANONICAL ORBITALS ***
                   1            2            3            4            5
     1  1.499775E+00
     2  1.089883E-02 5.001124E-01
     3  0.000000E+00 0.000000E+00 1.975277E+00
     4  0.000000E+00 0.000000E+00-2.458490E-02 2.477907E-02
     5  0.000000E+00 0.000000E+00 0.000000E+00 0.000000E+00 1.975277E+00
     6  0.000000E+00 0.000000E+00 0.000000E+00 0.000000E+00 2.458489E-02
                   6
     6  2.477906E-02

 *** ORBITAL ENERGIES OF THE CANONICAL ORBITALS ***
 DOUBLY OCCUPIED ORBITALS:
   -2.618707E+01  -2.581603E+00  -1.389195E+00
 ACTIVE ORBITALS:
   -3.463019E-01  -8.535427E-02  -4.948837E-01   9.194697E-01  -4.948837E-01
    9.194698E-01
 VIRTUAL ORBITALS:
    1.674014E-02   1.064045E-01   1.337917E-01   3.072772E-01   1.396988E+00
    1.436313E+00   3.585628E+00   3.595885E+00   4.225580E+00   6.458331E+00
    5.956239E+01   3.595885E+00   8.088658E-03   1.180419E-01   7.830502E-01
    3.588177E+00   8.088665E-03   1.180418E-01   7.830501E-01   3.588177E+00
 CPU TIME TO GENERATE ORBITAL ENERGIES =      0.00

 DISCARDING NEGLIGIBLE GENERATORS
 STEP ONE:  ORIGINAL SPACE PRODUCTS=          141 REDUCED TO          141
 STEP TWO: NUMBER OF SPACE PRODUCTS=          141 REDUCED TO           45
 CONDENSED LABELS MADE FOR           175 CSFS
 CPU TIME TO REDUCE GENERATORS TO MINIMUM =      0.01

 FINISHING SETUP FOR MRMP/MCQDPT CALCULATION.

 THE FROZEN CORE ENERGY IS      -96.9652250068
 MAXIMUM MEMDDI THAT CAN BE USED IN THE PERTURBATION CALCULATION IS     1 MWORDS
    THE MEMDDI THAT WILL BE USED IN THE PERTURBATION CALCULATION IS     1 MWORDS
 DDI: Creating Array [0] - 120 x 120 = 14400 words.
 PREPARING TRANSFORMED INTEGRALS FOR PT...
 TIME FOR FINISHING SETUPS =      0.00

 EVALUATING PERTURBATION THEORY CORRECTIONS TO HAMILTONIAN ELEMENTS.


 EVALUATING MATRIX ELEMENTS BETWEEN STATE   1 AND ALL OTHER STATES.

 TIME FOR 0-BODY FORMULAE =      0.00
 TIME FOR 1-BODY FORMULAE =      0.00
 TIME FOR 2-BODY FORMULAE =      0.00
 TIME FOR 3-BODY FORMULAE =      0.02
 TIME FOR 0-BODY FORMULAE INVOLVING 2 EXTERNAL ORBITALS=      0.00
 TIME FOR 1-BODY FORMULAE INVOLVING 2 EXTERNAL ORBITALS=      0.00
 TIME FOR 2-BODY FORMULAE INVOLVING 2 EXTERNAL ORBITALS=      0.00
 DONE EVALUATING PERTURBATIONS TO STATE   1
 TIME FOR PERTURBATION TREATMENT =      0.02

 EVALUATING MATRIX ELEMENTS BETWEEN STATE   2 AND ALL OTHER STATES.

 TIME FOR 0-BODY FORMULAE =      0.00
 TIME FOR 1-BODY FORMULAE =      0.00
 TIME FOR 2-BODY FORMULAE =      0.01
 TIME FOR 3-BODY FORMULAE =      0.01
 TIME FOR 0-BODY FORMULAE INVOLVING 2 EXTERNAL ORBITALS=      0.00
 TIME FOR 1-BODY FORMULAE INVOLVING 2 EXTERNAL ORBITALS=      0.00
 TIME FOR 2-BODY FORMULAE INVOLVING 2 EXTERNAL ORBITALS=      0.00
 DONE EVALUATING PERTURBATIONS TO STATE   2
 TIME FOR PERTURBATION TREATMENT =      0.02

 MULTICONFIGURATION QUASIDEGENERATE PERTURBATION (MCQDPT) ENERGY FOR   2 STATES

 ###########################
 ###   MCQDPT2 RESULTS   ###
 ###########################

 *** EFFECTIVE HAMILTONIAN (AT SECOND ORDER) ***
                   1            2
     1 -1.069222E+02
     2  1.139845E-02-1.069305E+02

 *** ZEROTH ORDER ENERGIES ***
   STATE        0TH ORDER
     1      -62.6971688805
     2      -62.8774412356

 *** DIAGONAL ELEMENTS OF EFFECTIVE HAMILTONIAN ***
   STATE                  2ND ORDER
     1   E(MRMP2)=     -106.9221588280
     2   E(MRMP2)=     -106.9304907053
 THE DIAGONAL ELEMENTS ARE ALMOST THE STATE-SPECIFIC E(MRMP2) CORRECTIONS.
 HOWEVER, THEY DIFFER SLIGHTLY BECAUSE OF THE USE OF STATE-AVERAGED,
 RATHER THAN STATE-SPECIFIC CANONICAL ORBITALS.

 *** MCQDPT2 ENERGIES ***
   STATE                       1ST ORDER                       2ND ORDER
     1     E(MCSCF)=     -106.8483601644     E(MP2)=     -106.9384606505
     2     E(MCSCF)=     -106.8251273757     E(MP2)=     -106.9141888827

 THE UNPERTURBED CAS-CI STATE(S) WERE PRINTED ABOVE

 *** PERTURBED MCQDPT STATES ***
 (FROM DIAGONALIZATION OF 2ND ORDER EFFECTIVE HAMILTONIAN)

 THE ROTATION FROM CAS-CI STATES (ROWS) TO QDPT STATES (COLUMNS) IS

             1           2

    1   -0.5730295   0.8195348
    2    0.8195348   0.5730295

 STATE #    1  ENERGY =    -106.938460651

      CSF      COEF    OCCUPANCY (IGNORING CORE)
      ---      ----    --------- --------- -----
       34   -0.929677  202020
       35   -0.112160  2020+-
       36    0.064584  202002
       39    0.112160  20+-20
       40   -0.080748  20+-+-
       45    0.064584  200220
       76    0.303638  +-2020

 STATE #    2  ENERGY =    -106.914188883

      CSF      COEF    OCCUPANCY (IGNORING CORE)
      ---      ----    --------- --------- -----
       34   -0.299009  202020
       76   -0.940625  +-2020
       77    0.067648  +-20+-
       84   -0.067648  +-+-20
       86   -0.067254  +-+-+-
 ...... END OF MC-QDPT2 (MR-MP2) CALCULATION ......

 ..... DONE WITH MP2 ENERGY .....
 STEP CPU TIME =     0.13 TOTAL CPU TIME =        0.3 (    0.0 MIN)
 TOTAL WALL CLOCK TIME=        2.2 SECONDS, CPU UTILIZATION IS  14.35%
               580000  WORDS OF DYNAMIC MEMORY USED
 EXECUTION OF GAMESS TERMINATED NORMALLY Mon Nov 28 21:22:28 2016
 DDI: 1046640 bytes (1.0 MB / 0 MWords) used by master data server.

 ----------------------------------------
 CPU timing information for all processes
 ========================================
 0: 0.267 + 0.78 = 0.346
 ----------------------------------------
 ddikick.x: exited gracefully.
unset echo
----- accounting info -----
Files used on the master node compute-3-0 were:
-rw-rw-r-- 1 sarom sarom   20112 Nov 29  2016 .//mc-mcqdpt-lif.dat
-rw-rw-r-- 1 sarom sarom    6974 Nov 29  2016 .//mc-mcqdpt-lif.F05
-rw-rw-r-- 1 sarom sarom  360032 Nov 29  2016 .//mc-mcqdpt-lif.F08
-rw-rw-r-- 1 sarom sarom  183504 Nov 29  2016 .//mc-mcqdpt-lif.F09
-rw-rw-r-- 1 sarom sarom 1832320 Nov 29  2016 .//mc-mcqdpt-lif.F10
-rw-rw-r-- 1 sarom sarom  279728 Nov 29  2016 .//mc-mcqdpt-lif.F11
-rw-rw-r-- 1 sarom sarom    5816 Nov 29  2016 .//mc-mcqdpt-lif.F12
-rw-rw-r-- 1 sarom sarom   24976 Nov 29  2016 .//mc-mcqdpt-lif.F13
-rw-rw-r-- 1 sarom sarom  400008 Nov 29  2016 .//mc-mcqdpt-lif.F14
-rw-rw-r-- 1 sarom sarom  180384 Nov 29  2016 .//mc-mcqdpt-lif.F15
-rw-rw-r-- 1 sarom sarom  180384 Nov 29  2016 .//mc-mcqdpt-lif.F16
-rw-rw-r-- 1 sarom sarom   33432 Nov 29  2016 .//mc-mcqdpt-lif.F23
-rw-rw-r-- 1 sarom sarom  196416 Nov 29  2016 .//mc-mcqdpt-lif.F50
-rw-rw-r-- 1 sarom sarom   56816 Nov 29  2016 .//mc-mcqdpt-lif.F51
-rw-rw-r-- 1 sarom sarom  104448 Nov 29  2016 .//mc-mcqdpt-lif.F52
-rw-rw-r-- 1 sarom sarom  104448 Nov 29  2016 .//mc-mcqdpt-lif.F53
-rw-rw-r-- 1 sarom sarom   31456 Nov 29  2016 .//mc-mcqdpt-lif.F54
-rw-rw-r-- 1 sarom sarom  440008 Nov 29  2016 .//mc-mcqdpt-lif.F55
-rw-rw-r-- 1 sarom sarom       0 Nov 29  2016 .//mc-mcqdpt-lif.F56
-rw-rw-r-- 1 sarom sarom    9696 Nov 29  2016 .//mc-mcqdpt-lif.F57
-rw-rw-r-- 1 sarom sarom   36568 Nov 29  2016 .//mc-mcqdpt-lif.F58
-rw-rw-r-- 1 sarom sarom  102872 Nov 29  2016 .//mc-mcqdpt-lif.F59
-rw-rw-r-- 1 sarom sarom   23856 Nov 29  2016 .//mc-mcqdpt-lif.F60
-rw-rw-r-- 1 sarom sarom    9488 Nov 29  2016 .//mc-mcqdpt-lif.F61
-rw-rw-r-- 1 sarom sarom  109992 Nov 29  2016 .//mc-mcqdpt-lif.F62
-rw-rw-r-- 1 sarom sarom   13703 Nov 29  2016 .//mc-mcqdpt-lif.F63
-rw-rw-r-- 1 sarom sarom    7452 Nov 29  2016 .//mc-mcqdpt-lif.F64
-rw-rw-r-- 1 sarom sarom    6974 Nov 27 05:47 .//mc-mcqdpt-lif.inp
-rw-rw-r-- 1 sarom sarom   69214 Nov 29  2016 .//mc-mcqdpt-lif.log
Mon Nov 28 21:22:31 CST 2016
0.203u 0.434s 0:05.95 10.5%	0+0k 0+152io 0pf+0w
