----- GAMESS execution script 'rungms' -----
This job is running on host compute-3-0
under operating system Linux at Mon Nov 28 21:22:26 CST 2016
Available scratch disk space (Kbyte units) at beginning of the job is
Filesystem            1K-blocks       Used  Available Use% Mounted on
bolt.local:/export/home/sarom
                     9590469632 1552972800 7550328832  18% /home/sarom
Copying input file mc-mcqdpt-c3si.inp to your run's scratch directory...
cp mc-mcqdpt-c3si.inp .//mc-mcqdpt-c3si.F05
unset echo
/home/sarom/gamessGH/ddikick.x /home/sarom/gamessGH/gamess.00.x mc-mcqdpt-c3si -ddi 1 1 localhost -scr ./

 Distributed Data Interface kickoff program.
 Initiating 1 compute processes on 1 nodes to run the following command:
 /home/sarom/gamessGH/gamess.00.x mc-mcqdpt-c3si 

          ******************************************************
          *         GAMESS VERSION = 18 AUG 2016 (R1)          *
          *             FROM IOWA STATE UNIVERSITY             *
          * M.W.SCHMIDT, K.K.BALDRIDGE, J.A.BOATZ, S.T.ELBERT, *
          *   M.S.GORDON, J.H.JENSEN, S.KOSEKI, N.MATSUNAGA,   *
          *          K.A.NGUYEN, S.J.SU, T.L.WINDUS,           *
          *       TOGETHER WITH M.DUPUIS, J.A.MONTGOMERY       *
          *         J.COMPUT.CHEM.  14, 1347-1363(1993)        *
          **************** 64 BIT LINUX VERSION ****************

  SINCE 1993, STUDENTS AND POSTDOCS WORKING AT IOWA STATE UNIVERSITY
  AND ALSO IN THEIR VARIOUS JOBS AFTER LEAVING ISU HAVE MADE IMPORTANT
  CONTRIBUTIONS TO THE CODE:
     IVANA ADAMOVIC, CHRISTINE AIKENS, YURI ALEXEEV, POOJA ARORA,
     ANDREY ASADCHEV, ROB BELL, PRADIPTA BANDYOPADHYAY, JONATHAN BENTZ,
     BRETT BODE, KURT BRORSEN, CALEB CARLIN, GALINA CHABAN, WEI CHEN,
     CHEOL HO CHOI, PAUL DAY, ALBERT DEFUSCO, NUWAN DESILVA, TIM DUDLEY,
     DMITRI FEDOROV, GRAHAM FLETCHER, MARK FREITAG, KURT GLAESEMANN,
     DAN KEMP, GRANT MERRILL, NORIYUKI MINEZAWA, JONATHAN MULLIN,
     TAKESHI NAGATA, SEAN NEDD, HEATHER NETZLOFF, BOSILJKA NJEGIC, RYAN OLSON,
     MIKE PAK, SPENCER PRUITT, LUKE ROSKOP, JIM SHOEMAKER, LYUDMILA SLIPCHENKO,
     TONY SMITH, SAROM SOK LEANG, JIE SONG, TETSUYA TAKETSUGU, SIMON WEBB,
     PENG XU, SOOHAENG YOO, FEDERICO ZAHARIEV

  ADDITIONAL CODE HAS BEEN PROVIDED BY COLLABORATORS IN OTHER GROUPS:
     IOWA STATE UNIVERSITY:
          JOE IVANIC, AARON WEST, LAIMUTIS BYTAUTAS, KLAUS RUEDENBERG
     UNIVERSITY OF TOKYO: KIMIHIKO HIRAO, TAKAHITO NAKAJIMA,
          TAKAO TSUNEDA, MUNEAKI KAMIYA, SUSUMU YANAGISAWA,
          KIYOSHI YAGI, MAHITO CHIBA, SEIKEN TOKURA, NAOAKI KAWAKAMI
     UNIVERSITY OF AARHUS: FRANK JENSEN
     UNIVERSITY OF IOWA: VISVALDAS KAIRYS, HUI LI
     NATIONAL INST. OF STANDARDS AND TECHNOLOGY: WALT STEVENS, DAVID GARMER
     UNIVERSITY OF PISA: BENEDETTA MENNUCCI, JACOPO TOMASI
     UNIVERSITY OF MEMPHIS: HENRY KURTZ, PRAKASHAN KORAMBATH
     UNIVERSITY OF ALBERTA: TOBY ZENG, MARIUSZ KLOBUKOWSKI
     UNIVERSITY OF NEW ENGLAND: MARK SPACKMAN
     MIE UNIVERSITY: HIROAKI UMEDA
     NAT. INST. OF ADVANCED INDUSTRIAL SCIENCE AND TECHNOLOGY: KAZUO KITAURA
     MICHIGAN STATE UNIVERSITY:
          KAROL KOWALSKI, MARTA WLOCH, JEFFREY GOUR, JESSE LUTZ,
          WEI LI, PIOTR PIECUCH
     UNIVERSITY OF SILESIA: MONIKA MUSIAL, STANISLAW KUCHARSKI
     FACULTES UNIVERSITAIRES NOTRE-DAME DE LA PAIX:
          OLIVIER QUINET, BENOIT CHAMPAGNE
     UNIVERSITY OF CALIFORNIA - SANTA BARBARA: BERNARD KIRTMAN
     INSTITUTE FOR MOLECULAR SCIENCE:
          KAZUYA ISHIMURA, MICHIO KATOUDA, AND SHIGERU NAGASE
     UNIVERSITY OF NOTRE DAME: ANNA POMOGAEVA, DAN CHIPMAN
     KYUSHU UNIVERSITY:
          HARUYUKI NAKANO,
          FENG LONG GU, JACEK KORCHOWIEC, MARCIN MAKOWSKI, AND YURIKO AOKI,
          HIROTOSHI MORI AND EISAKU MIYOSHI
     PENNSYLVANIA STATE UNIVERSITY:
          TZVETELIN IORDANOV, CHET SWALINA, JONATHAN SKONE,
          SHARON HAMMES-SCHIFFER
     WASEDA UNIVERSITY:
          MASATO KOBAYASHI, TOMOKO AKAMA, TSUGUKI TOUMA,
          TAKESHI YOSHIKAWA, YASUHIRO IKABATA, JUNJI SEINO,
          YUYA NAKAJIMA, HIROMI NAKAI
     NANJING UNIVERSITY: SHUHUA LI
     UNIVERSITY OF NEBRASKA:
          PEIFENG SU, DEJUN SI, NANDUN THELLAMUREGE, YALI WANG, HUI LI
     UNIVERSITY OF ZURICH: ROBERTO PEVERATI, KIM BALDRIDGE
     N. COPERNICUS UNIVERSITY AND JACKSON STATE UNIVERSITY:
          MARIA BARYSZ
     UNIVERSITY OF COPENHAGEN: Jimmy Kromann, CASPER STEINMANN
     TOKYO INSTITUTE OF TECHNOLOGY: HIROYA NAKATA
     NAGOYA UNIVERSITY: YOSHIO NISHIMOTO, STEPHAN IRLE
     MOSCOW STATE UNIVERSITY: VLADIMIR MIRONOV

 EXECUTION OF GAMESS BEGUN Mon Nov 28 21:22:26 2016

            ECHO OF THE FIRST FEW INPUT CARDS -
 INPUT CARD>!    C3Si...four membered ring...from Jamie...3-B2 electronic state             
 INPUT CARD>!    There are 64 AOs, the 10 orbital active space has 5,220 CSFs               
 INPUT CARD>!                                                                               
 INPUT CARD>!    CSFs: FINAL E(MCSCF)= -402.3500604286, 2 iters, E(MP2)= -402.6930218080    
 INPUT CARD>!    dets: F.NAL E(MCSCF)= -402.3500604286, 2 iters, E(M.2)= -402.6930218365    
 INPUT CARD>!                                                                               
 INPUT CARD>!    This run takes 67 seconds on 2.66 GHz Cloverton (27 Apr 2015)              
 INPUT CARD>!    results nearly unchanged since at least 2005                               
 INPUT CARD>!                                                                               
 INPUT CARD> $CONTRL SCFTYP=MCSCF MPLEVL=2 mult=3 runtyp=ENERGY $end                        
 INPUT CARD> $SYSTEM parall=.t. MWORDS=4 memddi=8 $END                                      
 INPUT CARD>!            MCQDPT has no AO direct option, so this run will create an         
 INPUT CARD>!            integral file after the MCSCF, before the PT2 starts.              
 INPUT CARD> $trans  dirtrf=.true. $end                                                     
 INPUT CARD> $BASIS  Gbasis=N31  NGauss=6  NDFUNC=1  $end                                   
 INPUT CARD> $GUESS  GUESS=MOREAD NORB=64   $END                                            
 INPUT CARD>                                                                                
 INPUT CARD>!   The determinant solution                                                    
 INPUT CARD>--- $det    ncore=10 nact=10 nels=12 stsym=b2 $end                              
 INPUT CARD>                                                                                
 INPUT CARD>!   The CSF solution, asking for determinant accuracy                           
 INPUT CARD> $MCSCF  FORS=.True.  CISTEP=GUGA  $END                                         
 INPUT CARD> $DRT    GROUP=C2V stsym=B2 FORS=.True. NMCC=10 NDOC=5  NALP=2   NVAL=3  $END   
 INPUT CARD> $GUGDIA NSTATE=4   $ENd                                                        
 INPUT CARD> $mrmp   mrpt=mcqdpt $end                                                       
 INPUT CARD> $MCQDPT MULT=3  STSYM=B2  thrgen=1d-12 $END                                    
 INPUT CARD>                                                                                
 INPUT CARD> $DATA                                                                          
 INPUT CARD>C3Si  4mr C-C, tripl mc to det imp of 16                                        
 INPUT CARD>Cnv 2                                                                           
 INPUT CARD>                                                                                
 INPUT CARD>CARBON      6.0    .0000000000    .0000000000   1.1031491032                    
 INPUT CARD>CARBON      6.0    .7519544468    .0000000000   -.0051542362                    
 INPUT CARD>SILICON    14.0    .0000000000    .0000000000  -1.7878406308                    
 INPUT CARD> $END                                                                           
 INPUT CARD>                                                                                
 INPUT CARD>--- OPTIMIZED MCSCF MO-S --- GENERATED AT 16:36:32 CST 16-JUL-1999              
 INPUT CARD>C3Si  4mr C-C, tripl mc to det imp of 16                                        
 INPUT CARD>E(MCSCF)=     -402.3500604389, 23 ITERS, E(NUC)=  102.4398944836                
 INPUT CARD> $VEC                                                                           
 INPUT CARD> 1  1 2.56734557E-06-9.11337906E-06 0.00000000E+00 0.00000000E+00 4.47746633E-06
 INPUT CARD> 1  2 1.87945553E-05 0.00000000E+00 0.00000000E+00 2.46908625E-05 5.52075628E-05
 INPUT CARD> 1  3-5.06851040E-06-1.17649173E-05 0.00000000E+00 0.00000000E+00 0.00000000E+00
 INPUT CARD> 1  4 1.24021613E-05 1.21260480E-04-2.96482510E-05 0.00000000E+00 6.11258977E-05
 INPUT CARD> 1  5 4.29075113E-05 6.45893565E-05 0.00000000E+00-1.69560359E-04-9.66568531E-06
 INPUT CARD> 1  6 1.67938993E-05-1.34206152E-04 0.00000000E+00 6.81802813E-05 0.00000000E+00
 INPUT CARD> 1  7 1.24021613E-05 1.21260480E-04 2.96482510E-05 0.00000000E+00 6.11258977E-05
 INPUT CARD> 1  8 4.29075113E-05-6.45893565E-05 0.00000000E+00-1.69560359E-04-9.66568531E-06
 INPUT CARD> 1  9 1.67938993E-05-1.34206152E-04 0.00000000E+00-6.81802813E-05 0.00000000E+00
 INPUT CARD> 1 10 9.96876091E-01 1.24075361E-02 0.00000000E+00 0.00000000E+00 9.02044557E-05
    4000000 WORDS OF MEMORY AVAILABLE

     BASIS OPTIONS
     -------------
     GBASIS=N31          IGAUSS=       6      POLAR=POPN31  
     NDFUNC=       1     NFFUNC=       0     DIFFSP=       F
     NPFUNC=       0      DIFFS=       F     BASNAM=        


     RUN TITLE
     ---------
 C3Si  4mr C-C, tripl mc to det imp of 16                                        

 THE POINT GROUP OF THE MOLECULE IS CNV     
 THE ORDER OF THE PRINCIPAL AXIS IS     2

 ATOM      ATOMIC                      COORDINATES (BOHR)
           CHARGE         X                   Y                   Z
 CARBON      6.0     0.0000000000        0.0000000000        2.0846495286
 CARBON      6.0    -1.4209878597        0.0000000000       -0.0097400941
 CARBON      6.0     1.4209878597        0.0000000000       -0.0097400941
 SILICON    14.0     0.0000000000        0.0000000000       -3.3785289019

          INTERNUCLEAR DISTANCES (ANGS.)
          ------------------------------

                1 CARB       2 CARB       3 CARB       4 SILI  

   1 CARB    0.0000000    1.3393177 *  1.3393177 *  2.8909897 *
   2 CARB    1.3393177 *  0.0000000    1.5039089 *  1.9347884 *
   3 CARB    1.3393177 *  1.5039089 *  0.0000000    1.9347884 *
   4 SILI    2.8909897 *  1.9347884 *  1.9347884 *  0.0000000  

  * ... LESS THAN  3.000


     ATOMIC BASIS SET
     ----------------
 THE CONTRACTED PRIMITIVE FUNCTIONS HAVE BEEN UNNORMALIZED
 THE CONTRACTED BASIS FUNCTIONS ARE NOW NORMALIZED TO UNITY

  SHELL TYPE  PRIMITIVE        EXPONENT          CONTRACTION COEFFICIENT(S)

 CARBON    

      1   S       1          3047.5248800    0.001834737132
      1   S       2           457.3695180    0.014037322813
      1   S       3           103.9486850    0.068842622264
      1   S       4            29.2101553    0.232184443216
      1   S       5             9.2866630    0.467941348435
      1   S       6             3.1639270    0.362311985337

      2   L       7             7.8682723   -0.119332419775    0.068999066591
      2   L       8             1.8812885   -0.160854151696    0.316423960957
      2   L       9             0.5442493    1.143456437840    0.744308290898

      3   L      10             0.1687145    1.000000000000    1.000000000000

      4   D      11             0.8000000    1.000000000000

 CARBON    

      9   S      12          3047.5248800    0.001834737132
      9   S      13           457.3695180    0.014037322813
      9   S      14           103.9486850    0.068842622264
      9   S      15            29.2101553    0.232184443216
      9   S      16             9.2866630    0.467941348435
      9   S      17             3.1639270    0.362311985337

     10   L      18             7.8682723   -0.119332419775    0.068999066591
     10   L      19             1.8812885   -0.160854151696    0.316423960957
     10   L      20             0.5442493    1.143456437840    0.744308290898

     11   L      21             0.1687145    1.000000000000    1.000000000000

     12   D      22             0.8000000    1.000000000000

 SILICON   

     13   S      23         16192.1000000    0.001949239405
     13   S      24          2436.0900000    0.014855895466
     13   S      25           556.0010000    0.072568877851
     13   S      26           156.8130000    0.245654925022
     13   S      27            50.1692000    0.486059851646
     13   S      28            17.0300000    0.325719900585

     14   L      29           293.3500000   -0.002829912441    0.004433341604
     14   L      30            70.1173000   -0.036073731114    0.032440211739
     14   L      31            22.4301000   -0.116808100749    0.133719048387
     14   L      32             8.1942500    0.093576880711    0.326780118247
     14   L      33             3.1476800    0.601705518979    0.451139163247
     14   L      34             1.2151500    0.422072364043    0.264105095568

     15   L      35             1.6537000   -0.240599186106   -0.015177406538
     15   L      36             0.5407600    0.073795050368    0.275139118516
     15   L      37             0.2044060    1.040936478740    0.783008337279

     16   L      38             0.0723837    1.000000000000    1.000000000000

     17   D      39             0.3950000    1.000000000000

 TOTAL NUMBER OF BASIS SET SHELLS             =   17
 NUMBER OF CARTESIAN GAUSSIAN BASIS FUNCTIONS =   64
 NUMBER OF ELECTRONS                          =   32
 CHARGE OF MOLECULE                           =    0
 SPIN MULTIPLICITY                            =    3
 NUMBER OF OCCUPIED ORBITALS (ALPHA)          =   17
 NUMBER OF OCCUPIED ORBITALS (BETA )          =   15
 TOTAL NUMBER OF ATOMS                        =    4
 THE NUCLEAR REPULSION ENERGY IS      102.4398944836

     $CONTRL OPTIONS
     ---------------
 SCFTYP=MCSCF        RUNTYP=ENERGY       EXETYP=RUN     
 MPLEVL=       2     CITYP =NONE         CCTYP =NONE         VBTYP =NONE    
 DFTTYP=NONE         TDDFT =NONE    
 MULT  =       3     ICHARG=       0     NZVAR =       0     COORD =UNIQUE  
 PP    =NONE         RELWFN=NONE         LOCAL =NONE         NUMGRD=       F
 ISPHER=      -1     NOSYM =       0     MAXIT =      30     UNITS =ANGS    
 PLTORB=       F     MOLPLT=       F     AIMPAC=       F     FRIEND=        
 NPRINT=       7     IREST =       0     GEOM  =INPUT   
 NORMF =       0     NORMP =       0     ITOL  =      20     ICUT  =       9
 INTTYP=BEST         GRDTYP=BEST         QMTTOL= 1.0E-06

     $SYSTEM OPTIONS
     ---------------
  REPLICATED MEMORY=     4000000 WORDS (ON EVERY NODE).
 DISTRIBUTED MEMDDI=           8 MILLION WORDS IN AGGREGATE,
 MEMDDI DISTRIBUTED OVER   1 PROCESSORS IS     8000000 WORDS/PROCESSOR.
 TOTAL MEMORY REQUESTED ON EACH PROCESSOR=    12000000 WORDS.
 TIMLIM=      525600.00 MINUTES, OR     365.0 DAYS.
 PARALL= T  BALTYP=  DLB     KDIAG=    0  COREFL= F
 MXSEQ2=     300 MXSEQ3=     150  mem10=         0

          ----------------
          PROPERTIES INPUT
          ----------------

     MOMENTS            FIELD           POTENTIAL          DENSITY
 IEMOM =       1   IEFLD =       0   IEPOT =       0   IEDEN =       0
 WHERE =COMASS     WHERE =NUCLEI     WHERE =NUCLEI     WHERE =NUCLEI  
 OUTPUT=BOTH       OUTPUT=BOTH       OUTPUT=BOTH       OUTPUT=BOTH    
 IEMINT=       0   IEFINT=       0                     IEDINT=       0
                                                       MORB  =       0

     -------------------------------
     INTEGRAL TRANSFORMATION OPTIONS
     -------------------------------
     NWORD  =            0
     CUTOFF = 1.0E-09     MPTRAN =       0
     DIRTRF =       T     AOINTS =DUP     

          ----------------------
          MCSCF INPUT PARAMETERS
          ----------------------
 CONVERGER SELECTION: FOCAS = F  SOSCF = T  FULLNR = F  QUD = F  JACOBI = F
 SECULAR EQUATION METHOD CISTEP = GUGA    
 --- GENERAL INPUT OPTIONS:
 MAXIT =      60  MICIT =       5  ACURCY= 1.000E-06
 DAMP  =   0.000  CANONC=       T  ENGTOL= 1.000E-10
 EKT   =       F  NPUNCH=       2  NWORD =         0
 REGENERATE CI AFTER CONVERGENCE = NONE    
 DIABATIZATION AFTER CONVERGENCE =        F
 --- INPUT FOR SOSCF CONVERGER:
 FORS  =       T  NOFO  =       1

          ----------------------
          INTEGRAL INPUT OPTIONS
          ----------------------
 NOPK  =       1 NORDER=       0 SCHWRZ=       T

 ------------------------------------------
 MULTIREFERENCE PERTURBATION THEORY CONTROL
 ------------------------------------------
 MRPT=MCQDPT   READ CONVERGED MCSCF VECTORS= F


    ----------------------------
    MRMP/MCQDPT INPUT PARAMETERS
    ----------------------------
 # OF ELECTRONS                =        32
 SPIN MULTIPLICITY             =         3
 SPATIAL STATE SYMMETRY        =         4
 # OF STATES                   =         1 (DIMENSION OF EFFECTIVE HAMILTONIAN)
 # OF FROZEN CORE ORBITALS     =         8
 # OF DOUBLY OCCUPIED ORBITALS =         2
 # OF ACTIVE ORBITALS          =        10
 # OF EXTERNAL ORBITALS        =        44
 # OF FROZEN VIRTUAL ORBITALS  =         0

      IFORB      IROT    ISELCT    LENGTH    MAXCSF    MAXERI
          1         0         0      4096      2048      4096
     MAXROW       MDI    MXBASE    MXTRFR    NSOLUT     NSTCI     NSTOP
        200        50        50        80         1         1       100
     GENZRO    THRCON    THRENE    THRERI    THRGEN    THRWGT    REFWGT
  1.000D-12 1.000D-06-1.000D+00 1.000D-12 1.000D-12 1.000D-06       F
      NOSYM    PARAIO    DOORD0    DELSCR
          0         T         T         F

 NOTE: MCQDPT RUNS CANNOT BE AO INTEGRAL DIRECT.
 AN AO INTEGRAL FILE WILL STILL BE GENERATED,
 BEFORE THE MCQDPT CALCULATION IS STARTED.

 THE WEIGHTS OF THE CAS STATES IN THE DENSITY MATRIX AVERAGING ARE
   1=  1.000000

     ------------------------------------------
     THE POINT GROUP IS CNV, NAXIS= 2, ORDER= 4
     ------------------------------------------

     DIMENSIONS OF THE SYMMETRY SUBSPACES ARE
 A1  =   29     A2  =    6     B1  =   18     B2  =   11

 ..... DONE SETTING UP THE RUN .....
 CPU     0: STEP CPU TIME=     0.09 TOTAL CPU TIME=        0.1 (    0.0 MIN)
 TOTAL WALL CLOCK TIME=        0.1 SECONDS, CPU UTILIZATION IS  90.00%

          ********************
          1 ELECTRON INTEGRALS
          ********************
 TIME TO DO   DIPOLE INTEGRALS=      0.01
 ...... END OF ONE-ELECTRON INTEGRALS ......
 CPU     0: STEP CPU TIME=     0.01 TOTAL CPU TIME=        0.1 (    0.0 MIN)
 TOTAL WALL CLOCK TIME=        0.1 SECONDS, CPU UTILIZATION IS 100.00%

          -------------
          GUESS OPTIONS
          -------------
          GUESS =MOREAD            NORB  =      64          NORDER=       0
          MIX   =       F          PRTMO =       F          PUNMO =       F
          TOLZ  = 1.0E-08          TOLE  = 1.0E-05
          SYMDEN=       F          PURIFY=       F

 INITIAL GUESS ORBITALS GENERATED BY MOREAD   ROUTINE.

 SYMMETRIES FOR INITIAL GUESS ORBITALS FOLLOW.   BOTH SET(S).
    20 ORBITALS ARE OCCUPIED (    8 CORE ORBITALS).
     1=A1       2=B1       3=A1       4=A1       5=A1       6=A1       7=B1  
     8=B2       9=A1      10=A1      11=A1      12=A1      13=B1      14=B2  
    15=B1      16=A1      17=B2      18=B2      19=A2      20=B1      21=B1  
    22=A1      23=A1      24=B2      25=A1      26=B1      27=B1      28=A1  
    29=A1      30=A2      31=B2      32=B2      33=A1      34=B1      35=A1  
    36=A2      37=B1      38=B2      39=A1      40=B1      41=A1      42=B1  
    43=A1      44=B1      45=A1      46=B2      47=A2      48=A1      49=B2  
    50=A1      51=B1      52=A1      53=A2      54=B1      55=A1      56=A2  
    57=B2      58=B1      59=A1      60=A1      61=B1      62=A1      63=A1  
    64=B1  
 ...... END OF INITIAL ORBITAL SELECTION ......
 CPU     0: STEP CPU TIME=     0.00 TOTAL CPU TIME=        0.1 (    0.0 MIN)
 TOTAL WALL CLOCK TIME=        0.1 SECONDS, CPU UTILIZATION IS  90.91%

                    ----------------------
                    AO INTEGRAL TECHNOLOGY
                    ----------------------
     S,P,L SHELL ROTATED AXIS INTEGRALS, REPROGRAMMED BY
        KAZUYA ISHIMURA (IMS) AND JOSE SIERRA (SYNSTAR).
     S,P,D,L SHELL ROTATED AXIS INTEGRALS PROGRAMMED BY
        KAZUYA ISHIMURA (INSTITUTE FOR MOLECULAR SCIENCE).
     S,P,D,F,G SHELL TO TOTAL QUARTET ANGULAR MOMENTUM SUM 5,
        ERIC PROGRAM BY GRAHAM FLETCHER (ELORET AND NASA ADVANCED
        SUPERCOMPUTING DIVISION, AMES RESEARCH CENTER).
     S,P,D,F,G,L SHELL GENERAL RYS QUADRATURE PROGRAMMED BY
        MICHEL DUPUIS (PACIFIC NORTHWEST NATIONAL LABORATORY).

          --------------------
          2 ELECTRON INTEGRALS
          --------------------

 DIRECT SCF METHOD SKIPS INTEGRAL STORAGE ON DISK.
 DIRECT TRANSFORMATION SKIPS AO INTEGRAL STORAGE ON DISK.
  ...... END OF TWO-ELECTRON INTEGRALS .....
 STEP CPU TIME =     0.02 TOTAL CPU TIME =        0.1 (    0.0 MIN)
 TOTAL WALL CLOCK TIME=        0.2 SECONDS, CPU UTILIZATION IS  80.00%

          -----------------
          MCSCF CALCULATION
          -----------------

 ----- NUCLEAR ENERGY ----- =       102.4398944836

          -----------------------     ----------------------------
          GUGA DISTINCT ROW TABLE     WRITTEN BY B.R.BROOKS,P.SAXE
          -----------------------     ----------------------------

      GROUP=C2V          NPRT=       0
       FORS=       T   INTACT=       F
       FOCI=       F   MXNINT=   50000
       SOCI=       F   MXNEME=   10000
     IEXCIT=       0

      -CORE-    -INTERNAL-  -EXTERNAL-
     NFZC=   0   NDOC=   5   NEXT=   0
     NMCC=  10   NAOS=   0   NFZV=   0
                 NBOS=   0
                 NALP=   2
                 NVAL=   3

 THE MAXIMUM ELECTRON EXCITATION WILL BE   8

 SYMMETRIES FOR THE  10 CORE,  10 ACTIVE,   0 EXTERNAL MO-S ARE
     CORE= A1    B1    A1    A1    A1    A1    B1    B2    A1    A1  

   ACTIVE= A1    A1    B1    B2    B1    A1    B2    B2    A2    B1  
           DOC   DOC   DOC   DOC   DOC   ALP   ALP   VAL   VAL   VAL 

 MOLECULAR CHARGE          =    0
 NUMBER OF ALPHA ELECTRONS =   17
 NUMBER OF  BETA ELECTRONS =   15

 THE ELECTRONIC STATE IS  3-B2  

 THE DISTINCT ROW TABLE HAS       220 ROWS.
  THE WAVEFUNCTION CONTAINS      5220 WALKS (CSF-S).

 TOTAL NUMBER OF INTEGRALS =        487
 NUMBER OF INTEGRALS/GROUP =        487
 NUMBER OF INTEGRAL GROUPS =          1
 MAXIMUM RECORD SIZES ARE    5220 FOR UNIT 11    5220 FOR UNIT 12
                            30001 FOR UNIT 15   30001 FOR UNIT 16
 ...... END OF -DRT- GENERATION ...... 
 CPU     0: STEP CPU TIME=     0.02 TOTAL CPU TIME=        0.1 (    0.0 MIN)
 TOTAL WALL CLOCK TIME=        0.2 SECONDS, CPU UTILIZATION IS  77.78%
 OPENING FILE DAFL30 WITH      81 LOGICAL RECORDS OF    4096 WORDS
 WITH A MAXIMUM OF         162 PHYSICAL RECORDS OF    2048 WORDS

 EVALUATING EXCHANGE INTEGRALS FOR DIRECT INTEGRAL TRANSFORMATION
 SCHWARZ INEQUALITY OVERHEAD:      2079 INTEGRALS, T=        0.00

          ------------------------------
          CASSCF INTEGRAL TRANSFORMATION
          ------------------------------
 AO INTEGRALS WILL BE CALCULATED IN DIRECT MODE...

 NUMBER OF CORE MOLECULAR ORBITALS     =    10
 NUMBER OF OCCUPIED MOLECULAR ORBITALS =    20
 TOTAL NUMBER OF MOLECULAR ORBITALS    =    64
 TOTAL NUMBER OF ATOMIC ORBITALS       =    64

 ----- CHOOSING THREE STEPS TRANSFORMATION -----
 NUMBER OF WORDS USED      =    1561550
 NUMBER OF WORDS AVAILABLE =    4000000
 NUMBER OF PASSES          =          1
 DIRECT TRANSFORMATION SKIPS AO INTEGRAL STORAGE ON DISK.

 ----- NUCLEAR REPULSION ENERGY =    102.43989448
 ----- FROZEN CORE ENERGY       =   -475.94565972

 ... SYMMETRY ...           CPU =    0.01
 ... (PQ|RS) -> (PQ|KL) ... CPU =    0.12
 ... (PQ|KL) -> (IJ|KL) ... CPU =    0.01

 NUMBER OF (PQ|KL) INTEGRALS WRITTEN      58260
 NUMBER OF (IJ|KL) INTEGRALS WRITTEN        424
 ..... END OF CAS INTEGRAL TRANSFORMATION .....
 CPU     0: STEP CPU TIME=     0.14 TOTAL CPU TIME=        0.3 (    0.0 MIN)
 TOTAL WALL CLOCK TIME=        0.3 SECONDS, CPU UTILIZATION IS  84.85%

          ------------------------
          GUGA-CI INTEGRAL SORTING
          ------------------------

     80301 WORDS NEEDED TO SORT            487 GUGA INTEGRALS IN MEMORY
   4000000 WORDS ARE AVAILABLE
 CHOOSING IN-MEMORY SORTING...
 IN CORE ALGORITHM SORTED             19 NON-ZERO 1E- INTEGRALS
 IN CORE ALGORITHM SORTED            424 NON-ZERO 2E- INTEGRALS
 ...... END OF INTEGRAL SORTING ...... 
 CPU     0: STEP CPU TIME=     0.00 TOTAL CPU TIME=        0.3 (    0.0 MIN)
 TOTAL WALL CLOCK TIME=        0.3 SECONDS, CPU UTILIZATION IS  82.35%

 -------------------------     ---------------------------------------
 ENERGY MATRIX CALCULATION     WRITTEN BY B.R.BROOKS,W.D.LAIDIG,P.SAXE
 -------------------------     ---------------------------------------

 COMPUTING THE HAMILTONIAN FOR THE      5220 CSF-S...

     1052847 IS THE TOTAL NUMBER OF GENERATED LOOPS
     1052847 WERE CREATED BY THE LOOP-DRIVEN ALGORITHM
           0 WERE CREATED IMPLICITLY

     1034403 IS THE TOTAL NUMBER OF PROCESSED LOOPS
       51926     DIAGONAL LOOPS ARE STORED ON WORK15 IN     6 BUFFERS OF  10000 ELEMENTS.
      982477 OFF DIAGONAL LOOPS ARE STORED ON WORK16 IN    99 BUFFERS OF  10000 ELEMENTS.
 ...... END OF ENERGY MATRIX CALCULATION ...... 
 CPU     0: STEP CPU TIME=     0.29 TOTAL CPU TIME=        0.6 (    0.0 MIN)
 TOTAL WALL CLOCK TIME=        0.6 SECONDS, CPU UTILIZATION IS  90.48%

          -----------------------------------------
          DAVIDSON METHOD CI-MATRIX DIAGONALIZATION
                   WRITTEN BY STEVE ELBERT
          -----------------------------------------
 NUMBER OF STATES REQUESTED =     4
 MAX. NUMB. OF EXPAN. VEC   =    30
 MAX. NUMB. IMPROVED STATES =     4
 MAX. NUMB. OF ITERATIONS   =    50
 CONVERGENCE CRITERION      =    1.0E-06

 CHOOSING OUT OF MEMORY STORAGE OF HAMILTONIAN,
 AND IN MEMORY STORAGE OF TRIAL VECTORS.

 NUMBER OF WORDS AVAILABLE =    4000000
 NUMBER OF WORDS USED      =     407836
 ENERGY MATRIX BUFFER SIZE =      10000

 ITER. NO.JUST IMPROVED    ENERGY AND STATE
   0  10(MAX.TOL.STATE)   -402.253211559  1   -402.066012400  2   -401.988471376  3   -401.968996708  4
   1   9  0.43404022  6   -402.338771868  1   -402.178141397  2   -402.105587217  3   -402.044683057  4
   2   8  0.19137884  6   -402.348999945  1   -402.201092664  2   -402.135215294  3   -402.064431927  4
   3   7  0.99993237  6   -402.349852093  1   -402.203817849  2   -402.138753518  3   -402.068270392  4
   4   6  0.56739231  5   -402.350039539  1   -402.204649991  2   -402.139754860  3   -402.070496985  4
   5   5  0.02529606  4   -402.350056744  1   -402.204772446  2   -402.139879910  3   -402.071006623  4
   6   4  0.01995633  4   -402.350059816  1   -402.204816522  2   -402.139904695  3   -402.071208667  4
   7   4  0.01304147  4   -402.350060346  1   -402.204833620  2   -402.139910007  3   -402.071301494  4
   8   4  0.00621362  4   -402.350060408  1   -402.204836205  2   -402.139911014  3   -402.071337534  4
   9   4  0.01037440  4   -402.350060425  1   -402.204836262  2   -402.139911455  3   -402.071370642  4
  10   4  0.00645401  4   -402.350060428  1   -402.204836476  2   -402.139911581  3   -402.071394330  4
  11   4  0.00666468  4   -402.350060428  1   -402.204837047  2   -402.139911620  3   -402.071413099  4
  12   4  0.00339761  4   -402.350060429  1   -402.204837543  2   -402.139911627  3   -402.071420520  4
  13   4  0.00232521  4   -402.350060429  1   -402.204837694  2   -402.139911629  3   -402.071424173  4
  14   4  0.00092581  4   -402.350060429  1   -402.204837724  2   -402.139911630  3   -402.071425098  4
  15   3  0.00059538  4   -402.350060429  1   -402.204837731  2   -402.139911630  3   -402.071425381  4
  16   3  0.00091725  4   -402.350060429  1   -402.204837734  2   -402.139911630  3   -402.071425693  4
  17   3  0.00036137  4   -402.350060429  1   -402.204837739  2   -402.139911630  3   -402.071425779  4
  18   3  0.00027762  4   -402.350060429  1   -402.204837740  2   -402.139911630  3   -402.071425819  4
  19   3  0.00021025  4   -402.350060429  1   -402.204837740  2   -402.139911630  3   -402.071425844  4
  20   3  0.00015431  4   -402.350060429  1   -402.204837740  2   -402.139911630  3   -402.071425858  4
  21   3  0.00012331  4   -402.350060429  1   -402.204837740  2   -402.139911630  3   -402.071425868  4
  22   2  0.00006041  4   -402.350060429  1   -402.204837740  2   -402.139911630  3   -402.071425870  4
  23   2  0.00005554  4   -402.350060429  1   -402.204837740  2   -402.139911630  3   -402.071425872  4
  24   2  0.00004698  4   -402.350060429  1   -402.204837740  2   -402.139911630  3   -402.071425873  4
  25   1  0.00002483  4   -402.350060429  1   -402.204837740  2   -402.139911630  3   -402.071425874  4
  26   1  0.00003464  4   -402.350060429  1   -402.204837740  2   -402.139911630  3   -402.071425874  4
  27   1  0.00002371  4   -402.350060429  1   -402.204837740  2   -402.139911630  3   -402.071425874  4
  28   1  0.00002295  4   -402.350060429  1   -402.204837740  2   -402.139911630  3   -402.071425875  4
  29   1  0.00001398  4   -402.350060429  1   -402.204837740  2   -402.139911630  3   -402.071425875  4
  30   1  0.00000809  4   -402.350060429  1   -402.204837740  2   -402.139911630  3   -402.071425875  4
  31   1  0.00000536  4   -402.350060429  1   -402.204837740  2   -402.139911630  3   -402.071425875  4
  32   1  0.00000288  4   -402.350060429  1   -402.204837740  2   -402.139911630  3   -402.071425875  4
  33   1  0.00000228  4   -402.350060429  1   -402.204837740  2   -402.139911630  3   -402.071425875  4
  34   1  0.00000119  4   -402.350060429  1   -402.204837740  2   -402.139911630  3   -402.071425875  4
  35   1  0.00000091  4   -402.350060429  1   -402.204837740  2   -402.139911630  3   -402.071425875  4

 STATE #    1  ENERGY =    -402.350060429

      CSF      COEF    OCCUPANCY (IGNORING CORE)
      ---      ----    --------- --------- -----
        5    0.095983  1222221000
        6    0.944023  2222211000
       14    0.050554  2211221010
       45   -0.088494  2220211020
      122   -0.051055  1222121001
      179   -0.057765  1221211011
      265   -0.051716  1221211011
      864    0.091007  2221211100
      866   -0.093795  1221221100
      892   -0.054364  1222220100
     3321   -0.067661  2220211200

 STATE #    2  ENERGY =    -402.204837740

      CSF      COEF    OCCUPANCY (IGNORING CORE)
      ---      ----    --------- --------- -----
        4   -0.588112  2122221000
        5    0.651077  1222221000
        6   -0.094170  2222211000
       12    0.060129  2211221010
       13    0.054529  2221121010
       14    0.091108  2211221010
       43    0.072379  2120221020
       44   -0.080943  1220221020
      121    0.064930  2122121001
      128   -0.085957  2212211001
      863    0.072761  2221211100
      864   -0.106530  2221211100
      865    0.108238  2121221100
      866   -0.087539  1221221100
      867   -0.136168  2221211100
      888    0.071339  2122220100
      894   -0.214012  2222210100
     3372   -0.055028  1222201200

 STATE #    3  ENERGY =    -402.139911630

      CSF      COEF    OCCUPANCY (IGNORING CORE)
      ---      ----    --------- --------- -----
        3    0.407858  2221212000
        4   -0.193560  2122221000
        5    0.083154  1222221000
        6   -0.084133  2222211000
       25    0.054809  2222120010
       38   -0.062287  2212220010
       72    0.116855  2221210020
      291    0.052994  1222210011
      863    0.137997  2221211100
      864    0.379173  2221211100
      894    0.714421  2222210100
     1089   -0.076766  2220210120
     1320   -0.059797  2222110101
     2054   -0.055669  2222110101

 STATE #    4  ENERGY =    -402.071425875

      CSF      COEF    OCCUPANCY (IGNORING CORE)
      ---      ----    --------- --------- -----
        3   -0.091040  2221212000
        4   -0.074095  2122221000
        5   -0.103353  1222221000
        9   -0.392728  2221121010
       10    0.142698  2221121010
       13    0.149133  2221121010
       25    0.798001  2222120010
       26   -0.105952  2222102010
       38   -0.139104  2212220010
      190    0.086826  2222020011
      864   -0.056409  2221211100
      888    0.080061  2122220100
      937    0.070096  2221120110
      969    0.087892  2222101110
     1019    0.078310  2221120110
 ...... END OF CI-MATRIX DIAGONALIZATION ......
 CPU     0: STEP CPU TIME=     0.64 TOTAL CPU TIME=        1.2 (    0.0 MIN)
 TOTAL WALL CLOCK TIME=        2.0 SECONDS, CPU UTILIZATION IS  61.73%

          -------------------------------------
          2-PARTICLE DENSITY MATRIX CALCULATION
          -------------------------------------
 2 BODY DENSITY IS AN AVERAGE OF  1 STATE(S).
   STATE    WEIGHT          ENERGY
     1    1.000000     -402.3500604286
      1052847 -DM2- LOOPS WERE GENERATED
      1052847 WERE CREATED BY THE LOOP-DRIVEN ALGORITHM
            0 WERE CREATED IMPLICITLY
          1 RECORDS OF LENGTH 50000 WRITTEN TO FILE 15
 ...... END OF 2-PARTICLE DENSITY MATRIX CALCULATION ......
 CPU     0: STEP CPU TIME=     0.21 TOTAL CPU TIME=        1.4 (    0.0 MIN)
 TOTAL WALL CLOCK TIME=        2.2 SECONDS, CPU UTILIZATION IS  64.84%

          ----------------------------------
          2-PARTICLE DENSITY MATRIX LABELING
          ----------------------------------
      96788 WORDS NEEDED TO LABEL DM2 MATRIX
          1 RECORDS OF LENGTH 50000  READ FROM FILE 15
          1 RECORDS OF LENGTH 15000 WRITTEN TO FILE 16
 ...... END OF 2-PARTICLE DENSITY MATRIX LABELING ......
 CPU     0: STEP CPU TIME=     0.00 TOTAL CPU TIME=        1.4 (    0.0 MIN)
 TOTAL WALL CLOCK TIME=        2.2 SECONDS, CPU UTILIZATION IS  64.25%

          --------------
          -DM2- ORDERING
          --------------
      31596 WORDS NEEDED (   4000000 AVAILABLE) TO ORDER DM2 IN MEMORY
 CHOOSING IN MEMORY ORDERING...
                               1 RECORDS OF LENGTH 15000  READ FROM FILE 16
        424 DM2 VALUES IN      1 RECORDS OF LENGTH 15000 WRITTEN TO FILE 15
 ...... END OF -DM2- ORDERING ...... 
 CPU     0: STEP CPU TIME=     0.00 TOTAL CPU TIME=        1.4 (    0.0 MIN)
 TOTAL WALL CLOCK TIME=        2.2 SECONDS, CPU UTILIZATION IS  64.25%

          --------------------------------------
          APPROXIMATE SECOND-ORDER MCSCF PROGRAM
          --------------------------------------
          PROGRAM WRITTEN BY G.CHABAN, A.MARQUEZ, AND M.DUPUIS

  NUMBER OF WORDS NEEDED     =     173884
  NUMBER AVAILABLE           =    4000000

 ----- GAMMA(IJKL)*(PQ|KL) PRODUCTS ----- CPU TIME =      0.010
 ----- ORBITAL SYMMETRY             ----- CPU TIME =      0.010
 ----- FOCK OPERATORS CONSTRUCTION  ----- CPU TIME =      0.070
 ----- WARNING : CORE-ACTIVE GAP    =    0.00188
     MICIT =   1 ASYMM =    0.000005 ROTMAX =    0.000001
 ----- EFFECTIVE FOCK + ROTATE ORBS ----- CPU TIME =      0.000
     MICIT =   2 ASYMM =    0.000001 ROTMAX =    0.000000
 ..... DONE WITH CASSCF ORBITAL UPDATE .....
 CPU     0: STEP CPU TIME=     0.10 TOTAL CPU TIME=        1.5 (    0.0 MIN)
 TOTAL WALL CLOCK TIME=        2.3 SECONDS, CPU UTILIZATION IS  65.80%

 ITER     TOTAL ENERGY      DEL(E)  LAGRANGIAN ASYMMETRY   SQCDF  MICIT   DAMP
   1     -402.350060429 -0.350060429  0.000005   22   12 5.362E-07  2   0.0000
       ----------START APPROXIMATE SECOND ORDER MCSCF----------
   2     -402.350060429 -0.000000000  0.000001   22   12 4.911E-11  1   0.0000

          --------------------
          LAGRANGIAN CONVERGED
          --------------------

 FINAL MCSCF ENERGY IS     -402.3500604286 AFTER   2 ITERATIONS

 -MCCI- BASED ON OPTIMIZED ORBITALS
 ----------------------------------

 PLEASE NOTE: IF THE ACTIVE ORBITALS ARE CANONICALIZED BELOW,
 THE FOLLOWING CI EXPANSION COEFFICIENTS AND THE DENSITY DO NOT
 CORRESPOND TO THE PRINTED ORBITALS.  THE PRINTED EXPANSIONS MATCH
 THE ORBITALS USED DURING THE LAST ITERATION.  IF YOU WISH TO SEE
 CI EXPANSIONS BASED ON THE CANONICAL (OR NATURAL) ORBITALS, YOU
 MUST RUN A CI CALCULATION WITH THAT ORBITAL CHOICE READ IN $VEC.

 STATE #    1  ENERGY =    -402.350060429

      CSF      COEF    OCCUPANCY (IGNORING CORE)
      ---      ----    --------- --------- -----
        5    0.095982  1222221000
        6    0.944023  2222211000
       14    0.050554  2211221010
       45   -0.088494  2220211020
      122   -0.051055  1222121001
      179   -0.057765  1221211011
      265   -0.051716  1221211011
      864    0.091007  2221211100
      866   -0.093795  1221221100
      892   -0.054364  1222220100
     3321   -0.067661  2220211200

 STATE #    2  ENERGY =    -402.204837551

      CSF      COEF    OCCUPANCY (IGNORING CORE)
      ---      ----    --------- --------- -----
        4   -0.588112  2122221000
        5    0.651077  1222221000
        6   -0.094170  2222211000
       12    0.060129  2211221010
       13    0.054529  2221121010
       14    0.091108  2211221010
       43    0.072379  2120221020
       44   -0.080943  1220221020
      121    0.064930  2122121001
      128   -0.085957  2212211001
      863    0.072761  2221211100
      864   -0.106530  2221211100
      865    0.108238  2121221100
      866   -0.087539  1221221100
      867   -0.136168  2221211100
      888    0.071339  2122220100
      894   -0.214013  2222210100
     3372   -0.055028  1222201200

 STATE #    3  ENERGY =    -402.139911614

      CSF      COEF    OCCUPANCY (IGNORING CORE)
      ---      ----    --------- --------- -----
        3    0.407857  2221212000
        4   -0.193560  2122221000
        5    0.083155  1222221000
        6   -0.084133  2222211000
       25    0.054809  2222120010
       38   -0.062287  2212220010
       72    0.116855  2221210020
      291    0.052995  1222210011
      863    0.137997  2221211100
      864    0.379172  2221211100
      894    0.714421  2222210100
     1089   -0.076766  2220210120
     1320   -0.059797  2222110101
     2054   -0.055669  2222110101

 STATE #    4  ENERGY =    -402.071426040

      CSF      COEF    OCCUPANCY (IGNORING CORE)
      ---      ----    --------- --------- -----
        3   -0.091039  2221212000
        4   -0.074095  2122221000
        5   -0.103353  1222221000
        9   -0.392727  2221121010
       10    0.142698  2221121010
       13    0.149133  2221121010
       25    0.798002  2222120010
       26   -0.105952  2222102010
       38   -0.139104  2212220010
      190    0.086826  2222020011
      864   -0.056409  2221211100
      888    0.080062  2122220100
      937    0.070097  2221120110
      969    0.087892  2222101110
     1019    0.078310  2221120110

 DENSITY MATRIX OVER ACTIVE MO-S

             1           2           3           4           5

    1    1.9510353
    2   -0.0204265   1.9824344
    3    0.0000000   0.0000000   1.9775930
    4    0.0000000   0.0000000   0.0000000   1.9220912
    5    0.0000000   0.0000000  -0.0010346   0.0000000   1.9835839
    6    0.0986752   0.0429623   0.0000000   0.0000000   0.0000000
    7    0.0000000   0.0000000   0.0000000   0.0458657   0.0000000
    8    0.0000000   0.0000000   0.0000000  -0.0176616   0.0000000
    9    0.0000000   0.0000000   0.0000000   0.0000000   0.0000000
   10    0.0000000   0.0000000  -0.0132118   0.0000000   0.0442354

             6           7           8           9          10

    6    1.0289641
    7    0.0000000   0.9971471
    8    0.0000000  -0.0382359   0.0558097
    9    0.0000000   0.0000000   0.0000000   0.0531782
   10    0.0000000   0.0000000   0.0000000   0.0000000   0.0481630

 FORMING THE "STANDARD FOCK OPERATOR" IN DIRECT AO INTEGRAL MODE...
    10 FILLED,   10 ACTIVE, AND   44 VIRTUAL ORBITALS  WILL BE CANONICALIZED

          ----------------------
          MCSCF NATURAL ORBITALS
          ----------------------

                      1          2          3          4          5
                  -68.8021   -11.3104   -11.3095   -11.3001    -6.1530
                     A1         B1         A1         A1         A1  
    1  C  1  S    0.000003   0.000000   0.301120   0.949685  -0.000050
    2  C  1  S   -0.000009   0.000000   0.010268   0.024269   0.000063
    3  C  1  X    0.000000   0.000835  -0.000000  -0.000000   0.000000
    4  C  1  Y    0.000000   0.000000  -0.000000  -0.000000   0.000000
    5  C  1  Z    0.000004   0.000000  -0.001590  -0.001745   0.000077
    6  C  1  S    0.000019   0.000000   0.001330  -0.017711  -0.000168
    7  C  1  X    0.000000  -0.001718  -0.000000  -0.000000   0.000000
    8  C  1  Y    0.000000   0.000000  -0.000000  -0.000000   0.000000
    9  C  1  Z    0.000025   0.000000  -0.000819   0.005315  -0.000114
   10  C  1 XX    0.000055   0.000000  -0.001170  -0.001669  -0.000051
   11  C  1 YY   -0.000005   0.000000  -0.000807  -0.002256   0.000017
   12  C  1 ZZ   -0.000012   0.000000  -0.001125  -0.000927   0.000061
   13  C  1 XY    0.000000   0.000000  -0.000000  -0.000000   0.000000
   14  C  1 XZ    0.000000  -0.000783  -0.000000  -0.000000   0.000000
   15  C  1 YZ    0.000000   0.000000  -0.000000  -0.000000   0.000000
   16  C  2  S    0.000012   0.706193   0.672601  -0.215293  -0.000117
   17  C  2  S    0.000121   0.014544   0.014362  -0.003530   0.000251
   18  C  2  X   -0.000029   0.003730   0.002790  -0.000985  -0.000185
   19  C  2  Y    0.000000   0.000000  -0.000000  -0.000000   0.000000
   20  C  2  Z    0.000061   0.003086   0.004820  -0.003724  -0.000067
   21  C  2  S    0.000043  -0.016616  -0.010536   0.010561  -0.000435
   22  C  2  X    0.000065  -0.002706   0.000309   0.001066  -0.000322
   23  C  2  Y    0.000000   0.000000  -0.000000  -0.000000   0.000000
   24  C  2  Z   -0.000170   0.001161   0.001812   0.001414   0.000836
   25  C  2 XX   -0.000010   0.000022  -0.001483   0.000297   0.000002
   26  C  2 YY    0.000017  -0.001523  -0.001547   0.000374   0.000039
   27  C  2 ZZ   -0.000134  -0.000893  -0.000845  -0.000135  -0.000052
   28  C  2 XY    0.000000   0.000000  -0.000000  -0.000000   0.000000
   29  C  2 XZ    0.000068   0.000454   0.000819  -0.000675   0.000029
   30  C  2 YZ    0.000000   0.000000  -0.000000  -0.000000   0.000000
   31  C  3  S    0.000012  -0.706193   0.672601  -0.215293  -0.000117
   32  C  3  S    0.000121  -0.014544   0.014362  -0.003530   0.000251
   33  C  3  X    0.000029   0.003730  -0.002790   0.000985   0.000185
   34  C  3  Y    0.000000   0.000000  -0.000000  -0.000000   0.000000
   35  C  3  Z    0.000061  -0.003086   0.004820  -0.003724  -0.000067
   36  C  3  S    0.000043   0.016616  -0.010536   0.010561  -0.000435
   37  C  3  X   -0.000065  -0.002706  -0.000309  -0.001066   0.000322
   38  C  3  Y    0.000000   0.000000  -0.000000  -0.000000   0.000000
   39  C  3  Z   -0.000170  -0.001161   0.001812   0.001414   0.000836
   40  C  3 XX   -0.000010  -0.000022  -0.001483   0.000297   0.000002
   41  C  3 YY    0.000017   0.001523  -0.001547   0.000374   0.000039
   42  C  3 ZZ   -0.000134   0.000893  -0.000845  -0.000135  -0.000052
   43  C  3 XY    0.000000   0.000000  -0.000000  -0.000000   0.000000
   44  C  3 XZ   -0.000068   0.000454  -0.000819   0.000675  -0.000029
   45  C  3 YZ    0.000000   0.000000  -0.000000  -0.000000   0.000000
   46  SI 4  S    0.996876   0.000000   0.000160  -0.000103  -0.268337
   47  SI 4  S    0.012408   0.000000  -0.000679   0.000443   1.031232
   48  SI 4  X    0.000000  -0.001281  -0.000000  -0.000000   0.000000
   49  SI 4  Y    0.000000   0.000000  -0.000000  -0.000000   0.000000
   50  SI 4  Z    0.000090   0.000000   0.002446  -0.001714   0.008153
   51  SI 4  S   -0.016817   0.000000   0.003663  -0.002253   0.002309
   52  SI 4  X    0.000000   0.002692  -0.000000  -0.000000   0.000000
   53  SI 4  Y    0.000000   0.000000  -0.000000  -0.000000   0.000000
   54  SI 4  Z   -0.000110   0.000000  -0.005526   0.003972   0.002071
   55  SI 4  S    0.001899   0.000000   0.005514  -0.002470  -0.000827
   56  SI 4  X    0.000000   0.000195  -0.000000  -0.000000   0.000000
   57  SI 4  Y    0.000000   0.000000  -0.000000  -0.000000   0.000000
   58  SI 4  Z   -0.000041   0.000000   0.000246   0.000780  -0.000202
   59  SI 4 XX    0.005910   0.000000  -0.000238   0.000147   0.003127
   60  SI 4 YY    0.005908   0.000000   0.000532  -0.000573   0.002784
   61  SI 4 ZZ    0.005910   0.000000  -0.001457   0.000923   0.003795
   62  SI 4 XY    0.000000   0.000000  -0.000000  -0.000000   0.000000
   63  SI 4 XZ    0.000000   0.001072  -0.000000  -0.000000   0.000000
   64  SI 4 YZ    0.000000   0.000000  -0.000000  -0.000000   0.000000

                      6          7          8          9         10
                   -4.2542    -4.2536    -4.2528    -1.2183    -0.5947
                     A1         B1         B2         A1         A1  
    1  C  1  S   -0.000168   0.000000   0.000000  -0.144839   0.017914
    2  C  1  S    0.000107   0.000000   0.000000   0.281204  -0.034756
    3  C  1  X    0.000000   0.000031   0.000000  -0.000000   0.000000
    4  C  1  Y    0.000000   0.000000  -0.000132  -0.000000   0.000000
    5  C  1  Z   -0.000068   0.000000   0.000000  -0.226849   0.058376
    6  C  1  S    0.001407   0.000000   0.000000   0.153946  -0.003392
    7  C  1  X    0.000000  -0.001775   0.000000  -0.000000   0.000000
    8  C  1  Y    0.000000   0.000000   0.000674  -0.000000   0.000000
    9  C  1  Z   -0.000902   0.000000   0.000000  -0.044915   0.020430
   10  C  1 XX   -0.000227   0.000000   0.000000  -0.006927   0.001792
   11  C  1 YY    0.000027   0.000000   0.000000  -0.014590   0.003434
   12  C  1 ZZ    0.000219   0.000000   0.000000   0.024829  -0.005516
   13  C  1 XY    0.000000   0.000000   0.000000  -0.000000   0.000000
   14  C  1 XZ    0.000000   0.000090   0.000000  -0.000000   0.000000
   15  C  1 YZ    0.000000   0.000000  -0.000078  -0.000000   0.000000
   16  C  2  S   -0.000339   0.000140   0.000000  -0.099753  -0.011389
   17  C  2  S    0.000052  -0.000402   0.000000   0.194859   0.017903
   18  C  2  X   -0.000168  -0.000059   0.000000   0.191357  -0.031790
   19  C  2  Y    0.000000   0.000000   0.000046  -0.000000   0.000000
   20  C  2  Z   -0.000207   0.000449   0.000000   0.141081  -0.085907
   21  C  2  S   -0.002263   0.001932   0.000000   0.046174  -0.008742
   22  C  2  X   -0.001011   0.001649   0.000000   0.037328  -0.006822
   23  C  2  Y    0.000000   0.000000  -0.000410  -0.000000   0.000000
   24  C  2  Z    0.001750  -0.002956   0.000000   0.016080  -0.003114
   25  C  2 XX    0.000022  -0.000033   0.000000   0.017844  -0.003861
   26  C  2 YY   -0.000077  -0.000101   0.000000  -0.014105  -0.000022
   27  C  2 ZZ    0.000397  -0.000156   0.000000  -0.000784   0.008402
   28  C  2 XY    0.000000   0.000000  -0.000063  -0.000000   0.000000
   29  C  2 XZ   -0.000262   0.000067   0.000000   0.017031  -0.007881
   30  C  2 YZ    0.000000   0.000000   0.000127  -0.000000   0.000000
   31  C  3  S   -0.000339  -0.000140   0.000000  -0.099753  -0.011389
   32  C  3  S    0.000052   0.000402   0.000000   0.194859   0.017903
   33  C  3  X    0.000168  -0.000059   0.000000  -0.191357   0.031790
   34  C  3  Y    0.000000   0.000000   0.000046  -0.000000   0.000000
   35  C  3  Z   -0.000207  -0.000449   0.000000   0.141081  -0.085907
   36  C  3  S   -0.002263  -0.001932   0.000000   0.046174  -0.008742
   37  C  3  X    0.001011   0.001649   0.000000  -0.037328   0.006822
   38  C  3  Y    0.000000   0.000000  -0.000410  -0.000000   0.000000
   39  C  3  Z    0.001750   0.002956   0.000000   0.016080  -0.003114
   40  C  3 XX    0.000022   0.000033   0.000000   0.017844  -0.003861
   41  C  3 YY   -0.000077   0.000101   0.000000  -0.014105  -0.000022
   42  C  3 ZZ    0.000397   0.000156   0.000000  -0.000784   0.008402
   43  C  3 XY    0.000000   0.000000   0.000063  -0.000000   0.000000
   44  C  3 XZ    0.000262   0.000067   0.000000  -0.017031   0.007881
   45  C  3 YZ    0.000000   0.000000   0.000127  -0.000000   0.000000
   46  SI 4  S    0.002563   0.000000   0.000000   0.005910   0.061928
   47  SI 4  S   -0.010190   0.000000   0.000000  -0.028482  -0.300142
   48  SI 4  X    0.000000   0.994747   0.000000  -0.000000   0.000000
   49  SI 4  Y    0.000000   0.000000   0.995169  -0.000000   0.000000
   50  SI 4  Z    0.994792   0.000000   0.000000   0.003568   0.033868
   51  SI 4  S    0.008569   0.000000   0.000000   0.057676   0.680437
   52  SI 4  X    0.000000   0.020606   0.000000  -0.000000   0.000000
   53  SI 4  Y    0.000000   0.000000   0.018350  -0.000000   0.000000
   54  SI 4  Z    0.020637   0.000000   0.000000  -0.028864  -0.112501
   55  SI 4  S    0.001397   0.000000   0.000000   0.010475   0.341796
   56  SI 4  X    0.000000  -0.004386   0.000000  -0.000000   0.000000
   57  SI 4  Y    0.000000   0.000000  -0.004020  -0.000000   0.000000
   58  SI 4  Z   -0.003462   0.000000   0.000000  -0.036383  -0.073804
   59  SI 4 XX   -0.002894   0.000000   0.000000  -0.005798   0.001788
   60  SI 4 YY   -0.003205   0.000000   0.000000   0.002251   0.006605
   61  SI 4 ZZ    0.000119   0.000000   0.000000   0.007744   0.007416
   62  SI 4 XY    0.000000   0.000000   0.000000  -0.000000   0.000000
   63  SI 4 XZ    0.000000   0.001749   0.000000  -0.000000   0.000000
   64  SI 4 YZ    0.000000   0.000000   0.000969  -0.000000   0.000000

                     11         12         13         14         15
                    1.9925     1.9848     1.9774     1.9535     1.9246
                     A1         B1         B1         A1         B2  
    1  C  1  S    0.060818   0.000000   0.000000  -0.096606  -0.000000
    2  C  1  S   -0.152111   0.000000   0.000000   0.170082  -0.000000
    3  C  1  X    0.000000  -0.238335   0.378242  -0.000000  -0.000000
    4  C  1  Y    0.000000   0.000000   0.000000  -0.000000   0.330214
    5  C  1  Z    0.053838   0.000000   0.000000   0.218107  -0.000000
    6  C  1  S   -0.201984   0.000000   0.000000   0.351730  -0.000000
    7  C  1  X    0.000000  -0.092076   0.118285  -0.000000  -0.000000
    8  C  1  Y    0.000000   0.000000   0.000000  -0.000000   0.161204
    9  C  1  Z    0.052201   0.000000   0.000000   0.069302  -0.000000
   10  C  1 XX   -0.000754   0.000000   0.000000   0.020732  -0.000000
   11  C  1 YY    0.002504   0.000000   0.000000   0.001436  -0.000000
   12  C  1 ZZ    0.002662   0.000000   0.000000  -0.031727  -0.000000
   13  C  1 XY    0.000000   0.000000   0.000000  -0.000000  -0.000000
   14  C  1 XZ    0.000000   0.014499  -0.037303  -0.000000  -0.000000
   15  C  1 YZ    0.000000   0.000000   0.000000  -0.000000  -0.034178
   16  C  2  S   -0.083620   0.067726   0.119527  -0.034809  -0.000000
   17  C  2  S    0.189740  -0.149125  -0.259567   0.059748  -0.000000
   18  C  2  X   -0.004459   0.104770   0.052509  -0.342788  -0.000000
   19  C  2  Y    0.000000   0.000000   0.000000  -0.000000   0.306525
   20  C  2  Z   -0.249799   0.300266  -0.163308   0.053013  -0.000000
   21  C  2  S    0.287300  -0.294259  -0.311578   0.151503  -0.000000
   22  C  2  X   -0.022320   0.054398  -0.000109  -0.185073  -0.000000
   23  C  2  Y    0.000000   0.000000   0.000000  -0.000000   0.182687
   24  C  2  Z   -0.070412   0.196066  -0.059931   0.022035  -0.000000
   25  C  2 XX    0.009590   0.006802   0.017190  -0.032219  -0.000000
   26  C  2 YY   -0.001358  -0.003131   0.005243   0.008416  -0.000000
   27  C  2 ZZ   -0.005827  -0.001894  -0.018105   0.019080  -0.000000
   28  C  2 XY    0.000000   0.000000   0.000000  -0.000000   0.035309
   29  C  2 XZ   -0.024171   0.005171  -0.005123   0.001682  -0.000000
   30  C  2 YZ    0.000000   0.000000   0.000000  -0.000000   0.011420
   31  C  3  S   -0.083620  -0.067726  -0.119527  -0.034809  -0.000000
   32  C  3  S    0.189740   0.149125   0.259567   0.059748  -0.000000
   33  C  3  X    0.004459   0.104770   0.052509   0.342788  -0.000000
   34  C  3  Y    0.000000   0.000000   0.000000  -0.000000   0.306525
   35  C  3  Z   -0.249799  -0.300266   0.163308   0.053013  -0.000000
   36  C  3  S    0.287300   0.294259   0.311578   0.151503  -0.000000
   37  C  3  X    0.022320   0.054398  -0.000109   0.185073  -0.000000
   38  C  3  Y    0.000000   0.000000   0.000000  -0.000000   0.182687
   39  C  3  Z   -0.070412  -0.196066   0.059931   0.022035  -0.000000
   40  C  3 XX    0.009590  -0.006802  -0.017190  -0.032219  -0.000000
   41  C  3 YY   -0.001358   0.003131  -0.005243   0.008416  -0.000000
   42  C  3 ZZ   -0.005827   0.001894   0.018105   0.019080  -0.000000
   43  C  3 XY    0.000000   0.000000   0.000000  -0.000000  -0.035309
   44  C  3 XZ    0.024171   0.005171  -0.005123  -0.001682  -0.000000
   45  C  3 YZ    0.000000   0.000000   0.000000  -0.000000   0.011420
   46  SI 4  S   -0.008282   0.000000   0.000000  -0.005405  -0.000000
   47  SI 4  S    0.038521   0.000000   0.000000   0.023481  -0.000000
   48  SI 4  X    0.000000  -0.099222  -0.009446  -0.000000  -0.000000
   49  SI 4  Y    0.000000   0.000000   0.000000  -0.000000  -0.043727
   50  SI 4  Z   -0.135552   0.000000   0.000000   0.002162  -0.000000
   51  SI 4  S   -0.153758   0.000000   0.000000  -0.077661  -0.000000
   52  SI 4  X    0.000000   0.237163   0.017473  -0.000000  -0.000000
   53  SI 4  Y    0.000000   0.000000   0.000000  -0.000000   0.108688
   54  SI 4  Z    0.337668   0.000000   0.000000   0.005702  -0.000000
   55  SI 4  S   -0.197760   0.000000   0.000000   0.053069  -0.000000
   56  SI 4  X    0.000000   0.041270  -0.002656  -0.000000  -0.000000
   57  SI 4  Y    0.000000   0.000000   0.000000  -0.000000   0.028058
   58  SI 4  Z    0.061540   0.000000   0.000000   0.074621  -0.000000
   59  SI 4 XX   -0.010088   0.000000   0.000000   0.025640  -0.000000
   60  SI 4 YY   -0.041572   0.000000   0.000000  -0.000138  -0.000000
   61  SI 4 ZZ    0.074828   0.000000   0.000000  -0.017992  -0.000000
   62  SI 4 XY    0.000000   0.000000   0.000000  -0.000000  -0.000000
   63  SI 4 XZ    0.000000   0.083318   0.013839  -0.000000  -0.000000
   64  SI 4 YZ    0.000000   0.000000   0.000000  -0.000000   0.032597

                     16         17         18         19         20
                    1.0164     0.9964     0.0541     0.0532     0.0471
                     A1         B2         B2         A2         B1  
    1  C  1  S   -0.112650   0.000000   0.000000  -0.000000  -0.000000
    2  C  1  S    0.259366   0.000000   0.000000  -0.000000  -0.000000
    3  C  1  X    0.000000   0.000000   0.000000  -0.000000   0.544526
    4  C  1  Y    0.000000  -0.264247   0.668951  -0.000000  -0.000000
    5  C  1  Z    0.410299   0.000000   0.000000  -0.000000  -0.000000
    6  C  1  S    0.362972   0.000000   0.000000  -0.000000  -0.000000
    7  C  1  X    0.000000   0.000000   0.000000  -0.000000   0.282262
    8  C  1  Y    0.000000  -0.246870   0.294919  -0.000000  -0.000000
    9  C  1  Z    0.292997   0.000000   0.000000  -0.000000  -0.000000
   10  C  1 XX   -0.021362   0.000000   0.000000  -0.000000  -0.000000
   11  C  1 YY    0.008454   0.000000   0.000000  -0.000000  -0.000000
   12  C  1 ZZ    0.000998   0.000000   0.000000  -0.000000  -0.000000
   13  C  1 XY    0.000000   0.000000   0.000000  -0.043599  -0.000000
   14  C  1 XZ    0.000000   0.000000   0.000000  -0.000000  -0.007806
   15  C  1 YZ    0.000000   0.008118   0.045026  -0.000000  -0.000000
   16  C  2  S    0.050584   0.000000   0.000000  -0.000000  -0.020187
   17  C  2  S   -0.117863   0.000000   0.000000  -0.000000   0.142431
   18  C  2  X    0.190346   0.000000   0.000000  -0.000000  -0.448919
   19  C  2  Y    0.000000  -0.001404  -0.350163   0.567949  -0.000000
   20  C  2  Z   -0.164850   0.000000   0.000000  -0.000000   0.280228
   21  C  2  S   -0.120731   0.000000   0.000000  -0.000000   0.002183
   22  C  2  X    0.155082   0.000000   0.000000  -0.000000  -0.205055
   23  C  2  Y    0.000000   0.021263  -0.249111   0.315029  -0.000000
   24  C  2  Z   -0.062871   0.000000   0.000000  -0.000000   0.232133
   25  C  2 XX    0.008125   0.000000   0.000000  -0.000000   0.020564
   26  C  2 YY   -0.002384   0.000000   0.000000  -0.000000  -0.002216
   27  C  2 ZZ    0.004227   0.000000   0.000000  -0.000000  -0.057799
   28  C  2 XY    0.000000  -0.001941  -0.009156  -0.028522  -0.000000
   29  C  2 XZ   -0.014611   0.000000   0.000000  -0.000000  -0.022250
   30  C  2 YZ    0.000000  -0.024200   0.021016   0.012238  -0.000000
   31  C  3  S    0.050584   0.000000   0.000000  -0.000000   0.020187
   32  C  3  S   -0.117863   0.000000   0.000000  -0.000000  -0.142431
   33  C  3  X   -0.190346   0.000000   0.000000  -0.000000  -0.448919
   34  C  3  Y    0.000000  -0.001404  -0.350163  -0.567949  -0.000000
   35  C  3  Z   -0.164850   0.000000   0.000000  -0.000000  -0.280228
   36  C  3  S   -0.120731   0.000000   0.000000  -0.000000  -0.002183
   37  C  3  X   -0.155082   0.000000   0.000000  -0.000000  -0.205055
   38  C  3  Y    0.000000   0.021263  -0.249111  -0.315029  -0.000000
   39  C  3  Z   -0.062871   0.000000   0.000000  -0.000000  -0.232133
   40  C  3 XX    0.008125   0.000000   0.000000  -0.000000  -0.020564
   41  C  3 YY   -0.002384   0.000000   0.000000  -0.000000   0.002216
   42  C  3 ZZ    0.004227   0.000000   0.000000  -0.000000   0.057799
   43  C  3 XY    0.000000   0.001941   0.009156  -0.028522  -0.000000
   44  C  3 XZ    0.014611   0.000000   0.000000  -0.000000  -0.022250
   45  C  3 YZ    0.000000  -0.024200   0.021016  -0.012238  -0.000000
   46  SI 4  S    0.003131   0.000000   0.000000  -0.000000  -0.000000
   47  SI 4  S   -0.011719   0.000000   0.000000  -0.000000  -0.000000
   48  SI 4  X    0.000000   0.000000   0.000000  -0.000000  -0.082433
   49  SI 4  Y    0.000000  -0.206676  -0.095627  -0.000000  -0.000000
   50  SI 4  Z   -0.056641   0.000000   0.000000  -0.000000  -0.000000
   51  SI 4  S    0.043578   0.000000   0.000000  -0.000000  -0.000000
   52  SI 4  X    0.000000   0.000000   0.000000  -0.000000   0.221867
   53  SI 4  Y    0.000000   0.617869   0.326256  -0.000000  -0.000000
   54  SI 4  Z    0.154310   0.000000   0.000000  -0.000000  -0.000000
   55  SI 4  S   -0.102824   0.000000   0.000000  -0.000000  -0.000000
   56  SI 4  X    0.000000   0.000000   0.000000  -0.000000   0.023812
   57  SI 4  Y    0.000000   0.400252   0.209397  -0.000000  -0.000000
   58  SI 4  Z   -0.007240   0.000000   0.000000  -0.000000  -0.000000
   59  SI 4 XX   -0.022356   0.000000   0.000000  -0.000000  -0.000000
   60  SI 4 YY   -0.014549   0.000000   0.000000  -0.000000  -0.000000
   61  SI 4 ZZ    0.041688   0.000000   0.000000  -0.000000  -0.000000
   62  SI 4 XY    0.000000   0.000000   0.000000  -0.019186  -0.000000
   63  SI 4 XZ    0.000000   0.000000   0.000000  -0.000000   0.085320
   64  SI 4 YZ    0.000000   0.037698  -0.006261  -0.000000  -0.000000

          ------------------------
          MCSCF OPTIMIZED ORBITALS
          ------------------------

                      1          2          3          4          5
                  -68.8021   -11.3104   -11.3095   -11.3001    -6.1530
                     A1         B1         A1         A1         A1  
    1  C  1  S    0.000003   0.000000   0.301120   0.949685  -0.000050
    2  C  1  S   -0.000009   0.000000   0.010268   0.024269   0.000063
    3  C  1  X    0.000000   0.000835  -0.000000  -0.000000   0.000000
    4  C  1  Y    0.000000   0.000000  -0.000000  -0.000000   0.000000
    5  C  1  Z    0.000004   0.000000  -0.001590  -0.001745   0.000077
    6  C  1  S    0.000019   0.000000   0.001330  -0.017711  -0.000168
    7  C  1  X    0.000000  -0.001718  -0.000000  -0.000000   0.000000
    8  C  1  Y    0.000000   0.000000  -0.000000  -0.000000   0.000000
    9  C  1  Z    0.000025   0.000000  -0.000819   0.005315  -0.000114
   10  C  1 XX    0.000055   0.000000  -0.001170  -0.001669  -0.000051
   11  C  1 YY   -0.000005   0.000000  -0.000807  -0.002256   0.000017
   12  C  1 ZZ   -0.000012   0.000000  -0.001125  -0.000927   0.000061
   13  C  1 XY    0.000000   0.000000  -0.000000  -0.000000   0.000000
   14  C  1 XZ    0.000000  -0.000783  -0.000000  -0.000000   0.000000
   15  C  1 YZ    0.000000   0.000000  -0.000000  -0.000000   0.000000
   16  C  2  S    0.000012   0.706193   0.672601  -0.215293  -0.000117
   17  C  2  S    0.000121   0.014544   0.014362  -0.003530   0.000251
   18  C  2  X   -0.000029   0.003730   0.002790  -0.000985  -0.000185
   19  C  2  Y    0.000000   0.000000  -0.000000  -0.000000   0.000000
   20  C  2  Z    0.000061   0.003086   0.004820  -0.003724  -0.000067
   21  C  2  S    0.000043  -0.016616  -0.010536   0.010561  -0.000435
   22  C  2  X    0.000065  -0.002706   0.000309   0.001066  -0.000322
   23  C  2  Y    0.000000   0.000000  -0.000000  -0.000000   0.000000
   24  C  2  Z   -0.000170   0.001161   0.001812   0.001414   0.000836
   25  C  2 XX   -0.000010   0.000022  -0.001483   0.000297   0.000002
   26  C  2 YY    0.000017  -0.001523  -0.001547   0.000374   0.000039
   27  C  2 ZZ   -0.000134  -0.000893  -0.000845  -0.000135  -0.000052
   28  C  2 XY    0.000000   0.000000  -0.000000  -0.000000   0.000000
   29  C  2 XZ    0.000068   0.000454   0.000819  -0.000675   0.000029
   30  C  2 YZ    0.000000   0.000000  -0.000000  -0.000000   0.000000
   31  C  3  S    0.000012  -0.706193   0.672601  -0.215293  -0.000117
   32  C  3  S    0.000121  -0.014544   0.014362  -0.003530   0.000251
   33  C  3  X    0.000029   0.003730  -0.002790   0.000985   0.000185
   34  C  3  Y    0.000000   0.000000  -0.000000  -0.000000   0.000000
   35  C  3  Z    0.000061  -0.003086   0.004820  -0.003724  -0.000067
   36  C  3  S    0.000043   0.016616  -0.010536   0.010561  -0.000435
   37  C  3  X   -0.000065  -0.002706  -0.000309  -0.001066   0.000322
   38  C  3  Y    0.000000   0.000000  -0.000000  -0.000000   0.000000
   39  C  3  Z   -0.000170  -0.001161   0.001812   0.001414   0.000836
   40  C  3 XX   -0.000010  -0.000022  -0.001483   0.000297   0.000002
   41  C  3 YY    0.000017   0.001523  -0.001547   0.000374   0.000039
   42  C  3 ZZ   -0.000134   0.000893  -0.000845  -0.000135  -0.000052
   43  C  3 XY    0.000000   0.000000  -0.000000  -0.000000   0.000000
   44  C  3 XZ   -0.000068   0.000454  -0.000819   0.000675  -0.000029
   45  C  3 YZ    0.000000   0.000000  -0.000000  -0.000000   0.000000
   46  SI 4  S    0.996876   0.000000   0.000160  -0.000103  -0.268337
   47  SI 4  S    0.012408   0.000000  -0.000679   0.000443   1.031232
   48  SI 4  X    0.000000  -0.001281  -0.000000  -0.000000   0.000000
   49  SI 4  Y    0.000000   0.000000  -0.000000  -0.000000   0.000000
   50  SI 4  Z    0.000090   0.000000   0.002446  -0.001714   0.008153
   51  SI 4  S   -0.016817   0.000000   0.003663  -0.002253   0.002309
   52  SI 4  X    0.000000   0.002692  -0.000000  -0.000000   0.000000
   53  SI 4  Y    0.000000   0.000000  -0.000000  -0.000000   0.000000
   54  SI 4  Z   -0.000110   0.000000  -0.005526   0.003972   0.002071
   55  SI 4  S    0.001899   0.000000   0.005514  -0.002470  -0.000827
   56  SI 4  X    0.000000   0.000195  -0.000000  -0.000000   0.000000
   57  SI 4  Y    0.000000   0.000000  -0.000000  -0.000000   0.000000
   58  SI 4  Z   -0.000041   0.000000   0.000246   0.000780  -0.000202
   59  SI 4 XX    0.005910   0.000000  -0.000238   0.000147   0.003127
   60  SI 4 YY    0.005908   0.000000   0.000532  -0.000573   0.002784
   61  SI 4 ZZ    0.005910   0.000000  -0.001457   0.000923   0.003795
   62  SI 4 XY    0.000000   0.000000  -0.000000  -0.000000   0.000000
   63  SI 4 XZ    0.000000   0.001072  -0.000000  -0.000000   0.000000
   64  SI 4 YZ    0.000000   0.000000  -0.000000  -0.000000   0.000000

                      6          7          8          9         10
                   -4.2542    -4.2536    -4.2528    -1.2183    -0.5947
                     A1         B1         B2         A1         A1  
    1  C  1  S   -0.000168   0.000000   0.000000  -0.144839   0.017914
    2  C  1  S    0.000107   0.000000   0.000000   0.281204  -0.034756
    3  C  1  X    0.000000   0.000031   0.000000  -0.000000   0.000000
    4  C  1  Y    0.000000   0.000000  -0.000132  -0.000000   0.000000
    5  C  1  Z   -0.000068   0.000000   0.000000  -0.226849   0.058376
    6  C  1  S    0.001407   0.000000   0.000000   0.153946  -0.003392
    7  C  1  X    0.000000  -0.001775   0.000000  -0.000000   0.000000
    8  C  1  Y    0.000000   0.000000   0.000674  -0.000000   0.000000
    9  C  1  Z   -0.000902   0.000000   0.000000  -0.044915   0.020430
   10  C  1 XX   -0.000227   0.000000   0.000000  -0.006927   0.001792
   11  C  1 YY    0.000027   0.000000   0.000000  -0.014590   0.003434
   12  C  1 ZZ    0.000219   0.000000   0.000000   0.024829  -0.005516
   13  C  1 XY    0.000000   0.000000   0.000000  -0.000000   0.000000
   14  C  1 XZ    0.000000   0.000090   0.000000  -0.000000   0.000000
   15  C  1 YZ    0.000000   0.000000  -0.000078  -0.000000   0.000000
   16  C  2  S   -0.000339   0.000140   0.000000  -0.099753  -0.011389
   17  C  2  S    0.000052  -0.000402   0.000000   0.194859   0.017903
   18  C  2  X   -0.000168  -0.000059   0.000000   0.191357  -0.031790
   19  C  2  Y    0.000000   0.000000   0.000046  -0.000000   0.000000
   20  C  2  Z   -0.000207   0.000449   0.000000   0.141081  -0.085907
   21  C  2  S   -0.002263   0.001932   0.000000   0.046174  -0.008742
   22  C  2  X   -0.001011   0.001649   0.000000   0.037328  -0.006822
   23  C  2  Y    0.000000   0.000000  -0.000410  -0.000000   0.000000
   24  C  2  Z    0.001750  -0.002956   0.000000   0.016080  -0.003114
   25  C  2 XX    0.000022  -0.000033   0.000000   0.017844  -0.003861
   26  C  2 YY   -0.000077  -0.000101   0.000000  -0.014105  -0.000022
   27  C  2 ZZ    0.000397  -0.000156   0.000000  -0.000784   0.008402
   28  C  2 XY    0.000000   0.000000  -0.000063  -0.000000   0.000000
   29  C  2 XZ   -0.000262   0.000067   0.000000   0.017031  -0.007881
   30  C  2 YZ    0.000000   0.000000   0.000127  -0.000000   0.000000
   31  C  3  S   -0.000339  -0.000140   0.000000  -0.099753  -0.011389
   32  C  3  S    0.000052   0.000402   0.000000   0.194859   0.017903
   33  C  3  X    0.000168  -0.000059   0.000000  -0.191357   0.031790
   34  C  3  Y    0.000000   0.000000   0.000046  -0.000000   0.000000
   35  C  3  Z   -0.000207  -0.000449   0.000000   0.141081  -0.085907
   36  C  3  S   -0.002263  -0.001932   0.000000   0.046174  -0.008742
   37  C  3  X    0.001011   0.001649   0.000000  -0.037328   0.006822
   38  C  3  Y    0.000000   0.000000  -0.000410  -0.000000   0.000000
   39  C  3  Z    0.001750   0.002956   0.000000   0.016080  -0.003114
   40  C  3 XX    0.000022   0.000033   0.000000   0.017844  -0.003861
   41  C  3 YY   -0.000077   0.000101   0.000000  -0.014105  -0.000022
   42  C  3 ZZ    0.000397   0.000156   0.000000  -0.000784   0.008402
   43  C  3 XY    0.000000   0.000000   0.000063  -0.000000   0.000000
   44  C  3 XZ    0.000262   0.000067   0.000000  -0.017031   0.007881
   45  C  3 YZ    0.000000   0.000000   0.000127  -0.000000   0.000000
   46  SI 4  S    0.002563   0.000000   0.000000   0.005910   0.061928
   47  SI 4  S   -0.010190   0.000000   0.000000  -0.028482  -0.300142
   48  SI 4  X    0.000000   0.994747   0.000000  -0.000000   0.000000
   49  SI 4  Y    0.000000   0.000000   0.995169  -0.000000   0.000000
   50  SI 4  Z    0.994792   0.000000   0.000000   0.003568   0.033868
   51  SI 4  S    0.008569   0.000000   0.000000   0.057676   0.680437
   52  SI 4  X    0.000000   0.020606   0.000000  -0.000000   0.000000
   53  SI 4  Y    0.000000   0.000000   0.018350  -0.000000   0.000000
   54  SI 4  Z    0.020637   0.000000   0.000000  -0.028864  -0.112501
   55  SI 4  S    0.001397   0.000000   0.000000   0.010475   0.341796
   56  SI 4  X    0.000000  -0.004386   0.000000  -0.000000   0.000000
   57  SI 4  Y    0.000000   0.000000  -0.004020  -0.000000   0.000000
   58  SI 4  Z   -0.003462   0.000000   0.000000  -0.036383  -0.073804
   59  SI 4 XX   -0.002894   0.000000   0.000000  -0.005798   0.001788
   60  SI 4 YY   -0.003205   0.000000   0.000000   0.002251   0.006605
   61  SI 4 ZZ    0.000119   0.000000   0.000000   0.007744   0.007416
   62  SI 4 XY    0.000000   0.000000   0.000000  -0.000000   0.000000
   63  SI 4 XZ    0.000000   0.001749   0.000000  -0.000000   0.000000
   64  SI 4 YZ    0.000000   0.000000   0.000969  -0.000000   0.000000

                     11         12         13         14         15
                   -0.7334    -0.6877    -0.5158    -0.4892    -0.4769
                     B1         A1         B2         A1         B1  
    1  C  1  S    0.000000  -0.097599  -0.000000   0.078539   0.000000
    2  C  1  S    0.000000   0.217400  -0.000000  -0.127891   0.000000
    3  C  1  X   -0.320469   0.000000  -0.000000   0.000000  -0.312591
    4  C  1  Y    0.000000   0.000000   0.332363   0.000000   0.000000
    5  C  1  Z    0.000000   0.051076  -0.000000  -0.260802   0.000000
    6  C  1  S    0.000000   0.334461  -0.000000  -0.288456   0.000000
    7  C  1  X   -0.096461   0.000000  -0.000000   0.000000  -0.115260
    8  C  1  Y    0.000000   0.000000   0.162594   0.000000   0.000000
    9  C  1  Z    0.000000  -0.007057  -0.000000  -0.110923   0.000000
   10  C  1 XX    0.000000   0.006823  -0.000000  -0.016948   0.000000
   11  C  1 YY    0.000000  -0.001335  -0.000000  -0.003036   0.000000
   12  C  1 ZZ    0.000000  -0.013692  -0.000000   0.028404   0.000000
   13  C  1 XY    0.000000   0.000000  -0.000000   0.000000   0.000000
   14  C  1 XZ    0.033519   0.000000  -0.000000   0.000000   0.021876
   15  C  1 YZ    0.000000   0.000000  -0.034121   0.000000   0.000000
   16  C  2  S   -0.130917   0.068600  -0.000000   0.057553   0.041788
   17  C  2  S    0.284860  -0.162669  -0.000000  -0.112440  -0.093053
   18  C  2  X   -0.073527  -0.106494  -0.000000   0.301764   0.093101
   19  C  2  Y    0.000000   0.000000   0.305871   0.000000   0.000000
   20  C  2  Z    0.098530   0.242306  -0.000000   0.056182   0.326564
   21  C  2  S    0.365382  -0.221279  -0.000000  -0.232401  -0.223983
   22  C  2  X   -0.011349  -0.035876  -0.000000   0.165109   0.053877
   23  C  2  Y    0.000000   0.000000   0.182146   0.000000   0.000000
   24  C  2  Z    0.018696   0.069865  -0.000000   0.010810   0.203496
   25  C  2 XX   -0.018192  -0.019916  -0.000000   0.025695   0.003064
   26  C  2 YY   -0.004491   0.004117  -0.000000  -0.007099  -0.004134
   27  C  2 ZZ    0.018028   0.012458  -0.000000  -0.016022   0.002040
   28  C  2 XY    0.000000   0.000000   0.035298   0.000000   0.000000
   29  C  2 XZ    0.003921   0.022300  -0.000000   0.008510   0.006180
   30  C  2 YZ    0.000000   0.000000   0.011541   0.000000   0.000000
   31  C  3  S    0.130917   0.068600  -0.000000   0.057553  -0.041788
   32  C  3  S   -0.284860  -0.162669  -0.000000  -0.112440   0.093053
   33  C  3  X   -0.073527   0.106494  -0.000000  -0.301764   0.093101
   34  C  3  Y    0.000000   0.000000   0.305871   0.000000   0.000000
   35  C  3  Z   -0.098530   0.242306  -0.000000   0.056182  -0.326564
   36  C  3  S   -0.365382  -0.221279  -0.000000  -0.232401   0.223983
   37  C  3  X   -0.011349   0.035876  -0.000000  -0.165109   0.053877
   38  C  3  Y    0.000000   0.000000   0.182146   0.000000   0.000000
   39  C  3  Z   -0.018696   0.069865  -0.000000   0.010810  -0.203496
   40  C  3 XX    0.018192  -0.019916  -0.000000   0.025695  -0.003064
   41  C  3 YY    0.004491   0.004117  -0.000000  -0.007099   0.004134
   42  C  3 ZZ   -0.018028   0.012458  -0.000000  -0.016022  -0.002040
   43  C  3 XY    0.000000   0.000000  -0.035298   0.000000   0.000000
   44  C  3 XZ    0.003921  -0.022300  -0.000000  -0.008510   0.006180
   45  C  3 YZ    0.000000   0.000000   0.011541   0.000000   0.000000
   46  SI 4  S    0.000000   0.005990  -0.000000   0.007696   0.000000
   47  SI 4  S    0.000000  -0.028284  -0.000000  -0.034525   0.000000
   48  SI 4  X    0.029514   0.000000  -0.000000   0.000000  -0.094917
   49  SI 4  Y    0.000000   0.000000  -0.043204   0.000000   0.000000
   50  SI 4  Z    0.000000   0.123946  -0.000000   0.052071   0.000000
   51  SI 4  S    0.000000   0.118416  -0.000000   0.123199   0.000000
   52  SI 4  X   -0.065513   0.000000  -0.000000   0.000000   0.227847
   53  SI 4  Y    0.000000   0.000000   0.107200   0.000000   0.000000
   54  SI 4  Z    0.000000  -0.304053  -0.000000  -0.141260   0.000000
   55  SI 4  S    0.000000   0.197379  -0.000000   0.031545   0.000000
   56  SI 4  X   -0.005845   0.000000  -0.000000   0.000000   0.040863
   57  SI 4  Y    0.000000   0.000000   0.027091   0.000000   0.000000
   58  SI 4  Z    0.000000  -0.031342  -0.000000  -0.090699   0.000000
   59  SI 4 XX    0.000000   0.017217  -0.000000  -0.018056   0.000000
   60  SI 4 YY    0.000000   0.037893  -0.000000   0.016445   0.000000
   61  SI 4 ZZ    0.000000  -0.073781  -0.000000  -0.014138   0.000000
   62  SI 4 XY    0.000000   0.000000  -0.000000   0.000000   0.000000
   63  SI 4 XZ   -0.030541   0.000000  -0.000000   0.000000   0.078441
   64  SI 4 YZ    0.000000   0.000000   0.032457   0.000000   0.000000

                     16         17         18         19         20
                   -0.2118    -0.1098     0.1417     0.2453     0.3330
                     A1         B2         A2         B2         B1  
    1  C  1  S   -0.100137  -0.000000   0.000000   0.000000  -0.000000
    2  C  1  S    0.236045  -0.000000   0.000000   0.000000  -0.000000
    3  C  1  X   -0.000000  -0.000000   0.000000   0.000000   0.544027
    4  C  1  Y   -0.000000  -0.259147   0.000000   0.669881  -0.000000
    5  C  1  Z    0.384952  -0.000000   0.000000   0.000000  -0.000000
    6  C  1  S    0.318103  -0.000000   0.000000   0.000000  -0.000000
    7  C  1  X   -0.000000  -0.000000   0.000000   0.000000   0.282049
    8  C  1  Y   -0.000000  -0.244566   0.000000   0.296073  -0.000000
    9  C  1  Z    0.284642  -0.000000   0.000000   0.000000  -0.000000
   10  C  1 XX   -0.023514  -0.000000   0.000000   0.000000  -0.000000
   11  C  1 YY    0.008295  -0.000000   0.000000   0.000000  -0.000000
   12  C  1 ZZ    0.004521  -0.000000   0.000000   0.000000  -0.000000
   13  C  1 XY   -0.000000  -0.000000  -0.043599   0.000000  -0.000000
   14  C  1 XZ   -0.000000  -0.000000   0.000000   0.000000  -0.007787
   15  C  1 YZ   -0.000000   0.008270   0.000000   0.045042  -0.000000
   16  C  2  S    0.052388  -0.000000   0.000000   0.000000  -0.019882
   17  C  2  S   -0.119829  -0.000000   0.000000   0.000000   0.141760
   18  C  2  X    0.226611  -0.000000   0.000000   0.000000  -0.448540
   19  C  2  Y   -0.000000  -0.002448   0.567949  -0.350729  -0.000000
   20  C  2  Z   -0.174691  -0.000000   0.000000   0.000000   0.281078
   21  C  2  S   -0.130751  -0.000000   0.000000   0.000000   0.001007
   22  C  2  X    0.173933  -0.000000   0.000000   0.000000  -0.204878
   23  C  2  Y   -0.000000   0.020401   0.315029  -0.249579  -0.000000
   24  C  2  Z   -0.066320  -0.000000   0.000000   0.000000   0.232722
   25  C  2 XX    0.011798  -0.000000   0.000000   0.000000   0.020598
   26  C  2 YY   -0.003318  -0.000000   0.000000   0.000000  -0.002222
   27  C  2 ZZ    0.001993  -0.000000   0.000000   0.000000  -0.057818
   28  C  2 XY   -0.000000  -0.001876  -0.028522  -0.009211  -0.000000
   29  C  2 XZ   -0.015194  -0.000000   0.000000   0.000000  -0.022237
   30  C  2 YZ   -0.000000  -0.024036   0.012238   0.021138  -0.000000
   31  C  3  S    0.052388  -0.000000   0.000000   0.000000   0.019882
   32  C  3  S   -0.119829  -0.000000   0.000000   0.000000  -0.141760
   33  C  3  X   -0.226611  -0.000000   0.000000   0.000000  -0.448540
   34  C  3  Y   -0.000000  -0.002448  -0.567949  -0.350729  -0.000000
   35  C  3  Z   -0.174691  -0.000000   0.000000   0.000000  -0.281078
   36  C  3  S   -0.130751  -0.000000   0.000000   0.000000  -0.001007
   37  C  3  X   -0.173933  -0.000000   0.000000   0.000000  -0.204878
   38  C  3  Y   -0.000000   0.020401  -0.315029  -0.249579  -0.000000
   39  C  3  Z   -0.066320  -0.000000   0.000000   0.000000  -0.232722
   40  C  3 XX    0.011798  -0.000000   0.000000   0.000000  -0.020598
   41  C  3 YY   -0.003318  -0.000000   0.000000   0.000000   0.002222
   42  C  3 ZZ    0.001993  -0.000000   0.000000   0.000000   0.057818
   43  C  3 XY   -0.000000   0.001876  -0.028522   0.009211  -0.000000
   44  C  3 XZ    0.015194  -0.000000   0.000000   0.000000  -0.022237
   45  C  3 YZ   -0.000000  -0.024036  -0.012238   0.021138  -0.000000
   46  SI 4  S    0.003536  -0.000000   0.000000   0.000000  -0.000000
   47  SI 4  S   -0.013437  -0.000000   0.000000   0.000000  -0.000000
   48  SI 4  X   -0.000000  -0.000000   0.000000   0.000000  -0.082760
   49  SI 4  Y   -0.000000  -0.207387   0.000000  -0.094315  -0.000000
   50  SI 4  Z   -0.059272  -0.000000   0.000000   0.000000  -0.000000
   51  SI 4  S    0.048697  -0.000000   0.000000   0.000000  -0.000000
   52  SI 4  X   -0.000000  -0.000000   0.000000   0.000000   0.222645
   53  SI 4  Y   -0.000000   0.620161   0.000000   0.322376  -0.000000
   54  SI 4  Z    0.159567  -0.000000   0.000000   0.000000  -0.000000
   55  SI 4  S   -0.112002  -0.000000   0.000000   0.000000  -0.000000
   56  SI 4  X   -0.000000  -0.000000   0.000000   0.000000   0.023943
   57  SI 4  Y   -0.000000   0.401582   0.000000   0.206963  -0.000000
   58  SI 4  Z   -0.014120  -0.000000   0.000000   0.000000  -0.000000
   59  SI 4 XX   -0.025229  -0.000000   0.000000   0.000000  -0.000000
   60  SI 4 YY   -0.015285  -0.000000   0.000000   0.000000  -0.000000
   61  SI 4 ZZ    0.044915  -0.000000   0.000000   0.000000  -0.000000
   62  SI 4 XY   -0.000000  -0.000000  -0.019186   0.000000  -0.000000
   63  SI 4 XZ   -0.000000  -0.000000   0.000000   0.000000   0.085599
   64  SI 4 YZ   -0.000000   0.037770   0.000000  -0.006547  -0.000000

                     21         22         23         24         25
                    0.1242     0.1786     0.2828     0.3451     0.4056
                     B1         A1         A1         B2         A1  
    1  C  1  S   -0.000000  -0.006244   0.025244  -0.000000  -0.106858
    2  C  1  S   -0.000000   0.040755  -0.045676  -0.000000   0.168236
    3  C  1  X   -0.020758  -0.000000   0.000000  -0.000000  -0.000000
    4  C  1  Y   -0.000000  -0.000000   0.000000  -0.076330  -0.000000
    5  C  1  Z   -0.000000  -0.088682   0.064260  -0.000000  -0.114040
    6  C  1  S   -0.000000  -0.188273  -0.857099  -0.000000   3.351589
    7  C  1  X   -0.169380  -0.000000   0.000000  -0.000000  -0.000000
    8  C  1  Y   -0.000000  -0.000000   0.000000   0.126971  -0.000000
    9  C  1  Z   -0.000000  -0.100570   0.405375  -0.000000  -1.803206
   10  C  1 XX   -0.000000  -0.002062  -0.021402  -0.000000   0.020344
   11  C  1 YY   -0.000000   0.008454   0.009999  -0.000000  -0.007924
   12  C  1 ZZ   -0.000000  -0.004366   0.002071  -0.000000   0.022027
   13  C  1 XY   -0.000000  -0.000000   0.000000  -0.000000  -0.000000
   14  C  1 XZ    0.004315  -0.000000   0.000000  -0.000000  -0.000000
   15  C  1 YZ   -0.000000  -0.000000   0.000000  -0.005241  -0.000000
   16  C  2  S   -0.051628   0.059707   0.001962  -0.000000   0.048016
   17  C  2  S    0.076011  -0.060808  -0.012259  -0.000000   0.003967
   18  C  2  X    0.049840   0.010468   0.085394  -0.000000  -0.086589
   19  C  2  Y   -0.000000  -0.000000   0.000000  -0.003050  -0.000000
   20  C  2  Z   -0.153227   0.094898  -0.068445  -0.000000   0.066602
[...]
             34  C  3  Y      0.36319     0.31800
             35  C  3  Z      0.76888     0.68892
             36  C  3  S      0.78428     0.40115
             37  C  3  X      0.20817     0.36942
             38  C  3  Y      0.27149     0.30504
             39  C  3  Z      0.24591     0.39444
             40  C  3 XX      0.00857     0.16455
             41  C  3 YY     -0.00948     0.14378
             42  C  3 ZZ      0.02168     0.19756
             43  C  3 XY      0.01154     0.01396
             44  C  3 XZ      0.01477     0.02692
             45  C  3 YZ      0.00591     0.01124
             46  SI 4  S      1.99918     1.99897
             47  SI 4  S      2.00171     1.98153
             48  SI 4  X      1.99088     1.95776
             49  SI 4  Y      1.99287     1.96578
             50  SI 4  Z      1.99240     1.96343
             51  SI 4  S      1.25306     0.58048
             52  SI 4  X      0.26761     0.28184
             53  SI 4  Y      0.57811     0.55767
             54  SI 4  Z      0.54523     0.50788
             55  SI 4  S      0.58321     0.51507
             56  SI 4  X      0.04099     0.13964
             57  SI 4  Y      0.32340     0.36512
             58  SI 4  Z      0.11661     0.29292
             59  SI 4 XX      0.00540     0.23124
             60  SI 4 YY      0.01897     0.25531
             61  SI 4 ZZ      0.05314     0.25486
             62  SI 4 XY      0.00012     0.00023
             63  SI 4 XZ      0.06232     0.08831
             64  SI 4 YZ      0.01250     0.01475

          ----- MULLIKEN ATOMIC OVERLAP POPULATIONS -----
          (OFF-DIAGONAL ELEMENTS NEED TO BE MULTIPLIED BY 2)

             1           2           3           4

    1    5.2779187
    2    0.3942851   5.4086023
    3    0.3942851   0.0477874   5.4086023
    4   -0.0513669   0.2229077   0.2229077  13.4432644

          TOTAL MULLIKEN AND LOWDIN ATOMIC POPULATIONS
       ATOM         MULL.POP.    CHARGE          LOW.POP.     CHARGE
    1 CARBON        6.015122   -0.015122         6.003057   -0.003057
    2 CARBON        6.073583   -0.073583         6.022082   -0.022082
    3 CARBON        6.073583   -0.073583         6.022082   -0.022082
    4 SILICON      13.837713    0.162287        13.952779    0.047221

          ---------------------
          ELECTROSTATIC MOMENTS
          ---------------------

 POINT   1           X           Y           Z (BOHR)    CHARGE
                 0.000000    0.000000   -1.090062        0.00 (A.U.)
         DX          DY          DZ         /D/  (DEBYE)
    -0.000000   -0.000000    0.795042    0.795042
 ...... END OF PROPERTY EVALUATION ......
 CPU     0: STEP CPU TIME=     0.00 TOTAL CPU TIME=        2.4 (    0.0 MIN)
 TOTAL WALL CLOCK TIME=        4.5 SECONDS, CPU UTILIZATION IS  51.76%

 MCQDPT CANNOT RUN AO INTEGRAL DIRECT, SO  DIRTRF/DIRSCF WILL BE IGNORED.

          --------------------
          2 ELECTRON INTEGRALS
          --------------------

 THE -PK- OPTION IS OFF, THE INTEGRALS ARE NOT IN SUPERMATRIX FORM.
 STORING   15000 INTEGRALS/RECORD ON DISK, USING 12 BYTES/INTEGRAL.
 TWO ELECTRON INTEGRAL EVALUATION REQUIRES   90549 WORDS OF MEMORY.
 SCHWARZ INEQUALITY OVERHEAD:      2079 INTEGRALS, T=        0.01
 II,JST,KST,LST =  1  1  1  1 NREC =         1 INTLOC =    1
 II,JST,KST,LST =  2  1  1  1 NREC =         1 INTLOC =    2
 II,JST,KST,LST =  3  1  1  1 NREC =         1 INTLOC =   34
 II,JST,KST,LST =  4  1  1  1 NREC =         1 INTLOC =  214
 II,JST,KST,LST =  5  1  1  1 NREC =         1 INTLOC = 1189
 II,JST,KST,LST =  6  1  1  1 NREC =         1 INTLOC = 1189
 II,JST,KST,LST =  7  1  1  1 NREC =         1 INTLOC = 1189
 II,JST,KST,LST =  8  1  1  1 NREC =         1 INTLOC = 1189
 II,JST,KST,LST =  9  1  1  1 NREC =         1 INTLOC = 1189
 II,JST,KST,LST = 10  1  1  1 NREC =         1 INTLOC = 2523
 II,JST,KST,LST = 11  1  1  1 NREC =         1 INTLOC =14224
 II,JST,KST,LST = 12  1  1  1 NREC =         3 INTLOC =11455
 II,JST,KST,LST = 13  1  1  1 NREC =         9 INTLOC = 9900
 II,JST,KST,LST = 14  1  1  1 NREC =        10 INTLOC = 4727
 II,JST,KST,LST = 15  1  1  1 NREC =        14 INTLOC = 1510
 II,JST,KST,LST = 16  1  1  1 NREC =        19 INTLOC = 3575
 II,JST,KST,LST = 17  1  1  1 NREC =        25 INTLOC = 9828
 SCHWARZ INEQUALITY TEST SKIPPED         458 INTEGRAL BLOCKS.
 TOTAL NUMBER OF NONZERO TWO-ELECTRON INTEGRALS =              550436
         37 INTEGRAL RECORDS WERE STORED ON DISK FILE  8.
  ...... END OF TWO-ELECTRON INTEGRALS .....
 STEP CPU TIME =     0.07 TOTAL CPU TIME =        2.4 (    0.0 MIN)
 TOTAL WALL CLOCK TIME=        4.7 SECONDS, CPU UTILIZATION IS  51.60%

          -----------------          ---------------------------
          MC-QDPT2 (MR-MP2)          PROGRAM WRITTEN BY H.NAKANO
          -----------------          ---------------------------
                                         PARALLELIZED BY H.UMEDA
                                     ---------------------------


    ----------------------------
    MRMP/MCQDPT INPUT PARAMETERS
    ----------------------------
 # OF ELECTRONS                =        32
 SPIN MULTIPLICITY             =         3
 SPATIAL STATE SYMMETRY        =         4
 # OF STATES                   =         1 (DIMENSION OF EFFECTIVE HAMILTONIAN)
 # OF FROZEN CORE ORBITALS     =         8
 # OF DOUBLY OCCUPIED ORBITALS =         2
 # OF ACTIVE ORBITALS          =        10
 # OF EXTERNAL ORBITALS        =        44
 # OF FROZEN VIRTUAL ORBITALS  =         0

      IFORB      IROT    ISELCT    LENGTH    MAXCSF    MAXERI
          1         0         0      4096      2048      4096
     MAXROW       MDI    MXBASE    MXTRFR    NSOLUT     NSTCI     NSTOP
        200        50        50        80         1         1       100
     GENZRO    THRCON    THRENE    THRERI    THRGEN    THRWGT    REFWGT
  1.000D-12 1.000D-06-1.000D+00 1.000D-12 1.000D-12 1.000D-06       F
      NOSYM    PARAIO    DOORD0    DELSCR
          0         T         T         F

 THE WEIGHTS OF THE CAS STATES IN THE DENSITY MATRIX AVERAGING ARE
   1=  1.000000
 THE SYMMETRY OF EACH ORBITAL IS
    1= 1,A1      2= 3,B1      3= 1,A1      4= 1,A1      5= 1,A1      6= 1,A1  
    7= 3,B1      8= 4,B2      9= 1,A1     10= 1,A1     11= 3,B1     12= 1,A1  
   13= 4,B2     14= 1,A1     15= 3,B1     16= 1,A1     17= 4,B2     18= 2,A2  
   19= 4,B2     20= 3,B1     21= 3,B1     22= 1,A1     23= 1,A1     24= 4,B2  
   25= 1,A1     26= 3,B1     27= 3,B1     28= 1,A1     29= 1,A1     30= 2,A2  
   31= 4,B2     32= 4,B2     33= 1,A1     34= 3,B1     35= 1,A1     36= 2,A2  
   37= 3,B1     38= 4,B2     39= 1,A1     40= 3,B1     41= 1,A1     42= 3,B1  
   43= 1,A1     44= 3,B1     45= 1,A1     46= 4,B2     47= 2,A2     48= 1,A1  
   49= 4,B2     50= 1,A1     51= 3,B1     52= 1,A1     53= 2,A2     54= 3,B1  
   55= 1,A1     56= 2,A2     57= 4,B2     58= 3,B1     59= 1,A1     60= 1,A1  
   61= 3,B1     62= 1,A1     63= 1,A1     64= 3,B1  
 THE CORRELATED ORBITALS RUN FROM     9 TO    20
 THE     ACTIVE ORBITALS RUN FROM    11 TO    20

 THE RESULTS OF REARRANGING THE ORBITALS BY SYMMETRY TYPE ARE
 SYM.       1       2       3       4       5       6       7       8
 -----------------------------------------------------------------------
 FZC /  1-  5/  0-  0/  6-  7/  8-  8/  0-  0/  0-  0/  0-  0/  0-  0/
 DOC /  9- 10/  0-  0/  0-  0/  0-  0/  0-  0/  0-  0/  0-  0/  0-  0/
 ACT / 11- 13/ 14- 14/ 15- 17/ 18- 20/  0-  0/  0-  0/  0-  0/  0-  0/
 EXT / 21- 39/ 40- 44/ 45- 57/ 58- 64/  0-  0/  0-  0/  0-  0/  0-  0/
 -----------------------------------------------------------------------
 NUMBER OF SPACE ORBITAL PRODUCTS      =      6555
 MAXIMUM NUMBER OF SPIN FUNCTIONS      =        28
 TOTAL NUMBER OF CSFS (ALL SYMMETRIES) =     20790
 EVALUATING ONE-PARTICLE COUPLING CONSTANTS FOR CAS-CI...
 CAS-CI COUPLING CONSTANTS TOOK     0.5 SECONDS.
 EVALUATING ONE-PARTICLE COUPLING CONSTANTS FOR PT...
 PT COUPLING CONSTANTS TOOK     0.4 SECONDS.
 TOTAL NUMBER OF SYMMETRY ADAPTED CSFS =      5220
 CPU TIME TO SET UP SYMMETRY, GENERATE CSFS, AND COUPLING CONSTANTS=      0.95

 TRANSFORMING INTEGRALS OVER OCCUPIED, UNCANONICAL MCSCF ORBITALS.

 SORTING DUPLICATED AO INTEGRAL LIST
 AO INTEGRAL FILE  8 READ     2 TIMES, SORTING TIME=      0.07

 MAXIMUM MEMDDI THAT CAN BE USED IN THE INTEGRAL TRANSFORMATION IS     1 MWORDS
    THE MEMDDI THAT WILL BE USED IN THE INTEGRAL TRANSFORMATION IS     1 MWORDS
 DDI: Creating Array [0] - 2080 x 210 = 436800 words.
 TIME FOR FIRST TWO INDEX TRANSFORM=      0.29
 TIME FOR  LAST TWO INDEX TRANSFORM=      0.04
 CPU TIME TO TRANSFORM INTEGRALS=      0.40

 SOLVING FOR CAS-CI STATE FUNCTIONS.

 ##########################
 ###   CAS-CI RESULTS   ###
 ##########################
 CAS-CI STATES CONVERGED, COUPLING COEFFICIENT FILE 51 WAS READ  18 TIMES.

 STATE #    1  ENERGY =    -402.350060429

      CSF      COEF    OCCUPANCY (IGNORING CORE)
      ---      ----    --------- --------- -----
      168    0.053852  222++20-+0
      591   -0.093197  22+22200+0
     1486    0.944700  22+02202+0
     1490   -0.052993  22+0220+-+
     1491   -0.063101  22+0220++-
     1494    0.061616  22+02200+2
     1958    0.056984  220+22-++0
     1959   -0.056126  220+22+-+0
     3250    0.096776  2+202202+0
     3251   -0.050996  2+2022020+
     3253   -0.077099  2+20220-++
     3346    0.060781  2+20-2+2+0
     4135    0.055591  2+++22--+0
     8458    0.054224  +2202202+0
 CPU TIME TO GENERATE REFERENCE CI STATES =      9.20

 *** ONE PARTICLE DENSITY MATRIX OVER ACTIVE MO-S ***
                   1            2            3            4            5
     1  1.984305E+00
     2  1.827101E-02 1.950053E+00
     3 -5.488899E-02 8.816347E-02 1.028076E+00
     4  0.000000E+00 0.000000E+00 0.000000E+00 5.317818E-02
     5  0.000000E+00 0.000000E+00 0.000000E+00 0.000000E+00 1.977743E+00
     6  0.000000E+00 0.000000E+00 0.000000E+00 0.000000E+00-1.481662E-03
     7  0.000000E+00 0.000000E+00 0.000000E+00 0.000000E+00-2.657249E-03
     8  0.000000E+00 0.000000E+00 0.000000E+00 0.000000E+00 0.000000E+00
     9  0.000000E+00 0.000000E+00 0.000000E+00 0.000000E+00 0.000000E+00
    10  0.000000E+00 0.000000E+00 0.000000E+00 0.000000E+00 0.000000E+00
                   6            7            8            9           10
     6  1.984513E+00
     7  5.839022E-03 4.708374E-02
     8  0.000000E+00 0.000000E+00 1.924547E+00
     9  0.000000E+00 0.000000E+00 3.131261E-03 9.963356E-01
    10  0.000000E+00 0.000000E+00-3.526192E-03-5.605524E-03 5.416550E-02

 OVERLAP OF THE CANONICAL ORBITALS WITH PREVIOUS MO INDEX:
    1 1.0000E+00    2 1.0000E+00    3 1.0000E+00    4 1.0000E+00    5 1.0000E+00
    6 1.0000E+00    7 1.0000E+00    8 1.0000E+00    9 1.0000E+00   10 1.0000E+00
   11 1.0000E+00   12 1.0000E+00   13 1.0000E+00   14 1.0000E+00   15 1.0000E+00
   16 1.0000E+00   17 1.0000E+00   18 1.0000E+00   19 1.0000E+00   20 1.0000E+00
   21 1.0000E+00   22 1.0000E+00   23 1.0000E+00   24 1.0000E+00   25 1.0000E+00
   26 1.0000E+00   27 1.0000E+00   28 1.0000E+00   29 1.0000E+00   30 1.0000E+00
   31 1.0000E+00   32 1.0000E+00   33 1.0000E+00   34 1.0000E+00   35 1.0000E+00
   36 1.0000E+00   37 1.0000E+00   38 1.0000E+00   39 1.0000E+00   40 1.0000E+00
   41 1.0000E+00   42 1.0000E+00   43 1.0000E+00   44 1.0000E+00   45 1.0000E+00
   46 1.0000E+00   47 1.0000E+00   48 1.0000E+00   49 1.0000E+00   50 1.0000E+00
   51 1.0000E+00   52 1.0000E+00   53 1.0000E+00   54 1.0000E+00   55 1.0000E+00
   56 1.0000E+00   57 1.0000E+00   58 1.0000E+00   59 1.0000E+00   60 1.0000E+00
   61 1.0000E+00   62 1.0000E+00   63 1.0000E+00   64 1.0000E+00
 CPU TIME TO CANONICALIZE THE ORBITALS =      0.06

 TRANSFORMING INTEGRALS OVER ALL CANONICAL MCSCF ORBITALS.


 MAXIMUM MEMDDI THAT CAN BE USED IN THE INTEGRAL TRANSFORMATION IS     3 MWORDS
    THE MEMDDI THAT WILL BE USED IN THE INTEGRAL TRANSFORMATION IS     3 MWORDS
 DDI: Creating Array [0] - 2080 x 1090 = 2267200 words.
 TIME FOR FIRST TWO INDEX TRANSFORM=      1.23
 TIME FOR  LAST TWO INDEX TRANSFORM=      0.35
 CPU TIME TO TRANSFORM INTEGRALS=      1.60

 SOLVING FOR CAS-CI STATE FUNCTIONS IN CANONICAL ORBITAL BASIS

 ##########################
 ###   CAS-CI RESULTS   ###
 ##########################
 CAS-CI STATES CONVERGED, COUPLING COEFFICIENT FILE 51 WAS READ  18 TIMES.

 STATE #    1  ENERGY =    -402.350060429

      CSF      COEF    OCCUPANCY (IGNORING CORE)
      ---      ----    --------- --------- -----
      168    0.053852  222++20-+0
      591   -0.093197  22+22200+0
     1486    0.944700  22+02202+0
     1490   -0.052993  22+0220+-+
     1491   -0.063101  22+0220++-
     1494    0.061616  22+02200+2
     1958    0.056984  220+22-++0
     1959   -0.056126  220+22+-+0
     3250    0.096776  2+202202+0
     3251   -0.050996  2+2022020+
     3253   -0.077099  2+20220-++
     3346    0.060781  2+20-2+2+0
     4135    0.055591  2+++22--+0
     8458    0.054224  +2202202+0
 CPU TIME TO GENERATE REFERENCE CI STATES =      9.08

 *** ONE PARTICLE DENSITY MATRIX OVER CANONICAL ORBITALS ***
                   1            2            3            4            5
     1  1.984305E+00
     2  1.827098E-02 1.950053E+00
     3 -5.488879E-02 8.816329E-02 1.028076E+00
     4  0.000000E+00 0.000000E+00 0.000000E+00 5.317818E-02
     5  0.000000E+00 0.000000E+00 0.000000E+00 0.000000E+00 1.977743E+00
     6  0.000000E+00 0.000000E+00 0.000000E+00 0.000000E+00 1.481661E-03
     7  0.000000E+00 0.000000E+00 0.000000E+00 0.000000E+00-2.657199E-03
     8  0.000000E+00 0.000000E+00 0.000000E+00 0.000000E+00 0.000000E+00
     9  0.000000E+00 0.000000E+00 0.000000E+00 0.000000E+00 0.000000E+00
    10  0.000000E+00 0.000000E+00 0.000000E+00 0.000000E+00 0.000000E+00
                   6            7            8            9           10
     6  1.984513E+00
     7 -5.839225E-03 4.708374E-02
     8  0.000000E+00 0.000000E+00 1.924547E+00
     9  0.000000E+00 0.000000E+00 3.131306E-03 9.963356E-01
    10  0.000000E+00 0.000000E+00-3.526332E-03-5.605508E-03 5.416550E-02

 *** ORBITAL ENERGIES OF THE CANONICAL ORBITALS ***
 DOUBLY OCCUPIED ORBITALS:
   -6.880206E+01  -1.130945E+01  -1.130010E+01  -6.153039E+00  -4.254217E+00
   -1.131040E+01  -4.253631E+00  -4.252822E+00  -1.218302E+00  -5.947397E-01
 ACTIVE ORBITALS:
   -6.877454E-01  -4.891618E-01  -2.118483E-01   1.417289E-01  -7.333563E-01
   -4.769071E-01   3.329908E-01  -5.158127E-01  -1.097546E-01   2.453329E-01
 VIRTUAL ORBITALS:
    1.786192E-01   2.827993E-01   4.055538E-01   4.972724E-01   6.139866E-01
    7.363774E-01   8.239875E-01   9.343984E-01   9.722801E-01   1.131992E+00
    1.344144E+00   1.816273E+00   2.179552E+00   2.360100E+00   2.553933E+00
    2.869814E+00   2.948065E+00   4.461989E+00   4.599393E+00   6.982303E-01
    8.287633E-01   1.706211E+00   2.378632E+00   2.614364E+00   1.242482E-01
    4.070482E-01   4.325332E-01   7.371071E-01   8.376656E-01   9.680123E-01
    1.042224E+00   1.224525E+00   2.295822E+00   2.508608E+00   2.832970E+00
    3.225973E+00   4.622786E+00   3.451086E-01   7.003795E-01   7.329249E-01
    9.156861E-01   1.578386E+00   1.870911E+00   2.705056E+00
 CPU TIME TO GENERATE ORBITAL ENERGIES =      0.04

 DISCARDING NEGLIGIBLE GENERATORS
 STEP ONE:  ORIGINAL SPACE PRODUCTS=         6555 REDUCED TO         6555
 STEP TWO: NUMBER OF SPACE PRODUCTS=         6555 REDUCED TO         1672
 CONDENSED LABELS MADE FOR         20790 CSFS
 CPU TIME TO REDUCE GENERATORS TO MINIMUM =      0.17

 FINISHING SETUP FOR MRMP/MCQDPT CALCULATION.

 THE FROZEN CORE ENERGY IS     -454.7047004090
 MAXIMUM MEMDDI THAT CAN BE USED IN THE PERTURBATION CALCULATION IS     1 MWORDS
    THE MEMDDI THAT WILL BE USED IN THE PERTURBATION CALCULATION IS     1 MWORDS
 DDI: Creating Array [0] - 528 x 528 = 278784 words.
 PREPARING TRANSFORMED INTEGRALS FOR PT...
 TIME FOR FINISHING SETUPS =      0.02

 EVALUATING PERTURBATION THEORY CORRECTIONS TO HAMILTONIAN ELEMENTS.

 TIME FOR 0-BODY FORMULAE =      0.08
 TIME FOR 1-BODY FORMULAE =      0.22
 TIME FOR 2-BODY FORMULAE =      3.96
 TIME FOR 3-BODY FORMULAE =     11.70
 TIME FOR 0-BODY FORMULAE INVOLVING 2 EXTERNAL ORBITALS=      0.09
 TIME FOR 1-BODY FORMULAE INVOLVING 2 EXTERNAL ORBITALS=      0.19
 TIME FOR 2-BODY FORMULAE INVOLVING 2 EXTERNAL ORBITALS=      1.98
 TIME FOR PERTURBATION TREATMENT =     18.22

 SINGLE STATE MULTICONFIGURATIONAL PERTURBATION ENERGY (MRMP)

 #########################
 ###   MRMP2 RESULTS   ###
 #########################

 *** EFFECTIVE HAMILTONIAN (AT SECOND ORDER) ***
                   1
     1 -4.026930E+02

 *** ZEROTH ORDER ENERGIES ***
   STATE        0TH ORDER
     1     -252.8962844647

 *** DIAGONAL ELEMENTS OF EFFECTIVE HAMILTONIAN ***
   STATE                  2ND ORDER
     1   E(MRMP2)=     -402.6930218082

 *** MRMP2 ENERGY ***
   STATE                       1ST ORDER                       2ND ORDER
     1     E(MCSCF)=     -402.3500604286     E(MP2)=     -402.6930218082

 THE UNPERTURBED CAS-CI STATE(S) WERE PRINTED ABOVE

 THE PERTURBED STATE IS THE SAME AS THE UNPERTURBED STATE,
 SINCE THE EFFECTIVE HAMILTONIAN IS OF DIMENSION ONE.
 ...... END OF MC-QDPT2 (MR-MP2) CALCULATION ......

 ..... DONE WITH MP2 ENERGY .....
 CPU     0: STEP CPU TIME=    39.80 TOTAL CPU TIME=       42.2 (    0.7 MIN)
 TOTAL WALL CLOCK TIME=       58.4 SECONDS, CPU UTILIZATION IS  72.27%
              3999269  WORDS OF DYNAMIC MEMORY USED
 EXECUTION OF GAMESS TERMINATED NORMALLY Mon Nov 28 21:23:24 2016
 DDI: 18401240 bytes (17.5 MB / 2 MWords) used by master data server.

 ----------------------------------------
 CPU timing information for all processes
 ========================================
 0: 41.84 + 1.140 = 42.225
 ----------------------------------------
 ddikick.x: exited gracefully.
unset echo
----- accounting info -----
Files used on the master node compute-3-0 were:
-rw-rw-r-- 1 sarom sarom     88539 Nov 29  2016 .//mc-mcqdpt-c3si.dat
-rw-rw-r-- 1 sarom sarom     68022 Nov 29  2016 .//mc-mcqdpt-c3si.F05
-rw-rw-r-- 1 sarom sarom   6660592 Nov 29  2016 .//mc-mcqdpt-c3si.F08
-rw-rw-r-- 1 sarom sarom    196664 Nov 29  2016 .//mc-mcqdpt-c3si.F09
-rw-rw-r-- 1 sarom sarom   2159520 Nov 29  2016 .//mc-mcqdpt-c3si.F10
-rw-rw-r-- 1 sarom sarom    342456 Nov 29  2016 .//mc-mcqdpt-c3si.F11
-rw-rw-r-- 1 sarom sarom    167256 Nov 29  2016 .//mc-mcqdpt-c3si.F12
-rw-rw-r-- 1 sarom sarom    584592 Nov 29  2016 .//mc-mcqdpt-c3si.F13
-rw-rw-r-- 1 sarom sarom    400008 Nov 29  2016 .//mc-mcqdpt-c3si.F14
-rw-rw-r-- 1 sarom sarom    181704 Nov 29  2016 .//mc-mcqdpt-c3si.F15
-rw-rw-r-- 1 sarom sarom    181704 Nov 29  2016 .//mc-mcqdpt-c3si.F16
-rw-rw-r-- 1 sarom sarom         0 Nov 29  2016 .//mc-mcqdpt-c3si.F23
-rw-rw-r-- 1 sarom sarom   3199944 Nov 29  2016 .//mc-mcqdpt-c3si.F50
-rw-rw-r-- 1 sarom sarom  31929120 Nov 29  2016 .//mc-mcqdpt-c3si.F51
-rw-rw-r-- 1 sarom sarom  25869568 Nov 29  2016 .//mc-mcqdpt-c3si.F52
-rw-rw-r-- 1 sarom sarom  25869568 Nov 29  2016 .//mc-mcqdpt-c3si.F53
-rw-rw-r-- 1 sarom sarom   6554720 Nov 29  2016 .//mc-mcqdpt-c3si.F54
-rw-rw-r-- 1 sarom sarom  11118392 Nov 29  2016 .//mc-mcqdpt-c3si.F55
-rw-rw-r-- 1 sarom sarom         0 Nov 29  2016 .//mc-mcqdpt-c3si.F56
-rw-rw-r-- 1 sarom sarom    138592 Nov 29  2016 .//mc-mcqdpt-c3si.F57
-rw-rw-r-- 1 sarom sarom    559784 Nov 29  2016 .//mc-mcqdpt-c3si.F58
-rw-rw-r-- 1 sarom sarom   2102760 Nov 29  2016 .//mc-mcqdpt-c3si.F59
-rw-rw-r-- 1 sarom sarom    378768 Nov 29  2016 .//mc-mcqdpt-c3si.F60
-rw-rw-r-- 1 sarom sarom   3351200 Nov 29  2016 .//mc-mcqdpt-c3si.F61
-rw-rw-r-- 1 sarom sarom 110896336 Nov 29  2016 .//mc-mcqdpt-c3si.F62
-rw-rw-r-- 1 sarom sarom     66476 Nov 29  2016 .//mc-mcqdpt-c3si.F63
-rw-rw-r-- 1 sarom sarom    460712 Nov 29  2016 .//mc-mcqdpt-c3si.F64
-rw-rw-r-- 1 sarom sarom     68022 Nov 27 05:47 .//mc-mcqdpt-c3si.inp
-rw-rw-r-- 1 sarom sarom    143330 Nov 29  2016 .//mc-mcqdpt-c3si.log
Mon Nov 28 21:23:27 CST 2016
0.210u 0.466s 1:02.26 1.0%	0+0k 0+272io 0pf+0w
