-catch_rsh /opt/gridengine/default/spool/compute-0-1/active_jobs/23902.1/pe_hostfile
compute-0-1
The primary node assigned by SGE to this run is compute-0-1
Warning: no access to tty (Bad file descriptor).
Thus no job control in this shell.
source /home/sarom/gamess.github.2017-05-31.14.06/install.info
setenv GMS_PATH /home/sarom/gamess.github.2017-05-31.14.06
setenv GMS_BUILD_DIR /home/sarom/gamess.github.2017-05-31.14.06
setenv GMS_TARGET linux64
setenv GMS_FORTRAN gfortran
setenv GMS_GFORTRAN_VERNO 4.4
setenv GMS_MATHLIB mkl-so
setenv GMS_MATHLIB_PATH /share/apps/intel/compilers_and_libraries_2017.1.132/linux/mkl/lib/intel64
setenv GMS_MKL_VERNO 12
setenv GMS_DDI_COMM sockets
setenv GMS_LIBCCHEM false
setenv GMS_EIGEN_PATH
setenv GMS_PHI false
setenv GMS_SHMTYPE sysv
setenv GMS_OPENMP false
unset echo
mc-ormpt2-lif
tests/mcscf/mrpt
----- GAMESS execution script 'rungms' -----
This job is running on host compute-0-1.local
under operating system Linux at Fri Jun 2 03:58:12 CDT 2017
Available scratch disk space (Kbyte units) at beginning of the job is
Filesystem           1K-blocks      Used Available Use% Mounted on
/dev/sda1             16126920   3867344  11440376  26% /
GAMESS temporary binary files will be written to /scratch
GAMESS supplementary output files will be written to /home/sarom/restart
Copying input file mc-ormpt2-lif.inp to your run's scratch directory...
cp tests/mcscf/mrpt/mc-ormpt2-lif.inp /scratch/mc-ormpt2-lif.F05
unset echo
The generated host list is
compute-0-1.local
/home/sarom/gamess.github.2017-05-31.14.06/ddikick.x /home/sarom/gamess.github.2017-05-31.14.06/gamess.00.x mc-ormpt2-lif -ddi 1 1 compute-0-1.local -scr /scratch

 Distributed Data Interface kickoff program.
 Initiating 1 compute processes on 1 nodes to run the following command:
 /home/sarom/gamess.github.2017-05-31.14.06/gamess.00.x mc-ormpt2-lif 

          ******************************************************
          *         GAMESS VERSION = 20 APR 2017 (R1)          *
          *             FROM IOWA STATE UNIVERSITY             *
          * M.W.SCHMIDT, K.K.BALDRIDGE, J.A.BOATZ, S.T.ELBERT, *
          *   M.S.GORDON, J.H.JENSEN, S.KOSEKI, N.MATSUNAGA,   *
          *          K.A.NGUYEN, S.J.SU, T.L.WINDUS,           *
          *       TOGETHER WITH M.DUPUIS, J.A.MONTGOMERY       *
          *         J.COMPUT.CHEM.  14, 1347-1363(1993)        *
          **************** 64 BIT LINUX VERSION ****************

  SINCE 1993, STUDENTS AND POSTDOCS WORKING AT IOWA STATE UNIVERSITY
  AND ALSO IN THEIR VARIOUS JOBS AFTER LEAVING ISU HAVE MADE IMPORTANT
  CONTRIBUTIONS TO THE CODE:
     IVANA ADAMOVIC, CHRISTINE AIKENS, YURI ALEXEEV, POOJA ARORA,
     ANDREY ASADCHEV, ROB BELL, PRADIPTA BANDYOPADHYAY, JONATHAN BENTZ,
     BRETT BODE, KURT BRORSEN, CALEB CARLIN, GALINA CHABAN, WEI CHEN,
     CHEOL HO CHOI, PAUL DAY, ALBERT DEFUSCO, NUWAN DESILVA, TIM DUDLEY,
     DMITRI FEDOROV, GRAHAM FLETCHER, MARK FREITAG, KURT GLAESEMANN,
     DAN KEMP, GRANT MERRILL, NORIYUKI MINEZAWA, JONATHAN MULLIN,
     TAKESHI NAGATA, SEAN NEDD, HEATHER NETZLOFF, BOSILJKA NJEGIC, RYAN OLSON,
     MIKE PAK, SPENCER PRUITT, LUKE ROSKOP, JIM SHOEMAKER, LYUDMILA SLIPCHENKO,
     TONY SMITH, SAROM SOK LEANG, JIE SONG, TETSUYA TAKETSUGU, SIMON WEBB,
     PENG XU, SOOHAENG YOO, FEDERICO ZAHARIEV

  ADDITIONAL CODE HAS BEEN PROVIDED BY COLLABORATORS IN OTHER GROUPS:
     IOWA STATE UNIVERSITY:
          JOE IVANIC, AARON WEST, LAIMUTIS BYTAUTAS, KLAUS RUEDENBERG
     UNIVERSITY OF TOKYO: KIMIHIKO HIRAO, TAKAHITO NAKAJIMA,
          TAKAO TSUNEDA, MUNEAKI KAMIYA, SUSUMU YANAGISAWA,
          KIYOSHI YAGI, MAHITO CHIBA, SEIKEN TOKURA, NAOAKI KAWAKAMI
     UNIVERSITY OF AARHUS: FRANK JENSEN
     UNIVERSITY OF IOWA: VISVALDAS KAIRYS, HUI LI
     NATIONAL INST. OF STANDARDS AND TECHNOLOGY: WALT STEVENS, DAVID GARMER
     UNIVERSITY OF PISA: BENEDETTA MENNUCCI, JACOPO TOMASI
     UNIVERSITY OF MEMPHIS: HENRY KURTZ, PRAKASHAN KORAMBATH
     UNIVERSITY OF ALBERTA: TOBY ZENG, MARIUSZ KLOBUKOWSKI
     UNIVERSITY OF NEW ENGLAND: MARK SPACKMAN
     MIE UNIVERSITY: HIROAKI UMEDA
     NAT. INST. OF ADVANCED INDUSTRIAL SCIENCE AND TECHNOLOGY: KAZUO KITAURA
     MICHIGAN STATE UNIVERSITY:
          KAROL KOWALSKI, MARTA WLOCH, JEFFREY GOUR, JESSE LUTZ,
          WEI LI, PIOTR PIECUCH
     UNIVERSITY OF SILESIA: MONIKA MUSIAL, STANISLAW KUCHARSKI
     FACULTES UNIVERSITAIRES NOTRE-DAME DE LA PAIX:
          OLIVIER QUINET, BENOIT CHAMPAGNE
     UNIVERSITY OF CALIFORNIA - SANTA BARBARA: BERNARD KIRTMAN
     INSTITUTE FOR MOLECULAR SCIENCE:
          KAZUYA ISHIMURA, MICHIO KATOUDA, AND SHIGERU NAGASE
     UNIVERSITY OF NOTRE DAME: ANNA POMOGAEVA, DAN CHIPMAN
     KYUSHU UNIVERSITY:
          HARUYUKI NAKANO,
          FENG LONG GU, JACEK KORCHOWIEC, MARCIN MAKOWSKI, AND YURIKO AOKI,
          HIROTOSHI MORI AND EISAKU MIYOSHI
     PENNSYLVANIA STATE UNIVERSITY:
          TZVETELIN IORDANOV, CHET SWALINA, JONATHAN SKONE,
          SHARON HAMMES-SCHIFFER
     WASEDA UNIVERSITY:
          MASATO KOBAYASHI, TOMOKO AKAMA, TSUGUKI TOUMA,
          TAKESHI YOSHIKAWA, YASUHIRO IKABATA, JUNJI SEINO,
          YUYA NAKAJIMA, HIROMI NAKAI
     NANJING UNIVERSITY: SHUHUA LI
     UNIVERSITY OF NEBRASKA:
          PEIFENG SU, DEJUN SI, NANDUN THELLAMUREGE, YALI WANG, HUI LI
     UNIVERSITY OF ZURICH: ROBERTO PEVERATI, KIM BALDRIDGE
     N. COPERNICUS UNIVERSITY AND JACKSON STATE UNIVERSITY:
          MARIA BARYSZ
     UNIVERSITY OF COPENHAGEN: Jimmy Kromann, CASPER STEINMANN
     TOKYO INSTITUTE OF TECHNOLOGY: HIROYA NAKATA
     NAGOYA UNIVERSITY: YOSHIO NISHIMOTO, STEPHAN IRLE
     MOSCOW STATE UNIVERSITY: VLADIMIR MIRONOV

 EXECUTION OF GAMESS BEGUN Fri Jun  2 03:58:12 2017

            ECHO OF THE FIRST FEW INPUT CARDS -
 INPUT CARD>!   LiF...ORMAS + PT2 test case...from Luke...created in 2012                   
 INPUT CARD>!   unknown basis set...90 AOs                                                  
 INPUT CARD>!                                                                               
 INPUT CARD>!     TOTAL   (MCSCF)          0TH + 1ST ORDER ENERGY  =  -106.901381307        
 INPUT CARD>!     TOTAL MRPT2, E(MP2) 0TH + 1ST + 2ND ORDER ENERGY =  -107.0516980661       
 INPUT CARD>!                                                                               
 INPUT CARD>!   this test takes 14 seconds on 2.66 GHz Cloverton (31 July 2012)             
 INPUT CARD>!                                                                               
 INPUT CARD>!   -----------------------------------------------------------------------     
 INPUT CARD>!   breakdown of the correlation energy:                                        
 INPUT CARD>!                                            V -> A    -0.011799452             
 INPUT CARD>!                                            V -> E    -0.032730839             
 INPUT CARD>!                                            A -> E    -0.019134006             
 INPUT CARD>!                                           VV -> AA   -0.002487023             
 INPUT CARD>!                                           VV -> AE   -0.000930976             
 INPUT CARD>!          (2 ELECTRONS ARE DIFFERENT SPIN) VA -> AE   -0.016950051             
 INPUT CARD>!                                           VV -> EE   -0.007198037             
 INPUT CARD>!                                           VA -> EE   -0.016509765             
 INPUT CARD>!                                           AA -> EE   -0.042032179             
 INPUT CARD>!                                      INTERNAL CCAS   -0.000544432             
 INPUT CARD>!                                                                               
 INPUT CARD>!   by the way, running with a CAS reference gives                              
 INPUT CARD>!        TOTAL   (MC-SCF)         0TH + 1ST ORDER ENERGY  =  -106.902096329     
 INPUT CARD>!        TOTAL MRPT2, E-MP2  0TH + 1ST + 2ND ORDER ENERGY =  -107.0518596866    
 INPUT CARD>!                                                                               
 INPUT CARD> $contrl scftyp=mcscf mplevl=2 runtyp=energy units=bohr $end                    
 INPUT CARD> $system mwords=1 $end                                                          
 INPUT CARD> $mcscf  cistep=ormas fullnr=.true. soscf=.false. $end                          
 INPUT CARD> $det    ncore=3 nact=9 nels=6 nstate=10 $end                                   
 INPUT CARD> $ORMAS  nspace=3 mstart(1)=4 7 10 mine(1)=2 2 2 maxe(1)=2 2 2 $end             
 INPUT CARD> $guess  guess=moread norb=90 $end                                              
 INPUT CARD> $data                                                                          
 INPUT CARD>lif_2-state.ormas-gen.inp...not the same basis as the CAS-MCQDPT run!           
 INPUT CARD>Cnv 2                                                                           
 INPUT CARD>                                                                                
 INPUT CARD>Li 3.0 0 0 14.0                                                                 
 INPUT CARD>S   6                                                                           
 INPUT CARD>  1    900.4600000              0.00228704                                      
 INPUT CARD>  2    134.4330000              0.0176350                                       
 INPUT CARD>  3     30.4365000              0.0873434                                       
 INPUT CARD>  4      8.6263900              0.2809770                                       
 INPUT CARD>  5      2.4833200              0.6587410                                       
 INPUT CARD>  6      0.3031790              0.1187120                                       
 INPUT CARD>L   3                                                                           
 INPUT CARD>  1      4.8689000              0.0933293              0.0327661                
 INPUT CARD>  2      0.8569240              0.9430450              0.1597920                
 INPUT CARD>  3      0.2432270             -0.00279827             0.8856670                
 INPUT CARD>L   1                                                                           
 INPUT CARD>  1      0.0635070              1.0000000              1.0000000                
 INPUT CARD>L   1                                                                           
    1000000 WORDS OF MEMORY AVAILABLE


     RUN TITLE
     ---------
 lif_2-state.ormas-gen.inp...not the same basis as the CAS-MCQDPT run!           

 THE POINT GROUP OF THE MOLECULE IS CNV     
 THE ORDER OF THE PRINCIPAL AXIS IS     2

 ATOM      ATOMIC                      COORDINATES (BOHR)
           CHARGE         X                   Y                   Z
 LI          3.0     0.0000000000        0.0000000000       14.0000000000
 F           9.0     0.0000000000        0.0000000000        0.0000000000

          INTERNUCLEAR DISTANCES (ANGS.)
          ------------------------------

                1 LI         2 F     

   1 LI      0.0000000    7.4084815  
   2 F       7.4084815    0.0000000  

  * ... LESS THAN  3.000


     ATOMIC BASIS SET
     ----------------
 THE CONTRACTED PRIMITIVE FUNCTIONS HAVE BEEN UNNORMALIZED
 THE CONTRACTED BASIS FUNCTIONS ARE NOW NORMALIZED TO UNITY

  SHELL TYPE  PRIMITIVE        EXPONENT          CONTRACTION COEFFICIENT(S)

 LI        

      1   S       1           900.4600000    0.002287040374
      1   S       2           134.4330000    0.017635002886
      1   S       3            30.4365000    0.087343414295
      1   S       4             8.6263900    0.280977045987
      1   S       5             2.4833200    0.658741107814
      1   S       6             0.3031790    0.118712019429

      2   L       7             4.8689000    0.093329299515    0.032766096583
      2   L       8             0.8569240    0.943044995097    0.159791983337
      2   L       9             0.2432270   -0.002798269985    0.885666907644

      3   L      10             0.0635070    1.000000000000    1.000000000000

      4   L      11             0.0243683    1.000000000000    1.000000000000

      5   L      12             0.0074000    1.000000000000    1.000000000000

      6   D      13             0.8000000    1.000000000000

      7   D      14             0.2000000    1.000000000000

      8   D      15             0.0500000    1.000000000000

      9   F      16             0.1500000    1.000000000000

 F         

     10   S      17         11427.1000000    0.001800930156
     10   S      18          1722.3500000    0.013741901192
     10   S      19           395.7460000    0.068133405910
     10   S      20           115.1390000    0.233325020240
     10   S      21            33.6026000    0.589086051102
     10   S      22             4.9190100    0.299505025981

     11   L      23            55.4441000    0.114536015543    0.035460887379
     11   L      24            12.6323000    0.920512124917    0.237450915490
     11   L      25             3.7175600   -0.003378040458    0.820457707996

     12   L      26             1.1654500    1.000000000000    1.000000000000

     13   L      27             0.3218920    1.000000000000    1.000000000000

     14   L      28             0.1076000    1.000000000000    1.000000000000

     15   D      29             7.0000000    1.000000000000

     16   D      30             1.7500000    1.000000000000

     17   D      31             0.4375000    1.000000000000

     18   F      32             1.8500000    1.000000000000

 TOTAL NUMBER OF BASIS SET SHELLS             =   18
 NUMBER OF CARTESIAN GAUSSIAN BASIS FUNCTIONS =   90
 NUMBER OF ELECTRONS                          =   12
 CHARGE OF MOLECULE                           =    0
 SPIN MULTIPLICITY                            =    1
 NUMBER OF OCCUPIED ORBITALS (ALPHA)          =    6
 NUMBER OF OCCUPIED ORBITALS (BETA )          =    6
 TOTAL NUMBER OF ATOMS                        =    2
 THE NUCLEAR REPULSION ENERGY IS        1.9285714286

 THIS MOLECULE IS RECOGNIZED AS BEING LINEAR,
 ORBITAL LZ DEGENERACY TOLERANCE ETOLLZ= 1.00E-06

     $CONTRL OPTIONS
     ---------------
 SCFTYP=MCSCF        RUNTYP=ENERGY       EXETYP=RUN     
 MPLEVL=       2     CITYP =NONE         CCTYP =NONE         VBTYP =NONE    
 DFTTYP=NONE         TDDFT =NONE    
 MULT  =       1     ICHARG=       0     NZVAR =       0     COORD =UNIQUE  
 PP    =NONE         RELWFN=NONE         LOCAL =NONE         NUMGRD=       F
 ISPHER=      -1     NOSYM =       0     MAXIT =      30     UNITS =BOHR    
 PLTORB=       F     MOLPLT=       F     AIMPAC=       F     FRIEND=        
 NPRINT=       7     IREST =       0     GEOM  =INPUT   
 NORMF =       0     NORMP =       0     ITOL  =      20     ICUT  =       9
 INTTYP=BEST         GRDTYP=BEST         QMTTOL= 1.0E-06

     $SYSTEM OPTIONS
     ---------------
  REPLICATED MEMORY=     1000000 WORDS (ON EVERY NODE).
 DISTRIBUTED MEMDDI=           0 MILLION WORDS IN AGGREGATE,
 MEMDDI DISTRIBUTED OVER   1 PROCESSORS IS           0 WORDS/PROCESSOR.
 TOTAL MEMORY REQUESTED ON EACH PROCESSOR=     1000000 WORDS.
 TIMLIM=      525600.00 MINUTES, OR     365.0 DAYS.
 PARALL= F  BALTYP=  DLB     KDIAG=    0  COREFL= F
 MXSEQ2=     300 MXSEQ3=     150  mem10=         0

          ----------------
          PROPERTIES INPUT
          ----------------

     MOMENTS            FIELD           POTENTIAL          DENSITY
 IEMOM =       1   IEFLD =       0   IEPOT =       0   IEDEN =       0
 WHERE =COMASS     WHERE =NUCLEI     WHERE =NUCLEI     WHERE =NUCLEI  
 OUTPUT=BOTH       OUTPUT=BOTH       OUTPUT=BOTH       OUTPUT=BOTH    
 IEMINT=       0   IEFINT=       0                     IEDINT=       0
                                                       MORB  =       0

     -------------------------------
     INTEGRAL TRANSFORMATION OPTIONS
     -------------------------------
     NWORD  =            0
     CUTOFF = 1.0E-09     MPTRAN =       0
     DIRTRF =       F     AOINTS =DUP     

          ----------------------
          MCSCF INPUT PARAMETERS
          ----------------------
 CONVERGER SELECTION: FOCAS = F  SOSCF = F  FULLNR = T  QUD = F  JACOBI = F
 SECULAR EQUATION METHOD CISTEP = ORMAS   
 --- GENERAL INPUT OPTIONS:
 MAXIT =      30  MICIT =       1  ACURCY= 1.000E-06
 DAMP  =   0.000  CANONC=       T  ENGTOL= 1.000E-10
 EKT   =       F  NPUNCH=       2  NWORD =         0
 REGENERATE CI AFTER CONVERGENCE = NONE    
 DIABATIZATION AFTER CONVERGENCE =        F
 --- INPUT FOR FULLNR CONVERGER:
 METHOD=DM2       FORS  =       F  DROPC =       T
 LINSER=       F  FCORE =       F  NORB  =      90

          ----------------------
          INTEGRAL INPUT OPTIONS
          ----------------------
 NOPK  =       1 NORDER=       0 SCHWRZ=       F

 ------------------------------------------
 MULTIREFERENCE PERTURBATION THEORY CONTROL
 ------------------------------------------
 MRPT=DETMRPT  READ CONVERGED MCSCF VECTORS= F


     ------------------------------------------
     THE POINT GROUP IS CNV, NAXIS= 2, ORDER= 4
     ------------------------------------------

     DIMENSIONS OF THE SYMMETRY SUBSPACES ARE
 A1  =   42     A2  =    8     B1  =   20     B2  =   20

 ..... DONE SETTING UP THE RUN .....
 STEP CPU TIME =     0.11 TOTAL CPU TIME =        0.1 (    0.0 MIN)
 TOTAL WALL CLOCK TIME=        0.1 SECONDS, CPU UTILIZATION IS 100.00%

          ********************
          1 ELECTRON INTEGRALS
          ********************
 TIME TO DO   DIPOLE INTEGRALS=      0.00
 ...... END OF ONE-ELECTRON INTEGRALS ......
 STEP CPU TIME =     0.00 TOTAL CPU TIME =        0.1 (    0.0 MIN)
 TOTAL WALL CLOCK TIME=        0.1 SECONDS, CPU UTILIZATION IS 100.00%

          -------------
          GUESS OPTIONS
          -------------
          GUESS =MOREAD            NORB  =      90          NORDER=       0
          MIX   =       F          PRTMO =       F          PUNMO =       F
          TOLZ  = 1.0E-08          TOLE  = 1.0E-05
          SYMDEN=       F          PURIFY=       F

 INITIAL GUESS ORBITALS GENERATED BY MOREAD   ROUTINE.

 SYMMETRIES FOR INITIAL GUESS ORBITALS FOLLOW.   BOTH SET(S).
     6 ORBITALS ARE OCCUPIED (    2 CORE ORBITALS).
     1=A1       2=A1       3=A1       4=A1       5=A1       6=A1       7=B2  
     8=B2       9=B2      10=B1      11=B1      12=B1      13=B2      14=B1  
    15=A1      16=A1      17=B1      18=B2      19=A1      20=A1      21=B2  
    22=B1      23=A1      24=A2      25=A1      26=B1      27=B2      28=A1  
    29=A1      30=A1      31=B1      32=B2      33=A1      34=B1      35=B2  
    36=A1      37=A2      38=B2      39=B1      40=A1      41=A1      42=A2  
    43=B1      44=B2      45=A1      46=A1      47=B2      48=B1      49=A1  
    50=A1      51=A1      52=B1      53=B2      54=A1      55=A1      56=A2  
    57=A1      58=A2      59=A1      60=B2      61=B1      62=A1      63=A1  
    64=A1      65=B1      66=B2      67=A1      68=A2      69=B1      70=B2  
    71=A1      72=A1      73=B1      74=B2      75=A1      76=A2      77=B2  
    78=B1      79=A1      80=A1      81=A1      82=B2      83=B1      84=A2  
    85=A1      86=B1      87=B2      88=A1      89=A1      90=A1  
 ...... END OF INITIAL ORBITAL SELECTION ......
 STEP CPU TIME =     0.01 TOTAL CPU TIME =        0.1 (    0.0 MIN)
 TOTAL WALL CLOCK TIME=        0.1 SECONDS, CPU UTILIZATION IS 100.00%

                    ----------------------
                    AO INTEGRAL TECHNOLOGY
                    ----------------------
     S,P,L SHELL ROTATED AXIS INTEGRALS, REPROGRAMMED BY
        KAZUYA ISHIMURA (IMS) AND JOSE SIERRA (SYNSTAR).
     S,P,D,L SHELL ROTATED AXIS INTEGRALS PROGRAMMED BY
        KAZUYA ISHIMURA (INSTITUTE FOR MOLECULAR SCIENCE).
     S,P,D,F,G SHELL TO TOTAL QUARTET ANGULAR MOMENTUM SUM 5,
        ERIC PROGRAM BY GRAHAM FLETCHER (ELORET AND NASA ADVANCED
        SUPERCOMPUTING DIVISION, AMES RESEARCH CENTER).
     S,P,D,F,G,L SHELL GENERAL RYS QUADRATURE PROGRAMMED BY
        MICHEL DUPUIS (PACIFIC NORTHWEST NATIONAL LABORATORY).

          --------------------
          2 ELECTRON INTEGRALS
          --------------------

 THE -PK- OPTION IS OFF, THE INTEGRALS ARE NOT IN SUPERMATRIX FORM.
 STORING   15000 INTEGRALS/RECORD ON DISK, USING 12 BYTES/INTEGRAL.
 TWO ELECTRON INTEGRAL EVALUATION REQUIRES   99271 WORDS OF MEMORY.
 II,JST,KST,LST =  1  1  1  1 NREC =         1 INTLOC =    1
 II,JST,KST,LST =  2  1  1  1 NREC =         1 INTLOC =    2
 II,JST,KST,LST =  3  1  1  1 NREC =         1 INTLOC =   34
 II,JST,KST,LST =  4  1  1  1 NREC =         1 INTLOC =  214
 II,JST,KST,LST =  5  1  1  1 NREC =         1 INTLOC =  776
 II,JST,KST,LST =  6  1  1  1 NREC =         1 INTLOC = 2074
 II,JST,KST,LST =  7  1  1  1 NREC =         1 INTLOC = 5929
 II,JST,KST,LST =  8  1  1  1 NREC =         1 INTLOC =14065
 II,JST,KST,LST =  9  1  1  1 NREC =         2 INTLOC =14002
 II,JST,KST,LST = 10  1  1  1 NREC =         5 INTLOC =12962
 II,JST,KST,LST = 11  1  1  1 NREC =         6 INTLOC = 1342
 II,JST,KST,LST = 12  1  1  1 NREC =         7 INTLOC = 2532
 II,JST,KST,LST = 13  1  1  1 NREC =         8 INTLOC =14398
 II,JST,KST,LST = 14  1  1  1 NREC =        11 INTLOC = 9703
 II,JST,KST,LST = 15  1  1  1 NREC =        16 INTLOC =10409
 II,JST,KST,LST = 16  1  1  1 NREC =        21 INTLOC =12438
 II,JST,KST,LST = 17  1  1  1 NREC =        29 INTLOC = 4525
 II,JST,KST,LST = 18  1  1  1 NREC =        39 INTLOC = 8976
 TOTAL NUMBER OF NONZERO TWO-ELECTRON INTEGRALS =              899200
         60 INTEGRAL RECORDS WERE STORED ON DISK FILE  8.
  ...... END OF TWO-ELECTRON INTEGRALS .....
 STEP CPU TIME =     0.15 TOTAL CPU TIME =        0.3 (    0.0 MIN)
 TOTAL WALL CLOCK TIME=        0.3 SECONDS, CPU UTILIZATION IS  96.43%

          -----------------
          MCSCF CALCULATION
          -----------------

 ----- NUCLEAR ENERGY ----- =         1.9285714286

     ------------------------------------------------------------
       DIRECT DETERMINANT ORMAS-CI INPUT SORTER
       PROGRAM WRITTEN BY JOE IVANIC AND MIKE SCHMIDT
       ORMAS = OCCUPATION RESTRICTED MULTIPLE ACTIVE SPACE
     ------------------------------------------------------------

 THE POINT GROUP                  =   C2V     
 THE STATE SYMMETRY               =   A1      
 NUMBER OF CORE ORBITALS          =    3
 NUMBER OF ACTIVE ORBITALS        =    9
 NUMBER OF ALPHA ELECTRONS        =    6 (   3 ACTIVE)
 NUMBER OF BETA ELECTRONS         =    6 (   3 ACTIVE)
 NUMBER OF OCCUPIED ORBITALS      =   12

 NUMBER OF CI STATES REQUESTED    =   10
 NUMBER OF CI STARTING VECTORS    =   10
 MAX. NO. OF CI EXPANSION VECTORS =   20
 SIZE OF INITIAL CI GUESS MATRIX  =  300

 MAX. NO. OF CI ITERS/STATE       =  100
 CI DIAGONALIZATION CRITERION     = 1.00E-06
 PURE SPIN STATE AVERAGED 1E- AND 2E- DENSITY MATRIX OPTION=.T.
 STATE=   1 DM2 WEIGHT=   1.00000

 CORRELATION ENERGY ANALYSIS      =    F

 FULLY DIRECT OPTION              =    F

 CALC. OF DAVIDSON Q CORRECTION   =    F

 BLOCK SPACE MIXING IN NO DIAG    =    F

 SYMMETRIES FOR THE   3 CORE,   9 ACTIVE ARE

     CORE= A1    A1    A1  

   ACTIVE= A1    A1    A1    B2    B2    B2    B1    B1    B1  

 THE NUMBER OF SPACES             =   3
 EACH SPACE STARTS AT ORBITAL     =   4   7  10
 NO OF ORBITALS IN EACH SPACE     =   3   3   3
 MIN NO OF ELECS IN EACH SPACE    =   2   2   2
 MAX NO OF ELECS IN EACH SPACE    =   2   2   2

 SPACE SPECIFICATIONS HAVE PASSED PRELIMINARY CHECKS

 ALL VALID DETERMINANTS WILL BE EXPRESSED AS PAIRS OF ALPHA AND BETA STRINGS.

 MIN NO OF ALPHA ELECS =    0   0   0
 MAX NO OF ALPHA ELECS =    2   2   2

 MIN NO OF BETA  ELECS =    0   0   0
 MAX NO OF BETA  ELECS =    2   2   2

     --------------------------------------------
     PARTIAL TWO ELECTRON INTEGRAL TRANSFORMATION
     --------------------------------------------

 NUMBER OF CORE MOLECULAR ORBITALS     =    3
 NUMBER OF OCCUPIED MOLECULAR ORBITALS =   12
 TOTAL NUMBER OF MOLECULAR ORBITALS    =   90
 TOTAL NUMBER OF ATOMIC ORBITALS       =   90
 THRESHOLD FOR KEEPING TRANSFORMED 2E- INTEGRALS = 1.000E-09
 AO INTEGRALS WILL BE READ IN FROM DISK...

 PLAN A: REQUIREMENTS FOR FULLY IN-MEMORY TRANSFORMATION:
 # OF WORDS AVAILABLE =              1000000
 # OF WORDS NEEDED    =              4523282

 PLAN B: REQUIREMENTS FOR THE SEGMENTED TRANSFORMATION:
       MINIMUM=         469232 WORDS FOR 1 MOLECULAR ORBITAL PER PASS
       MAXIMUM=        4523282 WORDS FOR ALL MOLECULAR ORBITALS IN 1 PASS
              (         368550 EXTRA WORDS INCLUDES 1 EXTRA ORBITAL/PASS)
 THIS RUN USES=         837782 WORDS,
 DISTRIBUTING   6 PASSES EACH CONTAINING     2 ORBITALS OVER   1 PROCESSORS.

 CHOOSING SEGMENTED PARTIAL TRANSFORMATION...
 PASS #   1 TOOK        0.12 SECONDS.
 PASS #   2 TOOK        0.11 SECONDS.
 PASS #   3 TOOK        0.11 SECONDS.
 PASS #   4 TOOK        0.11 SECONDS.
 PASS #   5 TOOK        0.12 SECONDS.
 PASS #   6 TOOK        0.12 SECONDS.
 TOTAL NUMBER OF TRANSFORMED 2E- INTEGRALS KEPT =       171225
 ----- FROZEN CORE ENERGY =       -96.2197053005
 ... END OF INTEGRAL TRANSFORMATION ...
 STEP CPU TIME =     0.70 TOTAL CPU TIME =        1.0 (    0.0 MIN)
 TOTAL WALL CLOCK TIME=        1.0 SECONDS, CPU UTILIZATION IS  98.98%

     --------------------------------------------------
                 DIRECT DETERMINANT ORMAS-CI 
                PROGRAM WRITTEN BY JOE IVANIC
     --------------------------------------------------

 STORAGE OF BINOMIAL COEFFICIENTS REQUIRES          36 WORDS

 TOTAL NUMBER OF ALPHA GROUPS  =            7
 TOTAL NUMBER OF BETA  GROUPS  =            7

 TOTAL NUMBER OF ALPHA STRINGS =           81
 TOTAL NUMBER OF BETA  STRINGS =           81

 STORAGE OF TABLES REQUIRES                      1046 WORDS

 TOTAL NUMBER OF ALPHA-BETA GROUP COMBINATIONS =           49
 OF THESE THE ALLOWED NUMBER OF COMBINATIONS   =            7

 TOTAL NUMBER OF (B -> B`) WHERE  (B` > B)  =          702

 TIME FOR SETTING UP TABLE SET 1 :          0.0

 THE NUMBER OF DETERMINANTS HAVING SPACE SYMMETRY A1 
 IN POINT GROUP C2V  WITH SZ=  0.0 IS           1215

 INTEGRAL STORAGE REQUIRES                   31126 WORDS
 EXTRA ORMAS STORAGE REQUIRES               243629 WORDS
 (EXTRA ORMAS STORAGE INCLUDES THAT FOR MXXPAN = 20)
 TOTAL ORMAS CALCULATION REQUIRES           275837 WORDS

 FULLY DIRECT WOULD REQUIRE                 272601 WORDS

 INITIAL ORMAS VECTOR GUESS TIME :          0.0
 SETTING UP CALCULATION TIME     :          0.0
 ORMAS SPIN CALCULATION TIME     :          0.0
 INITIAL ORMAS CI ITERATION TIME :          0.0

 ITERATION      ENERGY           GRADIENT
     0     -106.8665952920     0.36266899
     0     -106.8665838388     0.36269001
     0     -106.8448907651     0.32089100
     0     -106.3763784210     0.38354163
     0     -106.3476607621     0.38685847
     0     -106.3158961401     0.40751462
     0     -106.2250994089     0.28188238
     0     -106.2250930428     0.28188435
     0     -106.2037821398     0.27625045
     0     -106.2037756390     0.27625261

     1     -106.8875202494     0.04646360
     1     -106.8875105908     0.04646488
     1     -106.8617667848     0.04054227
     1     -106.4043420261     0.05528616
     1     -106.3758665040     0.05452572
     1     -106.3473540635     0.05597000
     1     -106.2393001051     0.04571090
     1     -106.2392939232     0.04571163
     1     -106.2171463957     0.04259482
     1     -106.2171400934     0.04259548

     2     -106.8878659873     0.01655677
     2     -106.8878563521     0.01655870
     2     -106.8620117334     0.01068128
     2     -106.4048594890     0.01437721
     2     -106.3763530356     0.01428376
     2     -106.3478089155     0.01292815
     2     -106.2396852874     0.01355146
     2     -106.2396784883     0.01362820
     2     -106.2174709795     0.01156591
     2     -106.2174646889     0.01156622

     3     -106.8879080677     0.00688361
     3     -106.8878984422     0.00688465
     3     -106.8620298294     0.00453900
     3     -106.4049037172     0.00412101
     3     -106.3763947417     0.00453880
     3     -106.3478402460     0.00436912
     3     -106.2396852983     0.01354989
     3     -106.2396790487     0.01355118
     3     -106.2175013778     0.00469922
     3     -106.2174950893     0.00469950

     4     -106.8879180205     0.00354286
     4     -106.8879083981     0.00354345
     4     -106.8620334415     0.00185869
     4     -106.4049080459     0.00154741
     4     -106.3764003610     0.00180307
     4     -106.3478438136     0.00165553
     4     -106.2396853056     0.01354824
     4     -106.2396795026     0.01349467
     4     -106.2175073127     0.00251806
     4     -106.2175010246     0.00251827

     5     -106.8879205666     0.00156688
     5     -106.8879109451     0.00156721
     5     -106.8620340264     0.00074094
     5     -106.4049087439     0.00063386
     5     -106.3764013519     0.00079792
     5     -106.3478445370     0.00082981
     5     -106.2396853120     0.01354764
     5     -106.2396798467     0.01344412
     5     -106.2175090896     0.00145404
     5     -106.2175028017     0.00145428

     6     -106.8879213271     0.00097318
     6     -106.8879117060     0.00097339
     6     -106.8620341364     0.00033565
     6     -106.4049088879     0.00030426
     6     -106.3764016369     0.00043808
     6     -106.3478447117     0.00036601
     6     -106.2396853204     0.01354653
     6     -106.2396800392     0.01341732
     6     -106.2175097492     0.00090838
     6     -106.2175034616     0.00090850

     7     -106.8879215671     0.00046263
     7     -106.8879119461     0.00046278
     7     -106.8620341584     0.00014001
     7     -106.4049089137     0.00012080
     7     -106.3764016887     0.00015307
     7     -106.3478447581     0.00021038
     7     -106.2396853276     0.01354585
     7     -106.2396800441     0.01341616
     7     -106.2175100024     0.00056182
     7     -106.2175037148     0.00056183

     8     -106.8879216480     0.00031702
     8     -106.8879120271     0.00031709
     8     -106.8620341632     0.00007055
     8     -106.4049089191     0.00006377
     8     -106.3764016974     0.00008058
     8     -106.3478447718     0.00010488
     8     -106.2396853355     0.01354504
     8     -106.2396800496     0.01341594
     8     -106.2175101017     0.00034769
     8     -106.2175038140     0.00034781

     9     -106.8879216759     0.00015886
     9     -106.8879120550     0.00015894
     9     -106.8620341642     0.00003028
     9     -106.4049089205     0.00003269
     9     -106.3764016997     0.00003950
     9     -106.3478447761     0.00006513
     9     -106.2396853430     0.01354437
     9     -106.2396800620     0.01341436
     9     -106.2175101410     0.00022538
     9     -106.2175038534     0.00022564

    10     -106.8879216858     0.00011057
    10     -106.8879120649     0.00011059
    10     -106.8620341645     0.00001665
    10     -106.4049089209     0.00001681
    10     -106.3764017002     0.00001985
    10     -106.3478447777     0.00003776
    10     -106.2396853517     0.01354330
    10     -106.2396800800     0.01341323
    10     -106.2175101568     0.00013587
    10     -106.2175038691     0.00013656

    11     -106.8879216893     0.00005719
    11     -106.8879120684     0.00005723
    11     -106.8620341646     0.00000747
    11     -106.4049089210     0.00000863
    11     -106.3764017003     0.00000978
    11     -106.3478447783     0.00002595
    11     -106.2396853599     0.01354271
    11     -106.2396800998     0.01341064
    11     -106.2175101631     0.00009261
    11     -106.2175038755     0.00009366

    12     -106.8879216905     0.00003950
    12     -106.8879120697     0.00003950
    12     -106.8620341646     0.00000438
    12     -106.4049089211     0.00000466
    12     -106.3764017004     0.00000554
    12     -106.3478447786     0.00001860
    12     -106.2396853699     0.01354133
    12     -106.2396801345     0.01340750
    12     -106.2175101657     0.00005375
    12     -106.2175038781     0.00005551

    13     -106.8879216910     0.00002081
    13     -106.8879120701     0.00002084
    13     -106.8620341646     0.00000209
    13     -106.4049089211     0.00000240
    13     -106.3764017004     0.00000279
    13     -106.3478447788     0.00001372
    13     -106.2396853795     0.01354084
    13     -106.2396801529     0.01340474
    13     -106.2175101668     0.00003931
    13     -106.2175038793     0.00003914

    14     -106.8879216912     0.00001425
    14     -106.8879120703     0.00001424
    14     -106.8620341646     0.00000129
    14     -106.4049089211     0.00000122
    14     -106.3764017004     0.00000163
    14     -106.3478447789     0.00001120
    14     -106.2396853921     0.01353911
    14     -106.2396801876     0.01340194
    14     -106.2175101673     0.00002161
    14     -106.2175038797     0.00002057

    15     -106.8879216912     0.00000758
    15     -106.8879120703     0.00000761
    15     -106.8620341646     0.00000066
    15     -106.4049089211     0.00000064
    15     -106.3764017004     0.00000089
    15     -106.3478447789     0.00000837
    15     -106.2396854037     0.01353868
    15     -106.2396801979     0.01340029
    15     -106.2175101675     0.00001774
    15     -106.2175038799     0.00001560


 CONVERGED STATE    3 ENERGY=     -106.8620341646 IN   15 ITERS


 CONVERGED STATE    4 ENERGY=     -106.4049089211 IN   15 ITERS


 CONVERGED STATE    5 ENERGY=     -106.3764017004 IN   15 ITERS

     0     -106.8879216912     0.00000758
     0     -106.8879120703     0.00000761
     0     -106.3478447789     0.00000837
     0     -106.2396854037     0.01353868
     0     -106.2396801979     0.01340029
     0     -106.2175101675     0.00001774
     0     -106.2175038799     0.00001560

     1     -106.8879216912     0.00000516
     1     -106.8879120704     0.00000514
     1     -106.3478447790     0.00000714
     1     -106.2396854088     0.01353752
     1     -106.2396801995     0.01340008
     1     -106.2175101676     0.00000912
     1     -106.2175038800     0.00001020

     2     -106.8879216913     0.00000276
     2     -106.8879120704     0.00000279
     2     -106.3478447790     0.00000528
     2     -106.2396854140     0.01353754
     2     -106.2396802016     0.01340030
     2     -106.2175101676     0.00000897
     2     -106.2175038800     0.00001115

     3     -106.8879216913     0.00000188
     3     -106.8879120704     0.00000186
     3     -106.3478447790     0.00000465
     3     -106.2396854195     0.01353648
     3     -106.2396802033     0.01339998
     3     -106.2175101677     0.00000431
     3     -106.2175038800     0.00000997

     4     -106.8879216913     0.00000100
     4     -106.8879120704     0.00000103
     4     -106.3478447790     0.00000344
     4     -106.2396854246     0.01353642
     4     -106.2396802058     0.01340007
     4     -106.2175101677     0.00000515
     4     -106.2175038800     0.00001071

     5     -106.8879216913     0.00000070
     5     -106.8879120704     0.00000067
     5     -106.3478447790     0.00000308
     5     -106.2396854300     0.01353552
     5     -106.2396802078     0.01339958
     5     -106.2175101677     0.00000235
     5     -106.2175038800     0.00000982


 CONVERGED STATE    1 ENERGY=     -106.8879216913 IN   21 ITERS


 CONVERGED STATE    2 ENERGY=     -106.8879120704 IN   21 ITERS

     0     -106.3478447790     0.00000308
     0     -106.2396854300     0.01353552
     0     -106.2396802078     0.01339958
     0     -106.2175101677     0.00000235
     0     -106.2175038800     0.00000982

     1     -106.3478447790     0.00000235
     1     -106.2396854325     0.01353540
     1     -106.2396802085     0.01339957
     1     -106.2175101677     0.00000325
     1     -106.2175038800     0.00001032

     2     -106.3478447790     0.00000033
     2     -106.2396855045     0.01352862
     2     -106.2396804584     0.01334897
     2     -106.2175101677     0.00000114
     2     -106.2175038800     0.00000825


 CONVERGED STATE    6 ENERGY=     -106.3478447790 IN   24 ITERS

     0     -106.2396855045     0.01352862
     0     -106.2396804584     0.01334897
     0     -106.2175101677     0.00000114
     0     -106.2175038800     0.00000825

     1     -106.2396855144     0.01352767
     1     -106.2396805690     0.01333088
     1     -106.2175101677     0.00000072
     1     -106.2175038801     0.00000294


 CONVERGED STATE    9 ENERGY=     -106.2175101677 IN   26 ITERS

     0     -106.2396855144     0.01352767
     0     -106.2396805690     0.01333088
     0     -106.2175038801     0.00000294

     1     -106.2396855144     0.01352761
     1     -106.2396805940     0.01333025
     1     -106.2175038801     0.00000345

     2     -106.2396855193     0.01352650
     2     -106.2396806899     0.01331903
     2     -106.2175038801     0.00000248

     3     -106.2397357534     0.00626406
     3     -106.2397299349     0.00623607
     3     -106.2175038801     0.00000109

     4     -106.2397461778     0.00306434
     4     -106.2397400102     0.00309197
     4     -106.2175038801     0.00000072


 CONVERGED STATE   10 ENERGY=     -106.2175038801 IN   31 ITERS

     0     -106.2397461778     0.00306434
     0     -106.2397400102     0.00309197

     1     -106.2397461825     0.00306079
     1     -106.2397402295     0.00295821

     2     -106.2397462134     0.00305216
     2     -106.2397405258     0.00284122

     3     -106.2397490021     0.00181335
     3     -106.2397429738     0.00176910

     4     -106.2397506663     0.00065760
     4     -106.2397445279     0.00059810

     5     -106.2397507655     0.00018296
     5     -106.2397446056     0.00017084

     6     -106.2397507721     0.00006898
     6     -106.2397446112     0.00006368

     7     -106.2397507721     0.00007012
     7     -106.2397446112     0.00006381

     8     -106.2397507736     0.00005792
     8     -106.2397446126     0.00003645

     9     -106.2397507740     0.00005377
     9     -106.2397446126     0.00003641

    10     -106.2397507756     0.00004501
    10     -106.2397446132     0.00002105

    11     -106.2397507762     0.00002919
    11     -106.2397446133     0.00001447

    12     -106.2397507763     0.00003294
    12     -106.2397446133     0.00001447

    13     -106.2397507765     0.00002373
    13     -106.2397446135     0.00001439

    14     -106.2397507766     0.00002385
    14     -106.2397446135     0.00001421

    15     -106.2397507769     0.00002399
    15     -106.2397446136     0.00001146

    16     -106.2397507771     0.00001255
    16     -106.2397446136     0.00000605

    17     -106.2397507771     0.00001358
    17     -106.2397446136     0.00000610

    18     -106.2397507771     0.00000934
    18     -106.2397446136     0.00000539

    19     -106.2397507771     0.00000909
    19     -106.2397446136     0.00000542

    20     -106.2397507772     0.00000855
    20     -106.2397446136     0.00000621

    21     -106.2397507772     0.00000555
    21     -106.2397446137     0.00000337

    22     -106.2397507772     0.00000622
    22     -106.2397446137     0.00000334

    23     -106.2397507772     0.00000503
    23     -106.2397446137     0.00000263

    24     -106.2397507772     0.00000450
    24     -106.2397446137     0.00000261

    25     -106.2397507772     0.00000459
    25     -106.2397446137     0.00000342

    26     -106.2397507772     0.00000240
    26     -106.2397446137     0.00000173

    27     -106.2397507772     0.00000255
    27     -106.2397446137     0.00000174

    28     -106.2397507772     0.00000207
    28     -106.2397446137     0.00000155

    29     -106.2397507772     0.00000172
    29     -106.2397446137     0.00000155

    30     -106.2397507772     0.00000164
    30     -106.2397446137     0.00000185

    31     -106.2397507772     0.00000107
    31     -106.2397446137     0.00000101

    32     -106.2397507772     0.00000110
    32     -106.2397446137     0.00000100

    33     -106.2397507772     0.00000101
    33     -106.2397446137     0.00000077


 CONVERGED STATE    8 ENERGY=     -106.2397446137 IN   65 ITERS

     0     -106.2397507772     0.00000101
     1     -106.2397507772     0.00000067

 CONVERGED STATE    7 ENERGY=     -106.2397507772 IN   67 ITERS

 ALL STATES CONVERGED.

 CI EIGENVECTORS WILL BE LABELED IN GROUP=C2V     
 PRINTING CI COEFFICIENTS LARGER THAN  0.050000

 STATE   1  ENERGY=      -106.8879216913  S=  0.00  SZ=  0.00  SPACE SYM=A1  

      ALPHA        |       BETA        | CI COEFFICIENT
 1     2     3     | 1     2     3     |
-------------------|-------------------|---------------
  1     4     7    |  2     4     7    |   0.6946047235
  2     4     7    |  1     4     7    |   0.6946047223
  3     4     7    |  2     4     7    |   0.0708067720
  2     4     7    |  3     4     7    |   0.0708067718

 STATE   2  ENERGY=      -106.8879120704  S=  1.00  SZ=  0.00  SPACE SYM=A1  

      ALPHA        |       BETA        | CI COEFFICIENT
 1     2     3     | 1     2     3     |
-------------------|-------------------|---------------
  2     4     7    |  1     4     7    |   0.6947944611
  1     4     7    |  2     4     7    |  -0.6947944599
  2     4     7    |  3     4     7    |   0.0708165172
  3     4     7    |  2     4     7    |  -0.0708165171

 STATE   3  ENERGY=      -106.8620341646  S=  0.00  SZ=  0.00  SPACE SYM=A1  

      ALPHA        |       BETA        | CI COEFFICIENT
 1     2     3     | 1     2     3     |
-------------------|-------------------|---------------
  1     4     7    |  1     4     7    |   0.9640613053
  1     5     7    |  1     4     7    |   0.0977869907
  1     4     7    |  1     5     7    |   0.0977869907
  1     4     8    |  1     4     7    |   0.0977869659
  1     4     7    |  1     4     8    |   0.0977869659
  3     4     7    |  3     4     7    |  -0.0596577546
  1     4     8    |  1     4     8    |  -0.0502929275
  1     5     7    |  1     5     7    |  -0.0502928758

 STATE   4  ENERGY=      -106.4049089211  S=  1.00  SZ=  0.00  SPACE SYM=A1  

      ALPHA        |       BETA        | CI COEFFICIENT
 1     2     3     | 1     2     3     |
-------------------|-------------------|---------------
  1     5     7    |  1     4     7    |   0.4934263814
  1     4     7    |  1     5     7    |  -0.4934263814
  1     4     8    |  1     4     7    |   0.4934223594
  1     4     7    |  1     4     8    |  -0.4934223594

 STATE   5  ENERGY=      -106.3764017004  S=  1.00  SZ=  0.00  SPACE SYM=A1  

      ALPHA        |       BETA        | CI COEFFICIENT
 1     2     3     | 1     2     3     |
-------------------|-------------------|---------------
  1     4     7    |  1     4     8    |   0.4941664937
  1     4     8    |  1     4     7    |  -0.4941664937
  1     4     7    |  1     5     7    |  -0.4941624738
  1     5     7    |  1     4     7    |   0.4941624738

 STATE   6  ENERGY=      -106.3478447790  S=  0.00  SZ=  0.00  SPACE SYM=A1  

      ALPHA        |       BETA        | CI COEFFICIENT
 1     2     3     | 1     2     3     |
-------------------|-------------------|---------------
  1     5     7    |  1     4     7    |   0.4932794456
  1     4     7    |  1     5     7    |   0.4932794456
  1     4     8    |  1     4     7    |  -0.4932783880
  1     4     7    |  1     4     8    |  -0.4932783880
  1     5     7    |  1     5     7    |  -0.0670754874
  1     4     8    |  1     4     8    |   0.0670752867

 STATE   7  ENERGY=      -106.2397507772  S=  2.00  SZ=  0.00  SPACE SYM=A1  

      ALPHA        |       BETA        | CI COEFFICIENT
 1     2     3     | 1     2     3     |
-------------------|-------------------|---------------
        4  5  7    |  1  2        7    |   0.2757780597
  1  2        7    |        4  5  7    |   0.2757780597
  1     5     7    |  2     4     7    |   0.2757777800
  2     4     7    |  1     5     7    |   0.2757777799
  1     4     7    |  2     5     7    |  -0.2757777592
  2     5     7    |  1     4     7    |  -0.2757777592
        4     7  8 |  1  2  4          |   0.2757763504
  1  2  4          |        4     7  8 |   0.2757763504
  1     4     8    |  2     4     7    |   0.2757760583
  2     4     7    |  1     4     8    |   0.2757760583
  1     4     7    |  2     4     8    |  -0.2757756510
  2     4     8    |  1     4     7    |  -0.2757756510
  1     5     8    |  2     4     7    |  -0.0743039973
  2     4     7    |  1     5     8    |  -0.0743039972
  1     4     7    |  2     5     8    |   0.0672084000
  2     5     8    |  1     4     7    |   0.0672084000
        4  5  7    |  2  3        7    |  -0.0545961250
  2  3        7    |        4  5  7    |  -0.0545961250
  3     4     7    |  2     5     7    |  -0.0545960411
  2     5     7    |  3     4     7    |  -0.0545960411
  3     5     7    |  2     4     7    |   0.0545960346
  2     4     7    |  3     5     7    |   0.0545960346
        4     7  8 |  2  3  4          |  -0.0545957860
  2  3  4          |        4     7  8 |  -0.0545957860
  3     4     8    |  2     4     7    |   0.0545956948
  2     4     7    |  3     4     8    |   0.0545956948
  3     4     7    |  2     4     8    |  -0.0545956162
  2     4     8    |  3     4     7    |  -0.0545956162

 STATE   8  ENERGY=      -106.2397446137  S=  1.00  SZ=  0.00  SPACE SYM=A1  

      ALPHA        |       BETA        | CI COEFFICIENT
 1     2     3     | 1     2     3     |
-------------------|-------------------|---------------
  2     5     7    |  1     4     7    |   0.2757886206
  1     4     7    |  2     5     7    |  -0.2757886206
  2     4     8    |  1     4     7    |   0.2757829343
  1     4     7    |  2     4     8    |  -0.2757829343
  2     4     7    |  1     4     8    |  -0.2757729481
  1     4     8    |  2     4     7    |   0.2757729480
  2     4     7    |  1     5     7    |  -0.2757729211
  1     5     7    |  2     4     7    |   0.2757729210
  1  2  4          |        4     7  8 |  -0.2757700842
        4     7  8 |  1  2  4          |   0.2757700842
  1  2        7    |        4  5  7    |  -0.2757699673
        4  5  7    |  1  2        7    |   0.2757699672
  2     4     7    |  1     5     8    |   0.0743021856
  1     5     8    |  2     4     7    |  -0.0743021856
  2     5     8    |  1     4     7    |  -0.0672095499
  1     4     7    |  2     5     8    |   0.0672095499
  2     5     7    |  3     4     7    |   0.0545989590
  3     4     7    |  2     5     7    |  -0.0545989590
  2     4     8    |  3     4     7    |   0.0545977826
  3     4     7    |  2     4     8    |  -0.0545977826
  2     4     7    |  3     4     8    |  -0.0545965008
  3     4     8    |  2     4     7    |   0.0545965008
  2     4     7    |  3     5     7    |  -0.0545964775
  3     5     7    |  2     4     7    |   0.0545964774
  2  3  4          |        4     7  8 |   0.0545946961
        4     7  8 |  2  3  4          |  -0.0545946961
  2  3        7    |        4  5  7    |   0.0545946366
        4  5  7    |  2  3        7    |  -0.0545946366

 STATE   9  ENERGY=      -106.2175101677  S=  2.00  SZ=  0.00  SPACE SYM=A1  

      ALPHA        |       BETA        | CI COEFFICIENT
 1     2     3     | 1     2     3     |
-------------------|-------------------|---------------
        4     7  8 |  1  2  4          |   0.2751684471
  1  2  4          |        4     7  8 |   0.2751684468
  1     4     8    |  2     4     7    |   0.2751679150
  2     4     7    |  1     4     8    |   0.2751679147
  1     4     7    |  2     4     8    |  -0.2751668018
  2     4     8    |  1     4     7    |  -0.2751668015
        4  5  7    |  1  2        7    |  -0.2751662475
  1  2        7    |        4  5  7    |  -0.2751662472
  1     5     7    |  2     4     7    |  -0.2751661347
  2     4     7    |  1     5     7    |  -0.2751661344
  1     4     7    |  2     5     7    |   0.2751652005
  2     5     7    |  1     4     7    |   0.2751652002
  1     4     8    |  2     5     7    |  -0.0779987296
  2     5     7    |  1     4     8    |  -0.0779987295
  1     5     7    |  2     4     8    |   0.0779987174
  2     4     8    |  1     5     7    |   0.0779987173
        4     7  8 |  2  3  4          |  -0.0540995182
  2  3  4          |        4     7  8 |  -0.0540995182
  3     4     8    |  2     4     7    |   0.0540994252
  2     4     7    |  3     4     8    |   0.0540994252
  3     4     7    |  2     4     8    |  -0.0540991634
  2     4     8    |  3     4     7    |  -0.0540991634
        4  5  7    |  2  3        7    |   0.0540990971
  2  3        7    |        4  5  7    |   0.0540990970
  3     5     7    |  2     4     7    |  -0.0540990836
  2     4     7    |  3     5     7    |  -0.0540990836
  3     4     7    |  2     5     7    |   0.0540988500
  2     5     7    |  3     4     7    |   0.0540988499

 STATE  10  ENERGY=      -106.2175038801  S=  1.00  SZ=  0.00  SPACE SYM=A1  

      ALPHA        |       BETA        | CI COEFFICIENT
 1     2     3     | 1     2     3     |
-------------------|-------------------|---------------
  2     4     8    |  1     4     7    |   0.2752098679
  1     4     7    |  2     4     8    |  -0.2752098676
  2     5     7    |  1     4     7    |  -0.2752069531
  1     4     7    |  2     5     7    |   0.2752069528
  1  2  4          |        4     7  8 |  -0.2751469184
        4     7  8 |  1  2  4          |   0.2751469181
  1  2        7    |        4  5  7    |   0.2751463190
        4  5  7    |  1  2        7    |  -0.2751463187
  2     4     7    |  1     4     8    |  -0.2751443526
  1     4     8    |  2     4     7    |   0.2751443523
  2     4     7    |  1     5     7    |   0.2751423015
  1     5     7    |  2     4     7    |  -0.2751423012
  2     4     8    |  1     5     7    |  -0.0780009957
  1     5     7    |  2     4     8    |   0.0780009956
  2     5     7    |  1     4     8    |   0.0780008518
  1     4     8    |  2     5     7    |  -0.0780008517
  2     4     8    |  3     4     7    |   0.0541086690
  3     4     7    |  2     4     8    |  -0.0541086689
  2     5     7    |  3     4     7    |  -0.0541081356
  3     4     7    |  2     5     7    |   0.0541081356
  2     4     7    |  3     4     8    |  -0.0540959388
  3     4     8    |  2     4     7    |   0.0540959387
  2     4     7    |  3     5     7    |   0.0540954991
  3     5     7    |  2     4     7    |  -0.0540954990
  2  3  4          |        4     7  8 |   0.0540953504
        4     7  8 |  2  3  4          |  -0.0540953503
  2  3        7    |        4  5  7    |  -0.0540952484
        4  5  7    |  2  3        7    |   0.0540952484

 ..... DONE WITH ORMAS-CI COMPUTATION .....
 STEP CPU TIME =     0.14 TOTAL CPU TIME =        1.1 (    0.0 MIN)
 TOTAL WALL CLOCK TIME=        1.1 SECONDS, CPU UTILIZATION IS  99.11%

     -------------------------------------------------------
      ONE AND TWO PARTICLE ORMAS DENSITY MATRIX COMPUTATION
                  PROGRAM WRITTEN BY JOE IVANIC
     -------------------------------------------------------

 THE DENSITIES ARE STATE AVERAGED OVER   1 ROOT(S)
 STATE=   1   ENERGY=     -106.8879216913   WEIGHT= 1.00000   S=  0.00
 SIEVING THE A1   SYMMETRY NONZERO DENSITY ELEMENTS IN GROUP C2V     
        306 NONZERO DM2 ELEMENTS WRITTEN IN       1 RECORDS TO FILE 70 LABELED AS DEN2P1 
        306 NONZERO DM2 ELEMENTS WRITTEN IN       1 RECORDS TO FILE 71 LABELED AS DEN2P2 
        306 NONZERO DM2 ELEMENTS WRITTEN IN       1 RECORDS TO FILE 72 LABELED AS DEN2P3 
        306 NONZERO DM2 ELEMENTS WRITTEN IN       1 RECORDS TO FILE 73 LABELED AS DEN2P4 
        306 NONZERO DM2 ELEMENTS WRITTEN IN       1 RECORDS TO FILE 15
 ..... DONE WITH 1 AND 2 PARTICLE DENSITY MATRIX .....
 STEP CPU TIME =     0.01 TOTAL CPU TIME =        1.1 (    0.0 MIN)
 TOTAL WALL CLOCK TIME=        1.1 SECONDS, CPU UTILIZATION IS  99.12%

     --------------------------------     -----------------------------
     MCHF NEWTON-RAPHSON OPTIMIZATION     CODE WRITTEN BY MICHEL DUPUIS
     --------------------------------     -----------------------------
 FORMING FOCK OPERATOR OVER ACTIVE ORBITAL DENSITY, MEMORY=    110466
 STEP CPU TIME =     0.01 TOTAL CPU TIME =        1.1 (    0.0 MIN)
 TOTAL WALL CLOCK TIME=        1.1 SECONDS, CPU UTILIZATION IS  99.12%
 MEMORY DEMAND FOR 2 ELECTRON NTN-RPH CONTRIBUTIONS
      METHOD=DM2     NEEDS    532512 WORDS
      METHOD=TEI     NEEDS     97032 WORDS
 TOTAL AVAILABLE MEMORY IS   1000000 WORDS
 CHOOSING DM2 DRIVEN METHOD...
 FORMING -LGR- + -COU- + -EXC- FROM (IJ//KL) INTEGRALS
 STEP CPU TIME =     0.00 TOTAL CPU TIME =        1.1 (    0.0 MIN)
 TOTAL WALL CLOCK TIME=        1.1 SECONDS, CPU UTILIZATION IS  99.12%
 FORMING -LGR- + -COU- + -EXC- FROM (AJ//KL) INTEGRALS
 STEP CPU TIME =     0.01 TOTAL CPU TIME =        1.1 (    0.0 MIN)
 TOTAL WALL CLOCK TIME=        1.1 SECONDS, CPU UTILIZATION IS 100.00%
 FORMING         -COU-         FROM (AB//KL) INTEGRALS
 STEP CPU TIME =     0.00 TOTAL CPU TIME =        1.1 (    0.0 MIN)
 TOTAL WALL CLOCK TIME=        1.2 SECONDS, CPU UTILIZATION IS  99.13%
 FORMING                 -EXC- FROM (AJ//BL) INTEGRALS
 ..... DONE WITH 2 ELECTRON CONTRIBUTIONS .....
 STEP CPU TIME =     0.00 TOTAL CPU TIME =        1.1 (    0.0 MIN)
 TOTAL WALL CLOCK TIME=        1.2 SECONDS, CPU UTILIZATION IS  99.13%
 ..... DONE WITH 1 ELECTRON CONTRIBUTIONS .....
 STEP CPU TIME =     0.00 TOTAL CPU TIME =        1.1 (    0.0 MIN)
 TOTAL WALL CLOCK TIME=        1.2 SECONDS, CPU UTILIZATION IS  99.13%
 NUMBER OF INDEPENDENT ORBITAL ROTATION PARAMETERS =   284
 ..... DONE SOLVING NEWTON-RAPHSON EQUATIONS .....
 STEP CPU TIME =     0.01 TOTAL CPU TIME =        1.1 (    0.0 MIN)
 TOTAL WALL CLOCK TIME=        1.2 SECONDS, CPU UTILIZATION IS  99.14%
 ..... DONE WITH NTN-RPH ORBITAL ROTATIONS ..... 
 STEP CPU TIME =     0.00 TOTAL CPU TIME =        1.1 (    0.0 MIN)
 TOTAL WALL CLOCK TIME=        1.2 SECONDS, CPU UTILIZATION IS  99.14%
 MAXIMUM MEMORY USED BY NTN-RPH CODE WAS    532512 WORDS.

 ITER     TOTAL ENERGY      DEL(E)  LAGRANGIAN ASYMMETRY   SQCDF  MICIT   DAMP
   1     -106.887921691 -0.887921691  0.067076   71    4 7.725E-02  1   0.0000
   2     -106.894150903 -0.006229212  0.010248   71    4 5.000E-01  1   0.0000
   3     -106.895080980 -0.000930077  0.018668   65   10 5.000E-01  1   0.0000
   4     -106.898373181 -0.003292202  0.012380   65   10 3.237E-01  1   0.0000
   5     -106.900791664 -0.002418483  0.002601    4    3 7.866E-02  1   0.0000
   6     -106.901337050 -0.000545385  0.000952    4    3 4.030E-03  1   0.0000
   7     -106.901376772 -0.000039722  0.000236    4    3 2.509E-04  1   0.0000
   8     -106.901380712 -0.000003940  0.000069   64    6 2.957E-05  1   0.0000
   9     -106.901381323 -0.000000611  0.000030   64    6 4.604E-06  1   0.0000
  10     -106.901381426 -0.000000103  0.000013   64    6 7.945E-07  1   0.0000
  11     -106.901381449 -0.000000023  0.000005   64    6 1.409E-07  1   0.0000
  12     -106.901381458 -0.000000008  0.000002   64    6 2.541E-08  1   0.0000
  13     -106.901381486 -0.000000028  0.000001   64    6 4.475E-09  1   0.0000
  14     -106.901381473  0.000000014  0.000001   64    6 4.512E-09  1   0.0000
  15     -106.901381455  0.000000018  0.000001   64    6 4.534E-09  1   0.0000
  16     -106.901381479 -0.000000024  0.000001   64    6 4.537E-09  1   0.0000
  17     -106.901381488 -0.000000009  0.000001   64    6 4.518E-09  1   0.0000

          --------------------
          LAGRANGIAN CONVERGED
          --------------------

 FINAL MCSCF ENERGY IS     -106.9013814878 AFTER  17 ITERATIONS

 -MCCI- BASED ON OPTIMIZED ORBITALS
 ----------------------------------

 PLEASE NOTE: ORMAS IS NOT INVARIANT TO ORBITAL ROTATIONS BETWEEN THE
 DIFFERENT ACTIVE SPACES.  THE CI EXPANSION JUST BELOW IS FOR THE
 OPTIMIZED ORBITALS USED IN THE LAST ITERATION.  THE NATURAL ORBITALS
 ARE GENERATED BELOW, BUT THE NO'S ROTATE BETWEEN THE ACTIVE SPACES,
 SO THE NATURAL ORBITALS DO NOT REPRODUCE THE ORMAS WAVEFUNCTION.

 CI EIGENVECTORS WILL BE LABELED IN GROUP=C2V     
 PRINTING CI COEFFICIENTS LARGER THAN  0.050000

 STATE   1  ENERGY=      -106.9013814878  S=  0.00  SZ=  0.00  SPACE SYM=A1  

      ALPHA        |       BETA        | CI COEFFICIENT
 1     2     3     | 1     2     3     |
-------------------|-------------------|---------------
  2     4     7    |  1     4     7    |   0.6941461667
  1     4     7    |  2     4     7    |   0.6941461666
  2     4     7    |  3     4     7    |   0.0709537608
  3     4     7    |  2     4     7    |   0.0709537608

 STATE   2  ENERGY=      -106.9013748340  S=  1.00  SZ=  0.00  SPACE SYM=A1  

      ALPHA        |       BETA        | CI COEFFICIENT
 1     2     3     | 1     2     3     |
-------------------|-------------------|---------------
  1     4     7    |  2     4     7    |   0.6941960828
  2     4     7    |  1     4     7    |  -0.6941960828
  3     4     7    |  2     4     7    |   0.0709533033
  2     4     7    |  3     4     7    |  -0.0709533033

 STATE   3  ENERGY=      -106.8043833671  S=  0.00  SZ=  0.00  SPACE SYM=A1  

      ALPHA        |       BETA        | CI COEFFICIENT
 1     2     3     | 1     2     3     |
-------------------|-------------------|---------------
  1     4     7    |  1     4     7    |   0.9866047318

 STATE   4  ENERGY=      -106.1497427854  S=  0.00  SZ=  0.00  SPACE SYM=A1  

      ALPHA        |       BETA        | CI COEFFICIENT
 1     2     3     | 1     2     3     |
-------------------|-------------------|---------------
  2     4     7    |  2     4     7    |   0.9601834342
  2     4     7    |  2     4     8    |  -0.1066281529
  2     4     8    |  2     4     7    |  -0.1066281529
  2     4     7    |  2     5     7    |  -0.1066280931
  2     5     7    |  2     4     7    |  -0.1066280931
  2     4     7    |  2     6     7    |  -0.0835097404
  2     6     7    |  2     4     7    |  -0.0835097404
  2     4     7    |  2     4     9    |  -0.0835096214
  2     4     9    |  2     4     7    |  -0.0835096214

 STATE   5  ENERGY=      -105.4059282283  S=  1.00  SZ=  0.00  SPACE SYM=A1  

      ALPHA        |       BETA        | CI COEFFICIENT
 1     2     3     | 1     2     3     |
-------------------|-------------------|---------------
  2     6     7    |  1     4     7    |   0.2198883088
  1     4     7    |  2     6     7    |  -0.2198883088
  2     4     9    |  1     4     7    |   0.2198872333
  1     4     7    |  2     4     9    |  -0.2198872332
  2     4     7    |  1     6     7    |  -0.2198845678
  1     6     7    |  2     4     7    |   0.2198845677
  2     4     7    |  1     4     9    |  -0.2198834959
  1     4     9    |  2     4     7    |   0.2198834958
  1  2        7    |        4  6  7    |  -0.2198755777
        4  6  7    |  1  2        7    |   0.2198755776
  1  2  4          |        4     7  9 |  -0.2198745043
        4     7  9 |  1  2  4          |   0.2198745043
  2     5     7    |  1     4     7    |   0.1808997226
  1     4     7    |  2     5     7    |  -0.1808997226
  2     4     8    |  1     4     7    |   0.1808991504
  1     4     7    |  2     4     8    |  -0.1808991503
  2     4     7    |  1     5     7    |  -0.1808962829
  1     5     7    |  2     4     7    |   0.1808962829
  2     4     7    |  1     4     8    |  -0.1808957143
  1     4     8    |  2     4     7    |   0.1808957142
  1  2        7    |        4  5  7    |  -0.1808886710
        4  5  7    |  1  2        7    |   0.1808886709
  1  2  4          |        4     7  8 |  -0.1808881028
        4     7  8 |  1  2  4          |   0.1808881028

 STATE   6  ENERGY=      -105.4059236489  S=  2.00  SZ=  0.00  SPACE SYM=A1  

      ALPHA        |       BETA        | CI COEFFICIENT
 1     2     3     | 1     2     3     |
-------------------|-------------------|---------------
        4  6  7    |  1  2        7    |   0.2198990553
  1  2        7    |        4  6  7    |   0.2198990552
  1     6     7    |  2     4     7    |   0.2198981492
  2     4     7    |  1     6     7    |   0.2198981492
  1     4     7    |  2     6     7    |  -0.2198980190
  2     6     7    |  1     4     7    |  -0.2198980190
        4     7  9 |  1  2  4          |   0.2198979812
  1  2  4          |        4     7  9 |   0.2198979811
  1     4     9    |  2     4     7    |   0.2198970754
  2     4     7    |  1     4     9    |   0.2198970753
  1     4     7    |  2     4     9    |  -0.2198969455
  2     4     9    |  1     4     7    |  -0.2198969454
        4  5  7    |  1  2        7    |   0.1809083402
  1  2        7    |        4  5  7    |   0.1809083401
        4     7  8 |  1  2  4          |   0.1809077698
  1  2  4          |        4     7  8 |   0.1809077698
  1     5     7    |  2     4     7    |   0.1809075826
  2     4     7    |  1     5     7    |   0.1809075825
  1     4     7    |  2     5     7    |  -0.1809074112
  2     5     7    |  1     4     7    |  -0.1809074112
  1     4     8    |  2     4     7    |   0.1809070125
  2     4     7    |  1     4     8    |   0.1809070124
  1     4     7    |  2     4     8    |  -0.1809068413
  2     4     8    |  1     4     7    |  -0.1809068413

 STATE   7  ENERGY=      -105.3387175767  S=  1.00  SZ=  0.00  SPACE SYM=A1  

      ALPHA        |       BETA        | CI COEFFICIENT
 1     2     3     | 1     2     3     |
-------------------|-------------------|---------------
  2     4     9    |  1     4     7    |   0.2199155243
  1     4     7    |  2     4     9    |  -0.2199155241
  2     6     7    |  1     4     7    |  -0.2199147575
  1     4     7    |  2     6     7    |   0.2199147573
  2     4     7    |  1     4     9    |  -0.2199116675
  1     4     9    |  2     4     7    |   0.2199116672
  2     4     7    |  1     6     7    |   0.2199109047
  1     6     7    |  2     4     7    |  -0.2199109045
  1  2  4          |        4     7  9 |  -0.2199076624
        4     7  9 |  1  2  4          |   0.2199076622
  1  2        7    |        4  6  7    |   0.2199068995
        4  6  7    |  1  2        7    |  -0.2199068992
  2     4     8    |  1     4     7    |   0.1809374437
  1     4     7    |  2     4     8    |  -0.1809374435
  2     5     7    |  1     4     7    |  -0.1809364989
  1     4     7    |  2     5     7    |   0.1809364987
  2     4     7    |  1     4     8    |  -0.1809339904
  1     4     8    |  2     4     7    |   0.1809339902
  2     4     7    |  1     5     7    |   0.1809330474
  1     5     7    |  2     4     7    |  -0.1809330472
  1  2  4          |        4     7  8 |  -0.1809305500
        4     7  8 |  1  2  4          |   0.1809305498
  1  2        7    |        4  5  7    |   0.1809296009
        4  5  7    |  1  2        7    |  -0.1809296007

 STATE   8  ENERGY=      -105.3387137633  S=  2.00  SZ=  0.00  SPACE SYM=A1  

      ALPHA        |       BETA        | CI COEFFICIENT
 1     2     3     | 1     2     3     |
-------------------|-------------------|---------------
        4     7  9 |  1  2  4          |   0.2199247736
  1  2  4          |        4     7  9 |   0.2199247733
  1     4     9    |  2     4     7    |   0.2199242771
  2     4     7    |  1     4     9    |   0.2199242769
  1     4     7    |  2     4     9    |  -0.2199240979
  2     4     9    |  1     4     7    |  -0.2199240976
        4  6  7    |  1  2        7    |  -0.2199240121
  1  2        7    |        4  6  7    |  -0.2199240119
  1     6     7    |  2     4     7    |  -0.2199235104
  2     4     7    |  1     6     7    |  -0.2199235102
  1     4     7    |  2     6     7    |   0.2199233302
  2     6     7    |  1     4     7    |   0.2199233300
        4     7  8 |  1  2  4          |   0.1809449335
  1  2  4          |        4     7  8 |   0.1809449333
  1     4     8    |  2     4     7    |   0.1809444626
  2     4     7    |  1     4     8    |   0.1809444624
  1     4     7    |  2     4     8    |  -0.1809443010
  2     4     8    |  1     4     7    |  -0.1809443008
        4  5  7    |  1  2        7    |  -0.1809439913
  1  2        7    |        4  5  7    |  -0.1809439910
  1     5     7    |  2     4     7    |  -0.1809435161
  2     4     7    |  1     5     7    |  -0.1809435159
  1     4     7    |  2     5     7    |   0.1809433535
  2     5     7    |  1     4     7    |   0.1809433533

 STATE   9  ENERGY=      -105.3362900477  S=  1.00  SZ=  0.00  SPACE SYM=A1  

      ALPHA        |       BETA        | CI COEFFICIENT
 1     2     3     | 1     2     3     |
-------------------|-------------------|---------------
  1     4     7    |  1     6     7    |   0.3671340150
  1     6     7    |  1     4     7    |  -0.3671340150
  1     4     7    |  1     4     9    |   0.3671326589
  1     4     9    |  1     4     7    |  -0.3671326589
  1     5     7    |  1     4     7    |  -0.3025343980
  1     4     7    |  1     5     7    |   0.3025343980
  1     4     8    |  1     4     7    |  -0.3025338070
  1     4     7    |  1     4     8    |   0.3025338070
  1     4     7    |  3     4     7    |  -0.1956003516
  3     4     7    |  1     4     7    |   0.1956003516

 STATE  10  ENERGY=      -105.3254872171  S=  1.00  SZ=  0.00  SPACE SYM=A1  

      ALPHA        |       BETA        | CI COEFFICIENT
 1     2     3     | 1     2     3     |
-------------------|-------------------|---------------
  1  2        7    |        4  6  7    |   0.2945294747
        4  6  7    |  1  2        7    |  -0.2945294747
  1  2  4          |        4     7  9 |   0.2945284522
        4     7  9 |  1  2  4          |  -0.2945284522
  1  2        7    |        4  5  7    |   0.2423009559
        4  5  7    |  1  2        7    |  -0.2423009559
  1  2  4          |        4     7  8 |   0.2423005466
        4     7  8 |  1  2  4          |  -0.2423005466
  2     4     7    |  3     4     7    |   0.1970298137
  3     4     7    |  2     4     7    |  -0.1970298137
  2     6     7    |  1     4     7    |   0.1885567507
  1     4     7    |  2     6     7    |  -0.1885567507
  1     4     7    |  2     4     9    |  -0.1885560334
  2     4     9    |  1     4     7    |   0.1885560334
  1     4     7    |  2     5     7    |  -0.1560072378
  2     5     7    |  1     4     7    |   0.1560072378
  1     4     7    |  2     4     8    |  -0.1560069213
  2     4     8    |  1     4     7    |   0.1560069213
  1     6     7    |  2     4     7    |   0.1062515164
  2     4     7    |  1     6     7    |  -0.1062515164
  1     4     9    |  2     4     7    |   0.1062512170
  2     4     7    |  1     4     9    |  -0.1062512170
  1     5     7    |  2     4     7    |   0.0865240185
  2     4     7    |  1     5     7    |  -0.0865240185
  1     4     8    |  2     4     7    |   0.0865239231
  2     4     7    |  1     4     8    |  -0.0865239231

 DENSITY MATRIX OVER ACTIVE MO-S

             1           2           3           4           5

    1    0.9865435
    2    0.0129102   0.9998675
    3    0.0953669  -0.0013711   0.0135890
    4    0.0000000   0.0000000   0.0000000   1.9818928
    5    0.0000000   0.0000000   0.0000000  -0.0958108   0.0101931
    6    0.0000000   0.0000000   0.0000000  -0.0275450   0.0063449
    7    0.0000000   0.0000000   0.0000000   0.0000000   0.0000000
    8    0.0000000   0.0000000   0.0000000   0.0000000   0.0000000
    9    0.0000000   0.0000000   0.0000000   0.0000000   0.0000000

             6           7           8           9

    6    0.0079141
    7    0.0000000   1.9818928
    8    0.0000000  -0.0958108   0.0101931
    9    0.0000000  -0.0275448   0.0063449   0.0079141

 FORMING THE "STANDARD FOCK OPERATOR" USING INTEGRALS FROM DISK...
     3 FILLED,    9 ACTIVE, AND   78 VIRTUAL ORBITALS  WILL BE CANONICALIZED

          ----------------------
          MCSCF NATURAL ORBITALS
          ----------------------

                      1          2          3          4          5
                  -26.3967    -2.4776    -1.5849     1.9869     1.9869
                     A1         A1         A1         B1         B2  
    1  LI 1  S    0.000000   0.617171   0.000003  -0.000000  -0.000000
    2  LI 1  S   -0.000000   0.429763   0.000026  -0.000000  -0.000000
    3  LI 1  X    0.000000  -0.000000  -0.000000  -0.000022  -0.000000
    4  LI 1  Y    0.000000  -0.000000  -0.000000  -0.000000  -0.000022
    5  LI 1  Z   -0.000000   0.000016   0.000031  -0.000000  -0.000000
    6  LI 1  S    0.000007   0.002410   0.000180  -0.000000  -0.000000
    7  LI 1  X    0.000000  -0.000000  -0.000000   0.000202  -0.000000
    8  LI 1  Y    0.000000  -0.000000  -0.000000  -0.000000   0.000202
    9  LI 1  Z    0.000001   0.000030  -0.000269  -0.000000  -0.000000
   10  LI 1  S   -0.000015   0.004543  -0.000919  -0.000000  -0.000000
   11  LI 1  X    0.000000  -0.000000  -0.000000  -0.000381  -0.000000
   12  LI 1  Y    0.000000  -0.000000  -0.000000  -0.000000  -0.000381
   13  LI 1  Z    0.000004  -0.000014   0.000262  -0.000000  -0.000000
   14  LI 1  S    0.000010  -0.000459   0.000267  -0.000000  -0.000000
   15  LI 1  X    0.000000  -0.000000  -0.000000   0.000594  -0.000000
   16  LI 1  Y    0.000000  -0.000000  -0.000000  -0.000000   0.000594
   17  LI 1  Z   -0.000010   0.000002  -0.000237  -0.000000  -0.000000
   18  LI 1 XX   -0.000000  -0.000731   0.000013  -0.000000  -0.000000
   19  LI 1 YY   -0.000000  -0.000731   0.000013  -0.000000  -0.000000
   20  LI 1 ZZ    0.000000  -0.000731   0.000013  -0.000000  -0.000000
   21  LI 1 XY    0.000000  -0.000000  -0.000000  -0.000000  -0.000000
   22  LI 1 XZ    0.000000  -0.000000  -0.000000  -0.000003  -0.000000
   23  LI 1 YZ    0.000000  -0.000000  -0.000000  -0.000000  -0.000003
   24  LI 1 XX   -0.000000  -0.001670   0.000047  -0.000000  -0.000000
   25  LI 1 YY   -0.000000  -0.001670   0.000047  -0.000000  -0.000000
   26  LI 1 ZZ   -0.000001  -0.001671   0.000050  -0.000000  -0.000000
   27  LI 1 XY    0.000000  -0.000000  -0.000000  -0.000000  -0.000000
   28  LI 1 XZ    0.000000  -0.000000  -0.000000   0.000017  -0.000000
   29  LI 1 YZ    0.000000  -0.000000  -0.000000  -0.000000   0.000017
   30  LI 1 XX    0.000001  -0.001726   0.000215  -0.000000  -0.000000
   31  LI 1 YY    0.000001  -0.001726   0.000215  -0.000000  -0.000000
   32  LI 1 ZZ    0.000003  -0.001724   0.000211  -0.000000  -0.000000
   33  LI 1 XY    0.000000  -0.000000  -0.000000  -0.000000  -0.000000
   34  LI 1 XZ    0.000000  -0.000000  -0.000000  -0.000051  -0.000000
   35  LI 1 YZ    0.000000  -0.000000  -0.000000  -0.000000  -0.000051
   36  LI 1 XXX   0.000000  -0.000000  -0.000000  -0.000044  -0.000000
   37  LI 1 YYY   0.000000  -0.000000  -0.000000  -0.000000  -0.000044
   38  LI 1 ZZZ  -0.000001  -0.000019   0.000083  -0.000000  -0.000000
   39  LI 1 XXY   0.000000  -0.000000  -0.000000  -0.000000  -0.000019
   40  LI 1 XXZ  -0.000000  -0.000008   0.000037  -0.000000  -0.000000
   41  LI 1 YYX   0.000000  -0.000000  -0.000000  -0.000019  -0.000000
   42  LI 1 YYZ  -0.000000  -0.000008   0.000037  -0.000000  -0.000000
   43  LI 1 ZZX   0.000000  -0.000000  -0.000000  -0.000017  -0.000000
   44  LI 1 ZZY   0.000000  -0.000000  -0.000000  -0.000000  -0.000017
   45  LI 1 XYZ   0.000000  -0.000000  -0.000000  -0.000000  -0.000000
   46  F  2  S    0.547571  -0.000000  -0.125679  -0.000000  -0.000000
   47  F  2  S    0.474358   0.000001  -0.235577  -0.000000  -0.000000
   48  F  2  X    0.000000  -0.000000  -0.000000   0.320445  -0.000000
   49  F  2  Y    0.000000  -0.000000  -0.000000  -0.000000   0.320445
   50  F  2  Z    0.000000   0.000005  -0.000003  -0.000000  -0.000000
   51  F  2  S    0.002618   0.000001   0.667811  -0.000000  -0.000000
   52  F  2  X    0.000000  -0.000000  -0.000000   0.478918  -0.000000
   53  F  2  Y    0.000000  -0.000000  -0.000000  -0.000000   0.478918
   54  F  2  Z   -0.000001  -0.000000  -0.000003  -0.000000  -0.000000
   55  F  2  S   -0.004405  -0.000008   0.708856  -0.000000  -0.000000
   56  F  2  X    0.000000  -0.000000  -0.000000   0.398584  -0.000000
   57  F  2  Y    0.000000  -0.000000  -0.000000  -0.000000   0.398584
   58  F  2  Z    0.000001   0.000025  -0.000009  -0.000000  -0.000000
   59  F  2  S   -0.000097  -0.000002   0.011871  -0.000000  -0.000000
   60  F  2  X    0.000000  -0.000000  -0.000000   0.049412  -0.000000
   61  F  2  Y    0.000000  -0.000000  -0.000000  -0.000000   0.049412
   62  F  2  Z   -0.000001  -0.000034   0.000004  -0.000000  -0.000000
   63  F  2 XX    0.000794   0.000000  -0.014247  -0.000000  -0.000000
   64  F  2 YY    0.000794   0.000000  -0.014247  -0.000000  -0.000000
   65  F  2 ZZ    0.000965   0.000000  -0.015175  -0.000000  -0.000000
   66  F  2 XY    0.000000  -0.000000  -0.000000  -0.000000  -0.000000
   67  F  2 XZ    0.000000  -0.000000  -0.000000  -0.000000  -0.000000
   68  F  2 YZ    0.000000  -0.000000  -0.000000  -0.000000  -0.000000
   69  F  2 XX    0.001919   0.000001  -0.048749  -0.000000  -0.000000
   70  F  2 YY    0.001919   0.000001  -0.048749  -0.000000  -0.000000
   71  F  2 ZZ    0.001394   0.000002  -0.049004  -0.000000  -0.000000
   72  F  2 XY    0.000000  -0.000000  -0.000000  -0.000000  -0.000000
   73  F  2 XZ    0.000000  -0.000000  -0.000000  -0.000000  -0.000000
   74  F  2 YZ    0.000000  -0.000000  -0.000000  -0.000000  -0.000000
   75  F  2 XX    0.001338   0.000005  -0.077752  -0.000000  -0.000000
   76  F  2 YY    0.001338   0.000005  -0.077752  -0.000000  -0.000000
   77  F  2 ZZ    0.001317   0.000001  -0.082935  -0.000000  -0.000000
   78  F  2 XY    0.000000  -0.000000  -0.000000  -0.000000  -0.000000
   79  F  2 XZ    0.000000  -0.000000  -0.000000  -0.000003  -0.000000
   80  F  2 YZ    0.000000  -0.000000  -0.000000  -0.000000  -0.000003
   81  F  2 XXX   0.000000  -0.000000  -0.000000  -0.003504  -0.000000
   82  F  2 YYY   0.000000  -0.000000  -0.000000  -0.000000  -0.003504
   83  F  2 ZZZ   0.000000   0.000001  -0.000000  -0.000000  -0.000000
   84  F  2 XXY   0.000000  -0.000000  -0.000000  -0.000000  -0.001585
   85  F  2 XXZ   0.000000   0.000000  -0.000000  -0.000000  -0.000000
   86  F  2 YYX   0.000000  -0.000000  -0.000000  -0.001585  -0.000000
   87  F  2 YYZ   0.000000   0.000000  -0.000000  -0.000000  -0.000000
   88  F  2 ZZX   0.000000  -0.000000  -0.000000   0.003275  -0.000000
   89  F  2 ZZY   0.000000  -0.000000  -0.000000  -0.000000   0.003275
   90  F  2 XYZ   0.000000  -0.000000  -0.000000  -0.000000  -0.000000

                      6          7          8          9         10
                    1.0107     0.9850     0.0116     0.0116     0.0043
                     A1         A1         B2         B1         A1  
    1  LI 1  S   -0.074238  -0.063069  -0.000000  -0.000000   0.000407
    2  LI 1  S   -0.113748  -0.095663  -0.000000  -0.000000  -0.001419
    3  LI 1  X   -0.000000  -0.000000  -0.000000  -0.000070   0.000000
    4  LI 1  Y   -0.000000  -0.000000  -0.000070  -0.000000   0.000000
    5  LI 1  Z   -0.000706   0.000287  -0.000000  -0.000000  -0.001748
    6  LI 1  S    0.474154   0.402541  -0.000000  -0.000000  -0.001396
    7  LI 1  X   -0.000000  -0.000000  -0.000000   0.000633   0.000000
    8  LI 1  Y   -0.000000  -0.000000   0.000633  -0.000000   0.000000
    9  LI 1  Z    0.003301  -0.004663  -0.000000  -0.000000   0.014731
   10  LI 1  S    0.225963   0.175654  -0.000000  -0.000000   0.031606
   11  LI 1  X   -0.000000  -0.000000  -0.000000  -0.001056   0.000000
   12  LI 1  Y   -0.000000  -0.000000  -0.001056  -0.000000   0.000000
   13  LI 1  Z   -0.003295   0.001680  -0.000000  -0.000000  -0.008750
   14  LI 1  S    0.008415   0.008462  -0.000000  -0.000000  -0.002601
   15  LI 1  X   -0.000000  -0.000000  -0.000000   0.001560   0.000000
   16  LI 1  Y   -0.000000  -0.000000   0.001560  -0.000000   0.000000
   17  LI 1  Z    0.000405  -0.000271  -0.000000  -0.000000   0.001121
   18  LI 1 XX    0.001027   0.001391  -0.000000  -0.000000  -0.001069
   19  LI 1 YY    0.001027   0.001391  -0.000000  -0.000000  -0.001069
   20  LI 1 ZZ    0.001055   0.001373  -0.000000  -0.000000  -0.000999
   21  LI 1 XY   -0.000000  -0.000000  -0.000000  -0.000000   0.000000
   22  LI 1 XZ   -0.000000  -0.000000  -0.000000  -0.000007   0.000000
   23  LI 1 YZ   -0.000000  -0.000000  -0.000007  -0.000000   0.000000
   24  LI 1 XX    0.026214   0.024277  -0.000000  -0.000000  -0.004328
   25  LI 1 YY    0.026214   0.024277  -0.000000  -0.000000  -0.004328
   26  LI 1 ZZ    0.026073   0.024391  -0.000000  -0.000000  -0.004739
   27  LI 1 XY   -0.000000  -0.000000  -0.000000  -0.000000   0.000000
   28  LI 1 XZ   -0.000000  -0.000000  -0.000000   0.000042   0.000000
   29  LI 1 YZ   -0.000000  -0.000000   0.000042  -0.000000   0.000000
   30  LI 1 XX    0.029412   0.030678  -0.000000  -0.000000  -0.011660
   31  LI 1 YY    0.029412   0.030678  -0.000000  -0.000000  -0.011660
   32  LI 1 ZZ    0.030321   0.030818  -0.000000  -0.000000  -0.010505
   33  LI 1 XY   -0.000000  -0.000000  -0.000000  -0.000000   0.000000
   34  LI 1 XZ   -0.000000  -0.000000  -0.000000  -0.000126   0.000000
   35  LI 1 YZ   -0.000000  -0.000000  -0.000126  -0.000000   0.000000
   36  LI 1 XXX  -0.000000  -0.000000  -0.000000  -0.000152   0.000000
   37  LI 1 YYY  -0.000000  -0.000000  -0.000152  -0.000000   0.000000
   38  LI 1 ZZZ  -0.001478   0.001428  -0.000000  -0.000000  -0.005308
   39  LI 1 XXY  -0.000000  -0.000000  -0.000068  -0.000000   0.000000
   40  LI 1 XXZ  -0.000625   0.000664  -0.000000  -0.000000  -0.002367
   41  LI 1 YYX  -0.000000  -0.000000  -0.000000  -0.000068   0.000000
   42  LI 1 YYZ  -0.000625   0.000664  -0.000000  -0.000000  -0.002367
   43  LI 1 ZZX  -0.000000  -0.000000  -0.000000  -0.000062   0.000000
   44  LI 1 ZZY  -0.000000  -0.000000  -0.000062  -0.000000   0.000000
   45  LI 1 XYZ  -0.000000  -0.000000  -0.000000  -0.000000   0.000000
   46  F  2  S    0.000062   0.000057  -0.000000  -0.000000  -0.000004
   47  F  2  S    0.000123   0.000096  -0.000000  -0.000000   0.000028
   48  F  2  X   -0.000000  -0.000000  -0.000000  -0.556888   0.000000
   49  F  2  Y   -0.000000  -0.000000  -0.556888  -0.000000   0.000000
   50  F  2  Z    0.211894  -0.250716  -0.000000  -0.000000  -0.588307
   51  F  2  S   -0.000342  -0.000364  -0.000000  -0.000000   0.000108
   52  F  2  X   -0.000000  -0.000000  -0.000000  -0.554104   0.000000
   53  F  2  Y   -0.000000  -0.000000  -0.554104  -0.000000   0.000000
   54  F  2  Z    0.327580  -0.387850  -0.000000  -0.000000  -0.470729
   55  F  2  S   -0.000665  -0.000363  -0.000000  -0.000000  -0.000395
   56  F  2  X   -0.000000  -0.000000  -0.000000   0.831436   0.000000
   57  F  2  Y   -0.000000  -0.000000   0.831436  -0.000000   0.000000
   58  F  2  Z    0.244814  -0.288520  -0.000000  -0.000000   0.863059
   59  F  2  S   -0.000378  -0.000018  -0.000000  -0.000000  -0.000631
   60  F  2  X   -0.000000  -0.000000  -0.000000   0.118863   0.000000
   61  F  2  Y   -0.000000  -0.000000   0.118863  -0.000000   0.000000
   62  F  2  Z    0.016399  -0.015870  -0.000000  -0.000000   0.067907
   63  F  2 XX    0.000009  -0.000002  -0.000000  -0.000000   0.000024
   64  F  2 YY    0.000009  -0.000002  -0.000000  -0.000000   0.000024
   65  F  2 ZZ    0.000013   0.000002  -0.000000  -0.000000   0.000010
   66  F  2 XY   -0.000000  -0.000000  -0.000000  -0.000000   0.000000
   67  F  2 XZ   -0.000000  -0.000000  -0.000000  -0.000001   0.000000
   68  F  2 YZ   -0.000000  -0.000000  -0.000001  -0.000000   0.000000
   69  F  2 XX    0.000030  -0.000010  -0.000000  -0.000000   0.000101
   70  F  2 YY    0.000030  -0.000010  -0.000000  -0.000000   0.000101
   71  F  2 ZZ    0.000049   0.000001  -0.000000  -0.000000   0.000030
   72  F  2 XY   -0.000000  -0.000000  -0.000000  -0.000000   0.000000
[...]

     1     -105.3362900107     0.00006394
     1     -105.3255037762     0.00000151

     2     -105.3362900382     0.00013424
     2     -105.3255037762     0.00000049


 CONVERGED STATE   10 ENERGY=     -105.3255037762 IN   21 ITERS

     0     -105.3362900382     0.00013424
     1     -105.3362900438     0.00005255
     2     -105.3362900450     0.00003058
     3     -105.3362900455     0.00003189
     4     -105.3362900466     0.00002258
     5     -105.3362900470     0.00002413
     6     -105.3362900476     0.00001740
     7     -105.3362900477     0.00000505
     8     -105.3362900477     0.00000124
     9     -105.3362900477     0.00000029

 CONVERGED STATE    9 ENERGY=     -105.3362900477 IN   31 ITERS

 ALL STATES CONVERGED.

 CI EIGENVECTORS WILL BE LABELED IN GROUP=C2V     
 PRINTING CI COEFFICIENTS LARGER THAN  0.050000

 STATE   1  ENERGY=      -106.9013813718  S=  0.00  SZ=  0.00  SPACE SYM=A1  

      ALPHA        |       BETA        | CI COEFFICIENT
 1     2     3     | 1     2     3     |
-------------------|-------------------|---------------
  2     4     7    |  1     4     7    |   0.7003386518
  1     4     7    |  2     4     7    |   0.7003386517

 STATE   2  ENERGY=      -106.9013749500  S=  1.00  SZ=  0.00  SPACE SYM=A1  

      ALPHA        |       BETA        | CI COEFFICIENT
 1     2     3     | 1     2     3     |
-------------------|-------------------|---------------
  1     4     7    |  2     4     7    |   0.7004044431
  2     4     7    |  1     4     7    |  -0.7004044431

 STATE   3  ENERGY=      -106.8043833671  S=  0.00  SZ=  0.00  SPACE SYM=A1  

      ALPHA        |       BETA        | CI COEFFICIENT
 1     2     3     | 1     2     3     |
-------------------|-------------------|---------------
  1     4     7    |  1     4     7    |   0.9787633725
  1     4     7    |  1     6     7    |   0.0758258518
  1     6     7    |  1     4     7    |   0.0758258518
  1     4     7    |  1     4     9    |   0.0758258356
  1     4     9    |  1     4     7    |   0.0758258356

 STATE   4  ENERGY=      -106.1497427854  S=  0.00  SZ=  0.00  SPACE SYM=A1  

      ALPHA        |       BETA        | CI COEFFICIENT
 1     2     3     | 1     2     3     |
-------------------|-------------------|---------------
  2     4     7    |  2     4     7    |   0.9806999998
  2     4     7    |  2     6     7    |  -0.0879884116
  2     6     7    |  2     4     7    |  -0.0879884116
  2     4     7    |  2     4     9    |  -0.0879884026
  2     4     9    |  2     4     7    |  -0.0879884026

 STATE   5  ENERGY=      -105.4059282482  S=  1.00  SZ=  0.00  SPACE SYM=A1  

      ALPHA        |       BETA        | CI COEFFICIENT
 1     2     3     | 1     2     3     |
-------------------|-------------------|---------------
  1     4     7    |  2     6     7    |   0.2868193566
  2     6     7    |  1     4     7    |  -0.2868193565
  1     4     7    |  2     4     9    |   0.2868181558
  2     4     9    |  1     4     7    |  -0.2868181558
  1     6     7    |  2     4     7    |  -0.2868141707
  2     4     7    |  1     6     7    |   0.2868141707
  1     4     9    |  2     4     7    |  -0.2868129698
  2     4     7    |  1     4     9    |   0.2868129698
        4  6  7    |  1  2        7    |  -0.2868095627
  1  2        7    |        4  6  7    |   0.2868095626
        4     7  9 |  1  2  4          |  -0.2868083647
  1  2  4          |        4     7  9 |   0.2868083647

 STATE   6  ENERGY=      -105.4059236290  S=  2.00  SZ=  0.00  SPACE SYM=A1  

      ALPHA        |       BETA        | CI COEFFICIENT
 1     2     3     | 1     2     3     |
-------------------|-------------------|---------------
  2     4     7    |  1     6     7    |   0.2868396983
  1     6     7    |  2     4     7    |   0.2868396982
  2     6     7    |  1     4     7    |  -0.2868396860
  1     4     7    |  2     6     7    |  -0.2868396860
  1  2        7    |        4  6  7    |   0.2868396476
        4  6  7    |  1  2        7    |   0.2868396476
  2     4     7    |  1     4     9    |   0.2868384982
  1     4     9    |  2     4     7    |   0.2868384982
  2     4     9    |  1     4     7    |  -0.2868384859
  1     4     7    |  2     4     9    |  -0.2868384859
  1  2  4          |        4     7  9 |   0.2868384476
        4     7  9 |  1  2  4          |   0.2868384475

 STATE   7  ENERGY=      -105.3387176671  S=  1.00  SZ=  0.00  SPACE SYM=A1  

      ALPHA        |       BETA        | CI COEFFICIENT
 1     2     3     | 1     2     3     |
-------------------|-------------------|---------------
  2     4     9    |  1     4     7    |   0.2868955080
  1     4     7    |  2     4     9    |  -0.2868955080
  2     6     7    |  1     4     7    |  -0.2868943075
  1     4     7    |  2     6     7    |   0.2868943074
  1  2  4          |        4     7  9 |  -0.2868912389
        4     7  9 |  1  2  4          |   0.2868912389
  2     4     7    |  1     4     9    |  -0.2868903104
  1     4     9    |  2     4     7    |   0.2868903104
  1  2        7    |        4  6  7    |   0.2868900403
        4  6  7    |  1  2        7    |  -0.2868900403
  2     4     7    |  1     6     7    |   0.2868891103
  1     6     7    |  2     4     7    |  -0.2868891103

 STATE   8  ENERGY=      -105.3387136721  S=  2.00  SZ=  0.00  SPACE SYM=A1  

      ALPHA        |       BETA        | CI COEFFICIENT
 1     2     3     | 1     2     3     |
-------------------|-------------------|---------------
  1     4     7    |  2     4     9    |   0.2869143546
  2     4     9    |  1     4     7    |   0.2869143546
        4     7  9 |  1  2  4          |  -0.2869133324
  1  2  4          |        4     7  9 |  -0.2869133324
  1     4     9    |  2     4     7    |  -0.2869132975
  2     4     7    |  1     4     9    |  -0.2869132975
  1     4     7    |  2     6     7    |  -0.2869131544
  2     6     7    |  1     4     7    |  -0.2869131543
        4  6  7    |  1  2        7    |   0.2869121322
  1  2        7    |        4  6  7    |   0.2869121322
  1     6     7    |  2     4     7    |   0.2869120973
  2     4     7    |  1     6     7    |   0.2869120973

 STATE   9  ENERGY=      -105.3362900477  S=  1.00  SZ=  0.00  SPACE SYM=A1  

      ALPHA        |       BETA        | CI COEFFICIENT
 1     2     3     | 1     2     3     |
-------------------|-------------------|---------------
  1     6     7    |  1     4     7    |   0.4734754661
  1     4     7    |  1     6     7    |  -0.4734754661
  1     4     9    |  1     4     7    |   0.4734736571
  1     4     7    |  1     4     9    |  -0.4734736571
  3     4     7    |  1     4     7    |   0.1939456703
  1     4     7    |  3     4     7    |  -0.1939456703
  1     4     7    |  1     6     9    |  -0.0771004101
  1     6     9    |  1     4     7    |   0.0771004101

 STATE  10  ENERGY=      -105.3255037762  S=  0.00  SZ=  0.00  SPACE SYM=A1  

      ALPHA        |       BETA        | CI COEFFICIENT
 1     2     3     | 1     2     3     |
-------------------|-------------------|---------------
  1  2        7    |        4  6  7    |   0.3843902612
        4  6  7    |  1  2        7    |   0.3843902612
  1  2  4          |        4     7  9 |   0.3843889437
        4     7  9 |  1  2  4          |   0.3843889437
  2     6     7    |  1     4     7    |   0.2455355191
  1     4     7    |  2     6     7    |   0.2455355191
  2     4     9    |  1     4     7    |   0.2455345090
  1     4     7    |  2     4     9    |   0.2455345090
  2     4     7    |  3     4     7    |  -0.1987709712
  3     4     7    |  2     4     7    |  -0.1987709712
  2     4     7    |  1     6     7    |  -0.1388546989
  1     6     7    |  2     4     7    |  -0.1388546989
  2     4     7    |  1     4     9    |  -0.1388543915
  1     4     9    |  2     4     7    |  -0.1388543915

 ..... DONE WITH ORMAS-CI COMPUTATION .....
 STEP CPU TIME =     0.09 TOTAL CPU TIME =       13.9 (    0.2 MIN)
 TOTAL WALL CLOCK TIME=       13.9 SECONDS, CPU UTILIZATION IS  99.93%

     ---------------------------
     ONE PARTICLE DENSITY MATRIX
     ---------------------------

 DENSITY MATRIX WILL BE SAVED FOR   1-TH STATE WITH S= 0.00

 CI EIGENSTATE   1 TOTAL ENERGY =     -106.9013813718

 1-PARTICLE DENSITY MATRIX IN MO BASIS

             1           2           3           4           5

    1    0.9921652
    2    0.0127638   0.9998449
    3   -0.0601795   0.0003040   0.0079899
    4    0.0000000   0.0000000   0.0000000   1.9869269
    5    0.0000000   0.0000000   0.0000000   0.0000005   0.0014360
    6    0.0000000   0.0000000   0.0000000   0.0018736  -0.0000006
    7    0.0000000   0.0000000   0.0000000   0.0000000   0.0000000
    8    0.0000000   0.0000000   0.0000000   0.0000000   0.0000000
    9    0.0000000   0.0000000   0.0000000   0.0000000   0.0000000

             6           7           8           9

    6    0.0116372
    7    0.0000000   1.9869269
    8    0.0000000   0.0000005   0.0014360
    9    0.0000000   0.0018736  -0.0000006   0.0116372
 ..... DONE WITH ONE PARTICLE DENSITY MATRIX .....
 STEP CPU TIME =     0.00 TOTAL CPU TIME =       13.9 (    0.2 MIN)
 TOTAL WALL CLOCK TIME=       13.9 SECONDS, CPU UTILIZATION IS  99.93%
 ORBITAL CANONICALIZATION ALREADY DONE BY MCSCF PROGRAM
 .... DONE CANONICALIZING MOLECULAR ORBITALS ....

     ===============================
     EXECUTING SINGLE STATE DET-MRPT
     ===============================
     DETERMINING PT CORRECTION FOR CI STATE    1

 TRANSFORMING INTEGRALS OVER ALL ORBITALS (EXCEPT FROZEN CORE) FOR THE PT...

     --------------------------------------------
     PARTIAL TWO ELECTRON INTEGRAL TRANSFORMATION
     --------------------------------------------

 NUMBER OF CORE MOLECULAR ORBITALS     =    2
 NUMBER OF OCCUPIED MOLECULAR ORBITALS =   12
 TOTAL NUMBER OF MOLECULAR ORBITALS    =   90
 TOTAL NUMBER OF ATOMIC ORBITALS       =   90
 THRESHOLD FOR KEEPING TRANSFORMED 2E- INTEGRALS = 1.000E-09
 AO INTEGRALS WILL BE READ IN FROM DISK...
 EVALUATING THE FROZEN CORE ENERGY...
 ----- FROZEN CORE ENERGY =       -84.1409838119

 PLAN A: REQUIREMENTS FOR FULLY IN-MEMORY TRANSFORMATION:
 # OF WORDS AVAILABLE =              1000000
 # OF WORDS NEEDED    =              3786182

 PLAN B: REQUIREMENTS FOR THE SEGMENTED TRANSFORMATION:
       MINIMUM=         469232 WORDS FOR 1 MOLECULAR ORBITAL PER PASS
       MAXIMUM=        3786182 WORDS FOR ALL MOLECULAR ORBITALS IN 1 PASS
              (         368550 EXTRA WORDS INCLUDES 1 EXTRA ORBITAL/PASS)
 THIS RUN USES=         837782 WORDS,
 DISTRIBUTING   5 PASSES EACH CONTAINING     2 ORBITALS OVER   1 PROCESSORS.

 CHOOSING SEGMENTED PARTIAL TRANSFORMATION...
 PASS #   1 TOOK        0.11 SECONDS.
 PASS #   2 TOOK        0.10 SECONDS.
 PASS #   3 TOOK        0.11 SECONDS.
 PASS #   4 TOOK        0.12 SECONDS.
 PASS #   5 TOOK        0.11 SECONDS.
 TOTAL NUMBER OF TRANSFORMED 2E- INTEGRALS KEPT =       119767
 ... END OF INTEGRAL TRANSFORMATION ...
 STEP CPU TIME =     0.56 TOTAL CPU TIME =       14.4 (    0.2 MIN)
 TOTAL WALL CLOCK TIME=       14.5 SECONDS, CPU UTILIZATION IS  99.86%

 CORE    ELECTRONIC BARYCENTRIC 0TH ORDER ENERGY  =   -57.748530205

 *** CI STATE   1 ***

 VAL/ACT ELECTRONIC BARYCENTRIC 0TH ORDER ENERGY  =    -6.389529414
 TOTAL   ELECTRONIC BARYCENTRIC 0TH ORDER ENERGY  =   -64.138059620

 TOTAL   ELECTRONIC       0TH + 1ST ORDER ENERGY  =  -108.829952800
 TOTAL   (MCSCF)          0TH + 1ST ORDER ENERGY  =  -106.901381372

 THE DETERMINANT MRPT REQUIRES      552024 WORDS

 INITIAL CI VECTORS READ FROM DISK, STATES =   1

 -------------------------------------------------
 COMPUTING MULT=1 ORMAS MRPT ENERGY FOR   1 STATES
 -------------------------------------------------

 WORKING ON LOOP  1 OF 11
              10.7 % DONE
              21.4 % DONE
              32.1 % DONE
              42.9 % DONE
              53.6 % DONE
              64.3 % DONE
              75.0 % DONE
              85.7 % DONE
              96.4 % DONE
 ...FINISHED WITH V->A   TERMS...
 STEP CPU TIME =     0.06 TOTAL CPU TIME =       14.5 (    0.2 MIN)
 TOTAL WALL CLOCK TIME=       14.5 SECONDS, CPU UTILIZATION IS  99.93%

 WORKING ON LOOP  2 OF 11
              10.7 % DONE
              21.4 % DONE
              32.1 % DONE
              42.9 % DONE
              53.6 % DONE
              64.3 % DONE
              75.0 % DONE
              85.7 % DONE
              96.4 % DONE
 ...FINISHED WITH A->E   TERMS...
 STEP CPU TIME =     0.04 TOTAL CPU TIME =       14.5 (    0.2 MIN)
 TOTAL WALL CLOCK TIME=       14.5 SECONDS, CPU UTILIZATION IS  99.93%

 WORKING ON LOOP  3 OF 11
              10.7 % DONE
              21.4 % DONE
              32.1 % DONE
              42.9 % DONE
              53.6 % DONE
              64.3 % DONE
              75.0 % DONE
              85.7 % DONE
              96.4 % DONE
 ...FINISHED WITH VV->AA TERMS...
 STEP CPU TIME =     0.00 TOTAL CPU TIME =       14.5 (    0.2 MIN)
 TOTAL WALL CLOCK TIME=       14.5 SECONDS, CPU UTILIZATION IS  99.93%

 WORKING ON LOOP  4 OF 11
              10.7 % DONE
              21.4 % DONE
              32.1 % DONE
              42.9 % DONE
              53.6 % DONE
              64.3 % DONE
              75.0 % DONE
              85.7 % DONE
              96.4 % DONE
 ...FINISHED WITH VV->AE TERMS...
 STEP CPU TIME =     0.00 TOTAL CPU TIME =       14.5 (    0.2 MIN)
 TOTAL WALL CLOCK TIME=       14.6 SECONDS, CPU UTILIZATION IS  99.86%

 WORKING ON LOOP  5 OF 11
              10.7 % DONE
              21.4 % DONE
              32.1 % DONE
              42.9 % DONE
              53.6 % DONE
              64.3 % DONE
              75.0 % DONE
              85.7 % DONE
              96.4 % DONE
 ...FINISHED WITH VA->EE TERMS...
 STEP CPU TIME =     0.04 TOTAL CPU TIME =       14.6 (    0.2 MIN)
 TOTAL WALL CLOCK TIME=       14.6 SECONDS, CPU UTILIZATION IS  99.93%

 WORKING ON LOOP  6 OF 11
              10.7 % DONE
              21.4 % DONE
              32.1 % DONE
              42.9 % DONE
              53.6 % DONE
              64.3 % DONE
              75.0 % DONE
              85.7 % DONE
              96.4 % DONE
 ...FINISHED WITH AA->EE TERMS...
 STEP CPU TIME =     0.03 TOTAL CPU TIME =       14.6 (    0.2 MIN)
 TOTAL WALL CLOCK TIME=       14.6 SECONDS, CPU UTILIZATION IS  99.93%

 WORKING ON LOOP  7 OF 11
              10.7 % DONE
              21.4 % DONE
              32.1 % DONE
              42.9 % DONE
              53.6 % DONE
              64.3 % DONE
              75.0 % DONE
              85.7 % DONE
              96.4 % DONE
 ...FINISHED WITH V->E   TERMS...
 STEP CPU TIME =     0.01 TOTAL CPU TIME =       14.6 (    0.2 MIN)
 TOTAL WALL CLOCK TIME=       14.6 SECONDS, CPU UTILIZATION IS  99.86%

 WORKING ON LOOP  8 OF 11
              11.1 % DONE
              22.2 % DONE
              33.3 % DONE
              44.4 % DONE
              55.6 % DONE
              66.7 % DONE
              77.8 % DONE
              88.9 % DONE
             100.0 % DONE
 ...FINISHED WITH VV->AA TERMS...
 STEP CPU TIME =     0.01 TOTAL CPU TIME =       14.6 (    0.2 MIN)
 TOTAL WALL CLOCK TIME=       14.7 SECONDS, CPU UTILIZATION IS  99.86%

 WORKING ON LOOP  9 OF 11
              11.1 % DONE
              22.2 % DONE
              33.3 % DONE
              44.4 % DONE
              55.6 % DONE
              66.7 % DONE
              77.8 % DONE
              88.9 % DONE
             100.0 % DONE
 ...FINISHED WITH VA->AE TERMS...
 STEP CPU TIME =     0.01 TOTAL CPU TIME =       14.6 (    0.2 MIN)
 TOTAL WALL CLOCK TIME=       14.7 SECONDS, CPU UTILIZATION IS  99.93%

 WORKING ON LOOP 10 OF 11
              13.9 % DONE
              27.8 % DONE
              41.7 % DONE
              55.6 % DONE
              69.4 % DONE
              83.3 % DONE
              97.2 % DONE
 ...FINISHED WITH AA->EE TERMS...
 STEP CPU TIME =     0.09 TOTAL CPU TIME =       14.7 (    0.2 MIN)
 TOTAL WALL CLOCK TIME=       14.8 SECONDS, CPU UTILIZATION IS  99.86%

 WORKING ON LOOP 11 OF 11
              10.7 % DONE
              21.4 % DONE
              32.1 % DONE
              42.9 % DONE
              53.6 % DONE
              64.3 % DONE
              75.0 % DONE
              85.7 % DONE
              96.4 % DONE
 ...FINISHED WITH VV->EE TERMS...
 STEP CPU TIME =     0.02 TOTAL CPU TIME =       14.8 (    0.2 MIN)
 TOTAL WALL CLOCK TIME=       14.8 SECONDS, CPU UTILIZATION IS  99.93%

WORKING ON INTERNAL MRPT TERMS
              20.0 % DONE
              40.0 % DONE
              60.0 % DONE
              80.0 % DONE
             100.0 % DONE
...FINSIHED WITH INTERNAL TERMS...
 STEP CPU TIME =     0.01 TOTAL CPU TIME =       14.8 (    0.2 MIN)
 TOTAL WALL CLOCK TIME=       14.8 SECONDS, CPU UTILIZATION IS  99.93%

 TIME FOR 2ND ORDER ENERGY E(2) CALCULATION :        0.3

                     2ND ORDER ENERGY CORRECTION  =        -0.1503167601
 TOTAL MRPT2, E(MP2) 0TH + 1ST + 2ND ORDER ENERGY =      -107.0516981319

 BREAKDOWN OF E(2) ACCORDING TO CLASS OF EXCITED DETERMINANT

  **** NOTE **** THIS MEANS THAT THE E(2) ENERGY IS SORTED ACCORDING TO
 CONTRIBUTIONS FROM EXCITED DETERMINANTS, NOT ACCORDING TO EXCITATION TYPES:
     V = VALENCE, A = ACTIVE, E = EXTERNAL

                   EXTERNAL DETERMINANT CREATED BY:        E(2)

                                             V -> A    -0.011799455
                                             V -> E    -0.032730829
                                             A -> E    -0.019134011
                                            VV -> AA   -0.002487024
                                            VV -> AE   -0.000930976
           (2 ELECTRONS ARE DIFFERENT SPIN) VA -> AE   -0.016950052
                                            VV -> EE   -0.007198037
                                            VA -> EE   -0.016509770
                                            AA -> EE   -0.042032175
                                       INTERNAL CCAS   -0.000544432
                                            ------------------------
                                              TOTAL    -0.150316760


 ..... DONE WITH MP2 ENERGY .....
 STEP CPU TIME =     0.00 TOTAL CPU TIME =       14.8 (    0.2 MIN)
 TOTAL WALL CLOCK TIME=       14.8 SECONDS, CPU UTILIZATION IS  99.93%
               837782  WORDS OF DYNAMIC MEMORY USED
 EXECUTION OF GAMESS TERMINATED NORMALLY Fri Jun  2 03:58:27 2017
 DDI: 263640 bytes (0.3 MB / 0 MWords) used by master data server.

 ----------------------------------------
 CPU timing information for all processes
 ========================================
 0: 14.533 + 0.239 = 14.773
 ----------------------------------------
 ddikick.x: exited gracefully.
unset echo
----- accounting info -----
Files used on the master node compute-0-1.local were:
-rw-rw-r-- 1 sarom sarom   135051 Jun  2 03:58 /scratch/mc-ormpt2-lif.F05
-rw-rw-r-- 1 sarom sarom 10800960 Jun  2 03:58 /scratch/mc-ormpt2-lif.F08
-rw-rw-r-- 1 sarom sarom  1471464 Jun  2 03:58 /scratch/mc-ormpt2-lif.F09
-rw-rw-r-- 1 sarom sarom  2683040 Jun  2 03:58 /scratch/mc-ormpt2-lif.F10
-rw-rw-r-- 1 sarom sarom    97304 Jun  2 03:58 /scratch/mc-ormpt2-lif.F12
-rw-rw-r-- 1 sarom sarom      368 Jun  2 03:58 /scratch/mc-ormpt2-lif.F15
-rw-rw-r-- 1 sarom sarom   455616 Jun  2 03:58 /scratch/mc-ormpt2-lif.F16
-rw-rw-r-- 1 sarom sarom   180016 Jun  2 03:58 /scratch/mc-ormpt2-lif.F70
-rw-rw-r-- 1 sarom sarom   180016 Jun  2 03:58 /scratch/mc-ormpt2-lif.F71
-rw-rw-r-- 1 sarom sarom   180016 Jun  2 03:58 /scratch/mc-ormpt2-lif.F72
-rw-rw-r-- 1 sarom sarom   180016 Jun  2 03:58 /scratch/mc-ormpt2-lif.F73
rm: cannot remove `/scratch/sarom': Is a directory
rm: cannot remove `/scratch/tmp': Is a directory
ls: No match.
ls: No match.
ls: No match.
Fri Jun  2 03:58:30 CDT 2017
0.254u 0.145s 0:18.26 2.1%	0+0k 264+608io 0pf+0w
/opt/gridengine/default/spool/compute-0-1/active_jobs/23902.1/pe_hostfile compute-0-1.local
