-catch_rsh /opt/gridengine/default/spool/compute-0-1/active_jobs/23488.1/pe_hostfile
compute-0-1
The primary node assigned by SGE to this run is compute-0-1
Warning: no access to tty (Bad file descriptor).
Thus no job control in this shell.
source /home/sarom/gamess.github.2017-05-31.14.06/install.info
setenv GMS_PATH /home/sarom/gamess.github.2017-05-31.14.06
setenv GMS_BUILD_DIR /home/sarom/gamess.github.2017-05-31.14.06
setenv GMS_TARGET linux64
setenv GMS_FORTRAN gfortran
setenv GMS_GFORTRAN_VERNO 4.4
setenv GMS_MATHLIB mkl-so
setenv GMS_MATHLIB_PATH /share/apps/intel/compilers_and_libraries_2017.1.132/linux/mkl/lib/intel64
setenv GMS_MKL_VERNO 12
setenv GMS_DDI_COMM sockets
setenv GMS_LIBCCHEM false
setenv GMS_EIGEN_PATH
setenv GMS_PHI false
setenv GMS_SHMTYPE sysv
setenv GMS_OPENMP false
unset echo
exam06
tests/dftb
----- GAMESS execution script 'rungms' -----
This job is running on host compute-0-1.local
under operating system Linux at Fri Jun 2 00:48:57 CDT 2017
Available scratch disk space (Kbyte units) at beginning of the job is
Filesystem           1K-blocks      Used Available Use% Mounted on
/dev/sda1             16126920   3867344  11440376  26% /
GAMESS temporary binary files will be written to /scratch
GAMESS supplementary output files will be written to /home/sarom/restart
Copying input file exam06.inp to your run's scratch directory...
cp tests/dftb/exam06.inp /scratch/exam06.F05
unset echo
The generated host list is
compute-0-1.local
/home/sarom/gamess.github.2017-05-31.14.06/ddikick.x /home/sarom/gamess.github.2017-05-31.14.06/gamess.00.x exam06 -ddi 1 1 compute-0-1.local -scr /scratch

 Distributed Data Interface kickoff program.
 Initiating 1 compute processes on 1 nodes to run the following command:
 /home/sarom/gamess.github.2017-05-31.14.06/gamess.00.x exam06 

          ******************************************************
          *         GAMESS VERSION = 20 APR 2017 (R1)          *
          *             FROM IOWA STATE UNIVERSITY             *
          * M.W.SCHMIDT, K.K.BALDRIDGE, J.A.BOATZ, S.T.ELBERT, *
          *   M.S.GORDON, J.H.JENSEN, S.KOSEKI, N.MATSUNAGA,   *
          *          K.A.NGUYEN, S.J.SU, T.L.WINDUS,           *
          *       TOGETHER WITH M.DUPUIS, J.A.MONTGOMERY       *
          *         J.COMPUT.CHEM.  14, 1347-1363(1993)        *
          **************** 64 BIT LINUX VERSION ****************

  SINCE 1993, STUDENTS AND POSTDOCS WORKING AT IOWA STATE UNIVERSITY
  AND ALSO IN THEIR VARIOUS JOBS AFTER LEAVING ISU HAVE MADE IMPORTANT
  CONTRIBUTIONS TO THE CODE:
     IVANA ADAMOVIC, CHRISTINE AIKENS, YURI ALEXEEV, POOJA ARORA,
     ANDREY ASADCHEV, ROB BELL, PRADIPTA BANDYOPADHYAY, JONATHAN BENTZ,
     BRETT BODE, KURT BRORSEN, CALEB CARLIN, GALINA CHABAN, WEI CHEN,
     CHEOL HO CHOI, PAUL DAY, ALBERT DEFUSCO, NUWAN DESILVA, TIM DUDLEY,
     DMITRI FEDOROV, GRAHAM FLETCHER, MARK FREITAG, KURT GLAESEMANN,
     DAN KEMP, GRANT MERRILL, NORIYUKI MINEZAWA, JONATHAN MULLIN,
     TAKESHI NAGATA, SEAN NEDD, HEATHER NETZLOFF, BOSILJKA NJEGIC, RYAN OLSON,
     MIKE PAK, SPENCER PRUITT, LUKE ROSKOP, JIM SHOEMAKER, LYUDMILA SLIPCHENKO,
     TONY SMITH, SAROM SOK LEANG, JIE SONG, TETSUYA TAKETSUGU, SIMON WEBB,
     PENG XU, SOOHAENG YOO, FEDERICO ZAHARIEV

  ADDITIONAL CODE HAS BEEN PROVIDED BY COLLABORATORS IN OTHER GROUPS:
     IOWA STATE UNIVERSITY:
          JOE IVANIC, AARON WEST, LAIMUTIS BYTAUTAS, KLAUS RUEDENBERG
     UNIVERSITY OF TOKYO: KIMIHIKO HIRAO, TAKAHITO NAKAJIMA,
          TAKAO TSUNEDA, MUNEAKI KAMIYA, SUSUMU YANAGISAWA,
          KIYOSHI YAGI, MAHITO CHIBA, SEIKEN TOKURA, NAOAKI KAWAKAMI
     UNIVERSITY OF AARHUS: FRANK JENSEN
     UNIVERSITY OF IOWA: VISVALDAS KAIRYS, HUI LI
     NATIONAL INST. OF STANDARDS AND TECHNOLOGY: WALT STEVENS, DAVID GARMER
     UNIVERSITY OF PISA: BENEDETTA MENNUCCI, JACOPO TOMASI
     UNIVERSITY OF MEMPHIS: HENRY KURTZ, PRAKASHAN KORAMBATH
     UNIVERSITY OF ALBERTA: TOBY ZENG, MARIUSZ KLOBUKOWSKI
     UNIVERSITY OF NEW ENGLAND: MARK SPACKMAN
     MIE UNIVERSITY: HIROAKI UMEDA
     NAT. INST. OF ADVANCED INDUSTRIAL SCIENCE AND TECHNOLOGY: KAZUO KITAURA
     MICHIGAN STATE UNIVERSITY:
          KAROL KOWALSKI, MARTA WLOCH, JEFFREY GOUR, JESSE LUTZ,
          WEI LI, PIOTR PIECUCH
     UNIVERSITY OF SILESIA: MONIKA MUSIAL, STANISLAW KUCHARSKI
     FACULTES UNIVERSITAIRES NOTRE-DAME DE LA PAIX:
          OLIVIER QUINET, BENOIT CHAMPAGNE
     UNIVERSITY OF CALIFORNIA - SANTA BARBARA: BERNARD KIRTMAN
     INSTITUTE FOR MOLECULAR SCIENCE:
          KAZUYA ISHIMURA, MICHIO KATOUDA, AND SHIGERU NAGASE
     UNIVERSITY OF NOTRE DAME: ANNA POMOGAEVA, DAN CHIPMAN
     KYUSHU UNIVERSITY:
          HARUYUKI NAKANO,
          FENG LONG GU, JACEK KORCHOWIEC, MARCIN MAKOWSKI, AND YURIKO AOKI,
          HIROTOSHI MORI AND EISAKU MIYOSHI
     PENNSYLVANIA STATE UNIVERSITY:
          TZVETELIN IORDANOV, CHET SWALINA, JONATHAN SKONE,
          SHARON HAMMES-SCHIFFER
     WASEDA UNIVERSITY:
          MASATO KOBAYASHI, TOMOKO AKAMA, TSUGUKI TOUMA,
          TAKESHI YOSHIKAWA, YASUHIRO IKABATA, JUNJI SEINO,
          YUYA NAKAJIMA, HIROMI NAKAI
     NANJING UNIVERSITY: SHUHUA LI
     UNIVERSITY OF NEBRASKA:
          PEIFENG SU, DEJUN SI, NANDUN THELLAMUREGE, YALI WANG, HUI LI
     UNIVERSITY OF ZURICH: ROBERTO PEVERATI, KIM BALDRIDGE
     N. COPERNICUS UNIVERSITY AND JACKSON STATE UNIVERSITY:
          MARIA BARYSZ
     UNIVERSITY OF COPENHAGEN: Jimmy Kromann, CASPER STEINMANN
     TOKYO INSTITUTE OF TECHNOLOGY: HIROYA NAKATA
     NAGOYA UNIVERSITY: YOSHIO NISHIMOTO, STEPHAN IRLE
     MOSCOW STATE UNIVERSITY: VLADIMIR MIRONOV

 EXECUTION OF GAMESS BEGUN Fri Jun  2 00:48:57 2017

            ECHO OF THE FIRST FEW INPUT CARDS -
 INPUT CARD>!   DFTB EXAM01.                                                                
 INPUT CARD>!   This is a sample input of gradient calculation for a                        
 INPUT CARD>!   Be8H16 cluster with TD-DFTB2.                                               
 INPUT CARD>!                                                                               
 INPUT CARD>!   Ground state energy = -10.0713467477                                        
 INPUT CARD>!   S1           energy =  -9.9412993748 (Ex. = 3.539 eV)                       
 INPUT CARD>!                                                                               
 INPUT CARD>!   Maximum Grad. = 0.030735644                                                 
 INPUT CARD>!   RMS     Grad. = 0.010144048                                                 
 INPUT CARD>!                                                                               
 INPUT CARD> $CONTRL RUNTYP=GRADIENT TDDFT=EXCITE $END                                      
 INPUT CARD> $TDDFT NSTATE=5 $END                                                           
 INPUT CARD> $SYSTEM MWORDS=40 $END                                                         
 INPUT CARD> $SCF CONV=1.0D-12 $END                                                         
 INPUT CARD> $BASIS GBASIS=DFTB $END                                                        
 INPUT CARD> $DFTB NDFTB=2 $END                                                             
 INPUT CARD>!                                                                               
 INPUT CARD>!   Please modify the location of parameters appropriately                      
 INPUT CARD>!                                                                               
 INPUT CARD> $DFTBSK                                                                        
 INPUT CARD>   Be Be ~/gamess/tests/dftb/parameters/Be-Be.spl                               
 INPUT CARD>   Be H  ~/gamess/tests/dftb/parameters/Be-H.spl                                
 INPUT CARD>   H  Be ~/gamess/tests/dftb/parameters/H-Be.spl                                
 INPUT CARD>   H  H  ~/gamess/tests/dftb/parameters/H-H.spl                                 
 INPUT CARD> $END                                                                           
 INPUT CARD> $DATA                                                                          
 INPUT CARD> Be8H16                                                                         
 INPUT CARD> C1                                                                             
 INPUT CARD> BE          4.0   3.0390000000  -2.8822950000  -4.1352320000                   
 INPUT CARD> H           1.0   1.8434562434  -3.1165655879  -3.3851501265                   
 INPUT CARD> H           1.0   3.1828321632  -3.4833091661  -5.3185177886                   
 INPUT CARD> BE          4.0   4.9596610000  -2.7158660000  -2.1181570000                   
 INPUT CARD> H           1.0   4.1862385206  -3.2125150780  -3.1799315682                   
 INPUT CARD> H           1.0   5.9661150065  -1.7776386581  -2.3199165802                   
 INPUT CARD> BE          4.0   1.3325970000  -3.6588350000  -2.2152450000                   
 INPUT CARD> H           1.0   1.8204480714  -3.1232189416  -0.9374404516                   
 INPUT CARD> H           1.0   0.3900915695  -4.5871414946  -2.0836882748                   
 INPUT CARD> BE          4.0   2.8357920000  -2.2859940000  -0.4634240000                   
 INPUT CARD> H           1.0   2.7438006395  -0.9072939067  -0.3324600932                   
 INPUT CARD> H           1.0   4.1783102520  -2.7199578126  -0.8729875478                   
 INPUT CARD> BE          4.0   3.4734830000  -0.2274840000  -3.5159170000                   
 INPUT CARD> H           1.0   4.8626845960  -0.0288080339  -3.5798378882                   
 INPUT CARD> H           1.0   2.9943364257  -1.3842994704  -4.1575520744                   
 INPUT CARD> BE          4.0   2.9279870000   0.4640220000  -0.9968790000                   
 INPUT CARD> H           1.0   2.7391749378   0.2817067075  -2.4463418397                   
 INPUT CARD> H           1.0   1.9442109579   1.2327913416  -0.5126207513                   
 INPUT CARD> BE          4.0   6.1974480000  -0.3939330000  -2.9832180000                   
 INPUT CARD> H           1.0   6.2853272566   0.4337508795  -1.8156444791                   
 INPUT CARD> H           1.0   7.2026392922  -0.4405178821  -3.8617909490                   
 INPUT CARD> BE          4.0   5.6179070000   0.6710590000  -0.5930070000                   
   40000000 WORDS OF MEMORY AVAILABLE

     BASIS OPTIONS
     -------------
     GBASIS=DFTB         IGAUSS=       0      POLAR=NONE    
     NDFUNC=       0     NFFUNC=       0     DIFFSP=       F
     NPFUNC=       0      DIFFS=       F     BASNAM=        


     RUN TITLE
     ---------
  Be8H16                                                                         

 THE POINT GROUP OF THE MOLECULE IS C1      
 THE ORDER OF THE PRINCIPAL AXIS IS     0

  **********************************************************
  **  DENSITY-FUNCTIONAL TIGHT-BINDING (DFTB) CALCULATION **
  **********************************************************
        WRITTEN BY YOSHIO NISHIMOTO (NAGOYA UNIVERSITY)

 NUMBER OF SPECIES:  2
        SPECIES 1 :  BE      WITH S+P   ORBITALS
        SPECIES 2 :  H       WITH S     ORBITAL

     $DFTB OPTIONS
     -------------
 NDFTB =       2     SCC   =       T     DFTB3 =       F
 SRSCC =       F     DAMPXH=       F     DAMPEX=    0.00
 DISP  =NONE         ITYPMX=       0     ETEMP =    0.00
 MODESD=       0     MODGAM=       0     PRTORB=       F

 --- SCC CALCULATION ---

 BROYDEN'S CHARGE MIXING

 ERROR INFORMATION FOR FILE: ~/gamess/tests/dftb/parameters/Be-Be.spl
 IOSTAT =   2

 ERROR INFORMATION FOR FILE: ~/gamess/tests/dftb/parameters/Be-H.spl
 IOSTAT =   2

 ERROR INFORMATION FOR FILE: ~/gamess/tests/dftb/parameters/H-Be.spl
 IOSTAT =   2

 ERROR INFORMATION FOR FILE: ~/gamess/tests/dftb/parameters/H-H.spl
 IOSTAT =   2

   0 SLATER-KOSTER FILES WILL BE READ

 ERROR!
 SLATER-KOSTER FILE FOR BE   - BE   HAS NOT BEEN FOUND
 SLATER-KOSTER FILE FOR BE   - H    HAS NOT BEEN FOUND
 SLATER-KOSTER FILE FOR H    - BE   HAS NOT BEEN FOUND
 SLATER-KOSTER FILE FOR H    - H    HAS NOT BEEN FOUND

  PERHAPS ATOMS IN $DATA AND $DFTBSK MISMATCH?
 EXECUTION OF GAMESS TERMINATED -ABNORMALLY- AT Fri Jun  2 00:48:57 2017
               580000  WORDS OF DYNAMIC MEMORY USED
 STEP CPU TIME =     0.00 TOTAL CPU TIME =        0.0 (    0.0 MIN)
 TOTAL WALL CLOCK TIME=        0.0 SECONDS, CPU UTILIZATION IS   0.00%
 DDI Process 0: error code 911
 ddikick.x: application process 0 quit unexpectedly.
 ddikick.x: Fatal error detected.
 The error is most likely to be in the application, so check for
 input errors, disk space, memory needs, application bugs, etc.
 ddikick.x will now clean up all processes, and exit...
 ddikick.x: Sending kill signal to DDI processes.
 ddikick.x: Execution terminated due to error(s).
unset echo
----- accounting info -----
Files used on the master node compute-0-1.local were:
-rw-rw-r-- 1 sarom sarom   2223 Jun  2 00:48 /scratch/exam06.F05
-rw-rw-r-- 1 sarom sarom 785280 Jun  2 00:48 /scratch/exam06.F10
rm: cannot remove `/scratch/sarom': Is a directory
rm: cannot remove `/scratch/tmp': Is a directory
ls: No match.
ls: No match.
ls: No match.
Fri Jun  2 00:48:59 CDT 2017
0.246u 0.142s 0:02.47 15.3%	0+0k 8+352io 0pf+0w
/opt/gridengine/default/spool/compute-0-1/active_jobs/23488.1/pe_hostfile compute-0-1.local
