-catch_rsh /opt/gridengine/default/spool/compute-0-8/active_jobs/23485.1/pe_hostfile
compute-0-8
The primary node assigned by SGE to this run is compute-0-8
Warning: no access to tty (Bad file descriptor).
Thus no job control in this shell.
Deleting shmid=2785280.
Deleting shmid=2818049.
source /home/sarom/gamess.github.2017-05-31.14.06/install.info
setenv GMS_PATH /home/sarom/gamess.github.2017-05-31.14.06
setenv GMS_BUILD_DIR /home/sarom/gamess.github.2017-05-31.14.06
setenv GMS_TARGET linux64
setenv GMS_FORTRAN gfortran
setenv GMS_GFORTRAN_VERNO 4.4
setenv GMS_MATHLIB mkl-so
setenv GMS_MATHLIB_PATH /share/apps/intel/compilers_and_libraries_2017.1.132/linux/mkl/lib/intel64
setenv GMS_MKL_VERNO 12
setenv GMS_DDI_COMM sockets
setenv GMS_LIBCCHEM false
setenv GMS_EIGEN_PATH
setenv GMS_PHI false
setenv GMS_SHMTYPE sysv
setenv GMS_OPENMP false
unset echo
exam03
tests/dftb
----- GAMESS execution script 'rungms' -----
This job is running on host compute-0-8.local
under operating system Linux at Fri Jun 2 00:48:12 CDT 2017
Available scratch disk space (Kbyte units) at beginning of the job is
Filesystem           1K-blocks      Used Available Use% Mounted on
/dev/sda1             16126920   3867344  11440376  26% /
GAMESS temporary binary files will be written to /scratch
GAMESS supplementary output files will be written to /home/sarom/restart
Copying input file exam03.inp to your run's scratch directory...
cp tests/dftb/exam03.inp /scratch/exam03.F05
unset echo
The generated host list is
compute-0-8.local
/home/sarom/gamess.github.2017-05-31.14.06/ddikick.x /home/sarom/gamess.github.2017-05-31.14.06/gamess.00.x exam03 -ddi 1 1 compute-0-8.local -scr /scratch

 Distributed Data Interface kickoff program.
 Initiating 1 compute processes on 1 nodes to run the following command:
 /home/sarom/gamess.github.2017-05-31.14.06/gamess.00.x exam03 

          ******************************************************
          *         GAMESS VERSION = 20 APR 2017 (R1)          *
          *             FROM IOWA STATE UNIVERSITY             *
          * M.W.SCHMIDT, K.K.BALDRIDGE, J.A.BOATZ, S.T.ELBERT, *
          *   M.S.GORDON, J.H.JENSEN, S.KOSEKI, N.MATSUNAGA,   *
          *          K.A.NGUYEN, S.J.SU, T.L.WINDUS,           *
          *       TOGETHER WITH M.DUPUIS, J.A.MONTGOMERY       *
          *         J.COMPUT.CHEM.  14, 1347-1363(1993)        *
          **************** 64 BIT LINUX VERSION ****************

  SINCE 1993, STUDENTS AND POSTDOCS WORKING AT IOWA STATE UNIVERSITY
  AND ALSO IN THEIR VARIOUS JOBS AFTER LEAVING ISU HAVE MADE IMPORTANT
  CONTRIBUTIONS TO THE CODE:
     IVANA ADAMOVIC, CHRISTINE AIKENS, YURI ALEXEEV, POOJA ARORA,
     ANDREY ASADCHEV, ROB BELL, PRADIPTA BANDYOPADHYAY, JONATHAN BENTZ,
     BRETT BODE, KURT BRORSEN, CALEB CARLIN, GALINA CHABAN, WEI CHEN,
     CHEOL HO CHOI, PAUL DAY, ALBERT DEFUSCO, NUWAN DESILVA, TIM DUDLEY,
     DMITRI FEDOROV, GRAHAM FLETCHER, MARK FREITAG, KURT GLAESEMANN,
     DAN KEMP, GRANT MERRILL, NORIYUKI MINEZAWA, JONATHAN MULLIN,
     TAKESHI NAGATA, SEAN NEDD, HEATHER NETZLOFF, BOSILJKA NJEGIC, RYAN OLSON,
     MIKE PAK, SPENCER PRUITT, LUKE ROSKOP, JIM SHOEMAKER, LYUDMILA SLIPCHENKO,
     TONY SMITH, SAROM SOK LEANG, JIE SONG, TETSUYA TAKETSUGU, SIMON WEBB,
     PENG XU, SOOHAENG YOO, FEDERICO ZAHARIEV

  ADDITIONAL CODE HAS BEEN PROVIDED BY COLLABORATORS IN OTHER GROUPS:
     IOWA STATE UNIVERSITY:
          JOE IVANIC, AARON WEST, LAIMUTIS BYTAUTAS, KLAUS RUEDENBERG
     UNIVERSITY OF TOKYO: KIMIHIKO HIRAO, TAKAHITO NAKAJIMA,
          TAKAO TSUNEDA, MUNEAKI KAMIYA, SUSUMU YANAGISAWA,
          KIYOSHI YAGI, MAHITO CHIBA, SEIKEN TOKURA, NAOAKI KAWAKAMI
     UNIVERSITY OF AARHUS: FRANK JENSEN
     UNIVERSITY OF IOWA: VISVALDAS KAIRYS, HUI LI
     NATIONAL INST. OF STANDARDS AND TECHNOLOGY: WALT STEVENS, DAVID GARMER
     UNIVERSITY OF PISA: BENEDETTA MENNUCCI, JACOPO TOMASI
     UNIVERSITY OF MEMPHIS: HENRY KURTZ, PRAKASHAN KORAMBATH
     UNIVERSITY OF ALBERTA: TOBY ZENG, MARIUSZ KLOBUKOWSKI
     UNIVERSITY OF NEW ENGLAND: MARK SPACKMAN
     MIE UNIVERSITY: HIROAKI UMEDA
     NAT. INST. OF ADVANCED INDUSTRIAL SCIENCE AND TECHNOLOGY: KAZUO KITAURA
     MICHIGAN STATE UNIVERSITY:
          KAROL KOWALSKI, MARTA WLOCH, JEFFREY GOUR, JESSE LUTZ,
          WEI LI, PIOTR PIECUCH
     UNIVERSITY OF SILESIA: MONIKA MUSIAL, STANISLAW KUCHARSKI
     FACULTES UNIVERSITAIRES NOTRE-DAME DE LA PAIX:
          OLIVIER QUINET, BENOIT CHAMPAGNE
     UNIVERSITY OF CALIFORNIA - SANTA BARBARA: BERNARD KIRTMAN
     INSTITUTE FOR MOLECULAR SCIENCE:
          KAZUYA ISHIMURA, MICHIO KATOUDA, AND SHIGERU NAGASE
     UNIVERSITY OF NOTRE DAME: ANNA POMOGAEVA, DAN CHIPMAN
     KYUSHU UNIVERSITY:
          HARUYUKI NAKANO,
          FENG LONG GU, JACEK KORCHOWIEC, MARCIN MAKOWSKI, AND YURIKO AOKI,
          HIROTOSHI MORI AND EISAKU MIYOSHI
     PENNSYLVANIA STATE UNIVERSITY:
          TZVETELIN IORDANOV, CHET SWALINA, JONATHAN SKONE,
          SHARON HAMMES-SCHIFFER
     WASEDA UNIVERSITY:
          MASATO KOBAYASHI, TOMOKO AKAMA, TSUGUKI TOUMA,
          TAKESHI YOSHIKAWA, YASUHIRO IKABATA, JUNJI SEINO,
          YUYA NAKAJIMA, HIROMI NAKAI
     NANJING UNIVERSITY: SHUHUA LI
     UNIVERSITY OF NEBRASKA:
          PEIFENG SU, DEJUN SI, NANDUN THELLAMUREGE, YALI WANG, HUI LI
     UNIVERSITY OF ZURICH: ROBERTO PEVERATI, KIM BALDRIDGE
     N. COPERNICUS UNIVERSITY AND JACKSON STATE UNIVERSITY:
          MARIA BARYSZ
     UNIVERSITY OF COPENHAGEN: Jimmy Kromann, CASPER STEINMANN
     TOKYO INSTITUTE OF TECHNOLOGY: HIROYA NAKATA
     NAGOYA UNIVERSITY: YOSHIO NISHIMOTO, STEPHAN IRLE
     MOSCOW STATE UNIVERSITY: VLADIMIR MIRONOV

 EXECUTION OF GAMESS BEGUN Fri Jun  2 00:48:12 2017

            ECHO OF THE FIRST FEW INPUT CARDS -
 INPUT CARD>! This is a sample input of geometry optimization of pseudo octahedral Be6      
 INPUT CARD>! cluster.                                                                      
 INPUT CARD>!                                                                               
 INPUT CARD>! Bond lengths match with the values in the reference paper (Takagi, H. et al.  
 INPUT CARD>! J. Plasma Fuction Res. 2013, 89, 583-598) in two decimal places. Note that    
 INPUT CARD>! thresholds (CONV and OPTTOL), code, and calculation of derivative are         
 INPUT CARD>! different.                                                                    
 INPUT CARD>!                                                                               
 INPUT CARD>! Geometry optimization converged after 25 cycles:                              
 INPUT CARD>!                                                                               
 INPUT CARD>!NSERCH:   0  E=       -2.6834632779  GRAD. MAX=  0.0309399  R.M.S.=  0.0116082 
 INPUT CARD>!NSERCH:  25  E=       -2.7203930108  GRAD. MAX=  0.0000000  R.M.S.=  0.0000000 
 INPUT CARD>!                                                                               
 INPUT CARD>! In this calculation, initial Hessian is computed with HESS=CALC keyword,      
 INPUT CARD>! and this verifies that the initial structure is around transition structure.  
 INPUT CARD>! Final optimized structure has no imaginary frequencies.                       
 INPUT CARD>!                                                                               
 INPUT CARD>!    1       0.060    A        9.012180    0.000163                             
 INPUT CARD>!    2       0.028    A        9.012180    0.000171                             
 INPUT CARD>!    3       0.006    A        9.012180    0.000001                             
 INPUT CARD>!    4       0.000    A        9.012180    0.000000                             
 INPUT CARD>!    5       0.021    A        9.012180    0.000026                             
 INPUT CARD>!    6       0.031    A        9.012180    0.000059                             
 INPUT CARD>!                                                                               
 INPUT CARD>! Disclaimer: these parameters are provided so that the correctness of          
 INPUT CARD>! the DFTB code in GAMESS can be tested. For production DFTB runs,              
 INPUT CARD>! please obtain parameters from the official site www.dftb.org.                 
 INPUT CARD>!                                                                               
 INPUT CARD>! You will have to edit the path below in $DFTBSK to run this input.            
 INPUT CARD>!                                                                               
 INPUT CARD>! Do not run DFTB in parallel (except FMO-DFTB, see exam04.inp)!                
 INPUT CARD>!                                                                               
 INPUT CARD>! This file was provided by Yoshio Nishimoto and Stephan Irle,                  
 INPUT CARD>! and the parameters were generated by Yoshifumi Nishimura (Nagoya U., Japan).  
 INPUT CARD>!                                                                               
 INPUT CARD> $CONTRL RUNTYP=OPTIMIZE NPRINT=-5 $END                                         
 INPUT CARD> $STATPT NSTEP=200 OPTTOL=1.0D-09 HSSEND=.TRUE. HESS=CALC $END                  
 INPUT CARD> $SYSTEM MWORDS=40 $END                                                         
 INPUT CARD> $SCF CONV=1.0D-12 $END                                                         
 INPUT CARD> $BASIS GBASIS=DFTB $END                                                        
 INPUT CARD> $DFTB NDFTB=2 $END                                                             
 INPUT CARD>!  --- !!!! modify the path below !!!! ---                                      
 INPUT CARD> $DFTBSK                                                                        
 INPUT CARD>   Be Be "/home/dima/gamess/tests/dftb/parameters/Be-Be.spl"                    
 INPUT CARD> $END                                                                           
 INPUT CARD> $DATA                                                                          
 INPUT CARD> Optimized Be2                                                                  
 INPUT CARD> C1                                                                             
 INPUT CARD> BE          4.0   1.0554337329   1.0554337329   0.1600000000                   
 INPUT CARD> BE          4.0   1.0554337329  -1.0554337329  -0.0300000000                   
   40000000 WORDS OF MEMORY AVAILABLE

     BASIS OPTIONS
     -------------
     GBASIS=DFTB         IGAUSS=       0      POLAR=NONE    
     NDFUNC=       0     NFFUNC=       0     DIFFSP=       F
     NPFUNC=       0      DIFFS=       F     BASNAM=        


     RUN TITLE
     ---------
  Optimized Be2                                                                  

 THE POINT GROUP OF THE MOLECULE IS C1      
 THE ORDER OF THE PRINCIPAL AXIS IS     0

  **********************************************************
  **  DENSITY-FUNCTIONAL TIGHT-BINDING (DFTB) CALCULATION **
  **********************************************************
        WRITTEN BY YOSHIO NISHIMOTO (NAGOYA UNIVERSITY)

 NUMBER OF SPECIES:  1
        SPECIES 1 :  BE      WITH S+P   ORBITALS

     $DFTB OPTIONS
     -------------
 NDFTB =       2     SCC   =       T     DFTB3 =       F
 SRSCC =       F     DAMPXH=       F     DAMPEX=    0.00
 DISP  =NONE         ITYPMX=       0     ETEMP =    0.00
 MODESD=       0     MODGAM=       0     PRTORB=       F

 --- SCC CALCULATION ---

 BROYDEN'S CHARGE MIXING

 ERROR INFORMATION FOR FILE: /home/dima/gamess/tests/dftb/parameters/Be-Be.spl
 IOSTAT =   2

   0 SLATER-KOSTER FILES WILL BE READ

 ERROR!
 SLATER-KOSTER FILE FOR BE   - BE   HAS NOT BEEN FOUND

  PERHAPS ATOMS IN $DATA AND $DFTBSK MISMATCH?
 EXECUTION OF GAMESS TERMINATED -ABNORMALLY- AT Fri Jun  2 00:48:12 2017
               580000  WORDS OF DYNAMIC MEMORY USED
 STEP CPU TIME =     0.01 TOTAL CPU TIME =        0.0 (    0.0 MIN)
 TOTAL WALL CLOCK TIME=        0.0 SECONDS, CPU UTILIZATION IS  25.00%
 DDI Process 0: error code 911
 ddikick.x: application process 0 quit unexpectedly.
 ddikick.x: Fatal error detected.
 The error is most likely to be in the application, so check for
 input errors, disk space, memory needs, application bugs, etc.
 ddikick.x will now clean up all processes, and exit...
 ddikick.x: Sending kill signal to DDI processes.
 ddikick.x: Execution terminated due to error(s).
unset echo
----- accounting info -----
Files used on the master node compute-0-8.local were:
-rw-rw-r-- 1 sarom sarom   2281 Jun  2 00:48 /scratch/exam03.F05
-rw-rw-r-- 1 sarom sarom 785280 Jun  2 00:48 /scratch/exam03.F10
rm: cannot remove `/scratch/sarom': Is a directory
rm: cannot remove `/scratch/tmp': Is a directory
ls: No match.
ls: No match.
ls: No match.
Fri Jun  2 00:48:14 CDT 2017
0.244u 0.241s 0:02.59 18.5%	0+0k 8+376io 0pf+0w
Deleting shmid=2785280.
Deleting shmid=2818049.
/opt/gridengine/default/spool/compute-0-8/active_jobs/23485.1/pe_hostfile compute-0-8.local
