-catch_rsh /opt/gridengine/default/spool/compute-0-2/active_jobs/23483.1/pe_hostfile
compute-0-2
The primary node assigned by SGE to this run is compute-0-2
Warning: no access to tty (Bad file descriptor).
Thus no job control in this shell.
Deleting shmid=3964928.
Deleting shmid=3997697.
Deleting shmid=4227074.
source /home/sarom/gamess.github.2017-05-31.14.06/install.info
setenv GMS_PATH /home/sarom/gamess.github.2017-05-31.14.06
setenv GMS_BUILD_DIR /home/sarom/gamess.github.2017-05-31.14.06
setenv GMS_TARGET linux64
setenv GMS_FORTRAN gfortran
setenv GMS_GFORTRAN_VERNO 4.4
setenv GMS_MATHLIB mkl-so
setenv GMS_MATHLIB_PATH /share/apps/intel/compilers_and_libraries_2017.1.132/linux/mkl/lib/intel64
setenv GMS_MKL_VERNO 12
setenv GMS_DDI_COMM sockets
setenv GMS_LIBCCHEM false
setenv GMS_EIGEN_PATH
setenv GMS_PHI false
setenv GMS_SHMTYPE sysv
setenv GMS_OPENMP false
unset echo
exam01
tests/dftb
----- GAMESS execution script 'rungms' -----
This job is running on host compute-0-2.local
under operating system Linux at Fri Jun 2 00:48:12 CDT 2017
Available scratch disk space (Kbyte units) at beginning of the job is
Filesystem           1K-blocks      Used Available Use% Mounted on
/dev/sda1             16126920   3867312  11440408  26% /
GAMESS temporary binary files will be written to /scratch
GAMESS supplementary output files will be written to /home/sarom/restart
Copying input file exam01.inp to your run's scratch directory...
cp tests/dftb/exam01.inp /scratch/exam01.F05
unset echo
The generated host list is
compute-0-2.local
/home/sarom/gamess.github.2017-05-31.14.06/ddikick.x /home/sarom/gamess.github.2017-05-31.14.06/gamess.00.x exam01 -ddi 1 1 compute-0-2.local -scr /scratch

 Distributed Data Interface kickoff program.
 Initiating 1 compute processes on 1 nodes to run the following command:
 /home/sarom/gamess.github.2017-05-31.14.06/gamess.00.x exam01 

          ******************************************************
          *         GAMESS VERSION = 20 APR 2017 (R1)          *
          *             FROM IOWA STATE UNIVERSITY             *
          * M.W.SCHMIDT, K.K.BALDRIDGE, J.A.BOATZ, S.T.ELBERT, *
          *   M.S.GORDON, J.H.JENSEN, S.KOSEKI, N.MATSUNAGA,   *
          *          K.A.NGUYEN, S.J.SU, T.L.WINDUS,           *
          *       TOGETHER WITH M.DUPUIS, J.A.MONTGOMERY       *
          *         J.COMPUT.CHEM.  14, 1347-1363(1993)        *
          **************** 64 BIT LINUX VERSION ****************

  SINCE 1993, STUDENTS AND POSTDOCS WORKING AT IOWA STATE UNIVERSITY
  AND ALSO IN THEIR VARIOUS JOBS AFTER LEAVING ISU HAVE MADE IMPORTANT
  CONTRIBUTIONS TO THE CODE:
     IVANA ADAMOVIC, CHRISTINE AIKENS, YURI ALEXEEV, POOJA ARORA,
     ANDREY ASADCHEV, ROB BELL, PRADIPTA BANDYOPADHYAY, JONATHAN BENTZ,
     BRETT BODE, KURT BRORSEN, CALEB CARLIN, GALINA CHABAN, WEI CHEN,
     CHEOL HO CHOI, PAUL DAY, ALBERT DEFUSCO, NUWAN DESILVA, TIM DUDLEY,
     DMITRI FEDOROV, GRAHAM FLETCHER, MARK FREITAG, KURT GLAESEMANN,
     DAN KEMP, GRANT MERRILL, NORIYUKI MINEZAWA, JONATHAN MULLIN,
     TAKESHI NAGATA, SEAN NEDD, HEATHER NETZLOFF, BOSILJKA NJEGIC, RYAN OLSON,
     MIKE PAK, SPENCER PRUITT, LUKE ROSKOP, JIM SHOEMAKER, LYUDMILA SLIPCHENKO,
     TONY SMITH, SAROM SOK LEANG, JIE SONG, TETSUYA TAKETSUGU, SIMON WEBB,
     PENG XU, SOOHAENG YOO, FEDERICO ZAHARIEV

  ADDITIONAL CODE HAS BEEN PROVIDED BY COLLABORATORS IN OTHER GROUPS:
     IOWA STATE UNIVERSITY:
          JOE IVANIC, AARON WEST, LAIMUTIS BYTAUTAS, KLAUS RUEDENBERG
     UNIVERSITY OF TOKYO: KIMIHIKO HIRAO, TAKAHITO NAKAJIMA,
          TAKAO TSUNEDA, MUNEAKI KAMIYA, SUSUMU YANAGISAWA,
          KIYOSHI YAGI, MAHITO CHIBA, SEIKEN TOKURA, NAOAKI KAWAKAMI
     UNIVERSITY OF AARHUS: FRANK JENSEN
     UNIVERSITY OF IOWA: VISVALDAS KAIRYS, HUI LI
     NATIONAL INST. OF STANDARDS AND TECHNOLOGY: WALT STEVENS, DAVID GARMER
     UNIVERSITY OF PISA: BENEDETTA MENNUCCI, JACOPO TOMASI
     UNIVERSITY OF MEMPHIS: HENRY KURTZ, PRAKASHAN KORAMBATH
     UNIVERSITY OF ALBERTA: TOBY ZENG, MARIUSZ KLOBUKOWSKI
     UNIVERSITY OF NEW ENGLAND: MARK SPACKMAN
     MIE UNIVERSITY: HIROAKI UMEDA
     NAT. INST. OF ADVANCED INDUSTRIAL SCIENCE AND TECHNOLOGY: KAZUO KITAURA
     MICHIGAN STATE UNIVERSITY:
          KAROL KOWALSKI, MARTA WLOCH, JEFFREY GOUR, JESSE LUTZ,
          WEI LI, PIOTR PIECUCH
     UNIVERSITY OF SILESIA: MONIKA MUSIAL, STANISLAW KUCHARSKI
     FACULTES UNIVERSITAIRES NOTRE-DAME DE LA PAIX:
          OLIVIER QUINET, BENOIT CHAMPAGNE
     UNIVERSITY OF CALIFORNIA - SANTA BARBARA: BERNARD KIRTMAN
     INSTITUTE FOR MOLECULAR SCIENCE:
          KAZUYA ISHIMURA, MICHIO KATOUDA, AND SHIGERU NAGASE
     UNIVERSITY OF NOTRE DAME: ANNA POMOGAEVA, DAN CHIPMAN
     KYUSHU UNIVERSITY:
          HARUYUKI NAKANO,
          FENG LONG GU, JACEK KORCHOWIEC, MARCIN MAKOWSKI, AND YURIKO AOKI,
          HIROTOSHI MORI AND EISAKU MIYOSHI
     PENNSYLVANIA STATE UNIVERSITY:
          TZVETELIN IORDANOV, CHET SWALINA, JONATHAN SKONE,
          SHARON HAMMES-SCHIFFER
     WASEDA UNIVERSITY:
          MASATO KOBAYASHI, TOMOKO AKAMA, TSUGUKI TOUMA,
          TAKESHI YOSHIKAWA, YASUHIRO IKABATA, JUNJI SEINO,
          YUYA NAKAJIMA, HIROMI NAKAI
     NANJING UNIVERSITY: SHUHUA LI
     UNIVERSITY OF NEBRASKA:
          PEIFENG SU, DEJUN SI, NANDUN THELLAMUREGE, YALI WANG, HUI LI
     UNIVERSITY OF ZURICH: ROBERTO PEVERATI, KIM BALDRIDGE
     N. COPERNICUS UNIVERSITY AND JACKSON STATE UNIVERSITY:
          MARIA BARYSZ
     UNIVERSITY OF COPENHAGEN: Jimmy Kromann, CASPER STEINMANN
     TOKYO INSTITUTE OF TECHNOLOGY: HIROYA NAKATA
     NAGOYA UNIVERSITY: YOSHIO NISHIMOTO, STEPHAN IRLE
     MOSCOW STATE UNIVERSITY: VLADIMIR MIRONOV

 EXECUTION OF GAMESS BEGUN Fri Jun  2 00:48:12 2017

            ECHO OF THE FIRST FEW INPUT CARDS -
 INPUT CARD>! This is a sample input of gradient calculation for optimized Be2.             
 INPUT CARD>! The parameter used in this calculation is described in the following          
 INPUT CARD>! literature:                                                                   
 INPUT CARD>!   Takagi, H.; Koike, F.; Nakamura, N.; Sakaue, H. A.; Sawada, K.; Goto, M.;   
 INPUT CARD>!   Kato, D.; Ashikawa, N.; Nishimura, Y.; Saito, J.; Yokogawa, D.;             
 INPUT CARD>!   Chou, C.-P.; Witek, H.-A.; Irle, S. J. Plasma Fusion Res. 2013, 89, 583-598.
 INPUT CARD>! Although the journal is in Japanese , the computational part is written in    
 INPUT CARD>! English.                                                                      
 INPUT CARD>!                                                                               
 INPUT CARD>! This calculation corresponds to SCC-DFTB (DFTB2), and iterative SCF           
 INPUT CARD>! calculation is performed until it converges.                                  
 INPUT CARD>!                                                                               
 INPUT CARD>! The total energy is -0.8628099171 (Hartree) after 3 SCF cycles,               
 INPUT CARD>! and nuclear energy is 0.0438123135.                                           
 INPUT CARD>! The maximum and RMS gradients must be less than 1.0d-08.                      
 INPUT CARD>!                                                                               
 INPUT CARD>! The bond length shown in the paper above is 2.097 (Parameter 1).              
 INPUT CARD>!                                                                               
 INPUT CARD>! Disclaimer: these parameters are provided so that the correctness of          
 INPUT CARD>! the DFTB code in GAMESS can be tested. For production DFTB runs,              
 INPUT CARD>! please obtain parameters from the official site www.dftb.org.                 
 INPUT CARD>!                                                                               
 INPUT CARD>! You will have to edit the path below in $DFTBSK to run this input.            
 INPUT CARD>!                                                                               
 INPUT CARD>! Do not run DFTB in parallel (except FMO-DFTB, see exam04.inp)!                
 INPUT CARD>!                                                                               
 INPUT CARD>! This file was provided by Yoshio Nishimoto and Stephan Irle,                  
 INPUT CARD>! and the parameters were generated by Yoshifumi Nishimura (Nagoya U., Japan).  
 INPUT CARD>!                                                                               
 INPUT CARD> $CONTRL RUNTYP=GRADIENT NPRINT=-5 $END                                         
 INPUT CARD> $SYSTEM MWORDS=40 $END                                                         
 INPUT CARD> $SCF CONV=1.0D-12 $END                                                         
 INPUT CARD> $BASIS GBASIS=DFTB $END                                                        
 INPUT CARD> $DFTB NDFTB=2 $END                                                             
 INPUT CARD>!  --- !!!! modify the path below !!!! ---                                      
 INPUT CARD> $DFTBSK                                                                        
 INPUT CARD>   Be Be "/home/dima/gamess/tests/dftb/parameters/Be-Be.spl"                    
 INPUT CARD> $END                                                                           
 INPUT CARD> $DATA                                                                          
 INPUT CARD> Optimized Be2                                                                  
 INPUT CARD> C1                                                                             
 INPUT CARD> BE          4.0   0.0000000000   0.0000000000   0.0000000000                   
 INPUT CARD> BE          4.0   2.0965676508   0.0000000000   0.0000000000                   
 INPUT CARD> $END                                                                           
   40000000 WORDS OF MEMORY AVAILABLE

     BASIS OPTIONS
     -------------
     GBASIS=DFTB         IGAUSS=       0      POLAR=NONE    
     NDFUNC=       0     NFFUNC=       0     DIFFSP=       F
     NPFUNC=       0      DIFFS=       F     BASNAM=        


     RUN TITLE
     ---------
  Optimized Be2                                                                  

 THE POINT GROUP OF THE MOLECULE IS C1      
 THE ORDER OF THE PRINCIPAL AXIS IS     0

  **********************************************************
  **  DENSITY-FUNCTIONAL TIGHT-BINDING (DFTB) CALCULATION **
  **********************************************************
        WRITTEN BY YOSHIO NISHIMOTO (NAGOYA UNIVERSITY)

 NUMBER OF SPECIES:  1
        SPECIES 1 :  BE      WITH S+P   ORBITALS

     $DFTB OPTIONS
     -------------
 NDFTB =       2     SCC   =       T     DFTB3 =       F
 SRSCC =       F     DAMPXH=       F     DAMPEX=    0.00
 DISP  =NONE         ITYPMX=       0     ETEMP =    0.00
 MODESD=       0     MODGAM=       0     PRTORB=       F

 --- SCC CALCULATION ---

 BROYDEN'S CHARGE MIXING

 ERROR INFORMATION FOR FILE: /home/dima/gamess/tests/dftb/parameters/Be-Be.spl
 IOSTAT =   2

   0 SLATER-KOSTER FILES WILL BE READ

 ERROR!
 SLATER-KOSTER FILE FOR BE   - BE   HAS NOT BEEN FOUND

  PERHAPS ATOMS IN $DATA AND $DFTBSK MISMATCH?
 EXECUTION OF GAMESS TERMINATED -ABNORMALLY- AT Fri Jun  2 00:48:12 2017
               580000  WORDS OF DYNAMIC MEMORY USED
 STEP CPU TIME =     0.00 TOTAL CPU TIME =        0.0 (    0.0 MIN)
 TOTAL WALL CLOCK TIME=        0.0 SECONDS, CPU UTILIZATION IS   0.00%
 DDI Process 0: error code 911
 ddikick.x: application process 0 quit unexpectedly.
 ddikick.x: Fatal error detected.
 The error is most likely to be in the application, so check for
 input errors, disk space, memory needs, application bugs, etc.
 ddikick.x will now clean up all processes, and exit...
 ddikick.x: Sending kill signal to DDI processes.
 ddikick.x: Execution terminated due to error(s).
unset echo
----- accounting info -----
Files used on the master node compute-0-2.local were:
-rw-rw-r-- 1 sarom sarom   1721 Jun  2 00:48 /scratch/exam01.F05
-rw-rw-r-- 1 sarom sarom 785280 Jun  2 00:48 /scratch/exam01.F10
rm: cannot remove `/scratch/sarom': Is a directory
rm: cannot remove `/scratch/tmp': Is a directory
ls: No match.
ls: No match.
ls: No match.
Fri Jun  2 00:48:14 CDT 2017
0.137u 0.036s 0:02.26 7.0%	0+0k 8+376io 0pf+0w
Deleting shmid=3964928.
Deleting shmid=3997697.
Deleting shmid=4227074.
/opt/gridengine/default/spool/compute-0-2/active_jobs/23483.1/pe_hostfile compute-0-2.local
