----- GAMESS execution script 'rungms' -----
This job is running on host compute-3-0
under operating system Linux at Mon Nov 28 18:29:50 CST 2016
Available scratch disk space (Kbyte units) at beginning of the job is
Filesystem            1K-blocks       Used  Available Use% Mounted on
bolt.local:/export/home/sarom
                     9590469632 1552118784 7551182848  18% /home/sarom
Copying input file exam48.inp to your run's scratch directory...
cp exam48.inp .//exam48.F05
unset echo
/home/sarom/gamessGH/ddikick.x /home/sarom/gamessGH/gamess.00.x exam48 -ddi 1 1 localhost -scr ./

 Distributed Data Interface kickoff program.
 Initiating 1 compute processes on 1 nodes to run the following command:
 /home/sarom/gamessGH/gamess.00.x exam48 

          ******************************************************
          *         GAMESS VERSION = 18 AUG 2016 (R1)          *
          *             FROM IOWA STATE UNIVERSITY             *
          * M.W.SCHMIDT, K.K.BALDRIDGE, J.A.BOATZ, S.T.ELBERT, *
          *   M.S.GORDON, J.H.JENSEN, S.KOSEKI, N.MATSUNAGA,   *
          *          K.A.NGUYEN, S.J.SU, T.L.WINDUS,           *
          *       TOGETHER WITH M.DUPUIS, J.A.MONTGOMERY       *
          *         J.COMPUT.CHEM.  14, 1347-1363(1993)        *
          **************** 64 BIT LINUX VERSION ****************

  SINCE 1993, STUDENTS AND POSTDOCS WORKING AT IOWA STATE UNIVERSITY
  AND ALSO IN THEIR VARIOUS JOBS AFTER LEAVING ISU HAVE MADE IMPORTANT
  CONTRIBUTIONS TO THE CODE:
     IVANA ADAMOVIC, CHRISTINE AIKENS, YURI ALEXEEV, POOJA ARORA,
     ANDREY ASADCHEV, ROB BELL, PRADIPTA BANDYOPADHYAY, JONATHAN BENTZ,
     BRETT BODE, KURT BRORSEN, CALEB CARLIN, GALINA CHABAN, WEI CHEN,
     CHEOL HO CHOI, PAUL DAY, ALBERT DEFUSCO, NUWAN DESILVA, TIM DUDLEY,
     DMITRI FEDOROV, GRAHAM FLETCHER, MARK FREITAG, KURT GLAESEMANN,
     DAN KEMP, GRANT MERRILL, NORIYUKI MINEZAWA, JONATHAN MULLIN,
     TAKESHI NAGATA, SEAN NEDD, HEATHER NETZLOFF, BOSILJKA NJEGIC, RYAN OLSON,
     MIKE PAK, SPENCER PRUITT, LUKE ROSKOP, JIM SHOEMAKER, LYUDMILA SLIPCHENKO,
     TONY SMITH, SAROM SOK LEANG, JIE SONG, TETSUYA TAKETSUGU, SIMON WEBB,
     PENG XU, SOOHAENG YOO, FEDERICO ZAHARIEV

  ADDITIONAL CODE HAS BEEN PROVIDED BY COLLABORATORS IN OTHER GROUPS:
     IOWA STATE UNIVERSITY:
          JOE IVANIC, AARON WEST, LAIMUTIS BYTAUTAS, KLAUS RUEDENBERG
     UNIVERSITY OF TOKYO: KIMIHIKO HIRAO, TAKAHITO NAKAJIMA,
          TAKAO TSUNEDA, MUNEAKI KAMIYA, SUSUMU YANAGISAWA,
          KIYOSHI YAGI, MAHITO CHIBA, SEIKEN TOKURA, NAOAKI KAWAKAMI
     UNIVERSITY OF AARHUS: FRANK JENSEN
     UNIVERSITY OF IOWA: VISVALDAS KAIRYS, HUI LI
     NATIONAL INST. OF STANDARDS AND TECHNOLOGY: WALT STEVENS, DAVID GARMER
     UNIVERSITY OF PISA: BENEDETTA MENNUCCI, JACOPO TOMASI
     UNIVERSITY OF MEMPHIS: HENRY KURTZ, PRAKASHAN KORAMBATH
     UNIVERSITY OF ALBERTA: TOBY ZENG, MARIUSZ KLOBUKOWSKI
     UNIVERSITY OF NEW ENGLAND: MARK SPACKMAN
     MIE UNIVERSITY: HIROAKI UMEDA
     NAT. INST. OF ADVANCED INDUSTRIAL SCIENCE AND TECHNOLOGY: KAZUO KITAURA
     MICHIGAN STATE UNIVERSITY:
          KAROL KOWALSKI, MARTA WLOCH, JEFFREY GOUR, JESSE LUTZ,
          WEI LI, PIOTR PIECUCH
     UNIVERSITY OF SILESIA: MONIKA MUSIAL, STANISLAW KUCHARSKI
     FACULTES UNIVERSITAIRES NOTRE-DAME DE LA PAIX:
          OLIVIER QUINET, BENOIT CHAMPAGNE
     UNIVERSITY OF CALIFORNIA - SANTA BARBARA: BERNARD KIRTMAN
     INSTITUTE FOR MOLECULAR SCIENCE:
          KAZUYA ISHIMURA, MICHIO KATOUDA, AND SHIGERU NAGASE
     UNIVERSITY OF NOTRE DAME: ANNA POMOGAEVA, DAN CHIPMAN
     KYUSHU UNIVERSITY:
          HARUYUKI NAKANO,
          FENG LONG GU, JACEK KORCHOWIEC, MARCIN MAKOWSKI, AND YURIKO AOKI,
          HIROTOSHI MORI AND EISAKU MIYOSHI
     PENNSYLVANIA STATE UNIVERSITY:
          TZVETELIN IORDANOV, CHET SWALINA, JONATHAN SKONE,
          SHARON HAMMES-SCHIFFER
     WASEDA UNIVERSITY:
          MASATO KOBAYASHI, TOMOKO AKAMA, TSUGUKI TOUMA,
          TAKESHI YOSHIKAWA, YASUHIRO IKABATA, JUNJI SEINO,
          YUYA NAKAJIMA, HIROMI NAKAI
     NANJING UNIVERSITY: SHUHUA LI
     UNIVERSITY OF NEBRASKA:
          PEIFENG SU, DEJUN SI, NANDUN THELLAMUREGE, YALI WANG, HUI LI
     UNIVERSITY OF ZURICH: ROBERTO PEVERATI, KIM BALDRIDGE
     N. COPERNICUS UNIVERSITY AND JACKSON STATE UNIVERSITY:
          MARIA BARYSZ
     UNIVERSITY OF COPENHAGEN: Jimmy Kromann, CASPER STEINMANN
     TOKYO INSTITUTE OF TECHNOLOGY: HIROYA NAKATA
     NAGOYA UNIVERSITY: YOSHIO NISHIMOTO, STEPHAN IRLE
     MOSCOW STATE UNIVERSITY: VLADIMIR MIRONOV

 EXECUTION OF GAMESS BEGUN Mon Nov 28 18:29:51 2016

            ECHO OF THE FIRST FEW INPUT CARDS -
 INPUT CARD>!   EXAM48.                                                                     
 INPUT CARD>!   Geometry optimization of a pseudo-octahedral Be6 cluster                    
 INPUT CARD>!   with DFTB2-D3(BJ).                                                          
 INPUT CARD>!                                                                               
 INPUT CARD>!   Final energy is -2.7272489283 (Hartree) after 25 steps                      
 INPUT CARD>!   Maximum and RMS gradient are shown to be zero.                              
 INPUT CARD>!                                                                               
 INPUT CARD> $CONTRL RUNTYP=OPTIMIZE NPRINT=-5 $END                                         
 INPUT CARD> $STATPT NSTEP=200 OPTTOL=1.0D-09 HSSEND=.TRUE. HESS=CALC $END                  
 INPUT CARD> $SYSTEM MWORDS=40 $END                                                         
 INPUT CARD> $SCF CONV=1.0D-12 $END                                                         
 INPUT CARD> $BASIS GBASIS=DFTB $END                                                        
 INPUT CARD> $DFT IDCVER=4 $END                                                             
 INPUT CARD> $DFTB NDFTB=2 DISP=DFT $END                                                    
 INPUT CARD>!                                                                               
 INPUT CARD>!   Modify the location of parameters in $DFTBSK before running!                
 INPUT CARD>!                                                                               
 INPUT CARD> $DFTBSK                                                                        
 INPUT CARD>   Be Be /home/sarom/gamessGH/tests/dftb/parameters/Be-Be.spl                   
 INPUT CARD> $END                                                                           
 INPUT CARD> $DATA                                                                          
 INPUT CARD> Be6                                                                            
 INPUT CARD> C1                                                                             
 INPUT CARD> BE          4.0   1.0554337329   1.0554337329   0.1600000000                   
 INPUT CARD> BE          4.0   1.0554337329  -1.0554337329  -0.0300000000                   
 INPUT CARD> BE          4.0  -1.0554337329   1.0554337329   0.0300000000                   
 INPUT CARD> BE          4.0  -1.0554337329  -1.0554337329  -0.1600000000                   
 INPUT CARD> BE          4.0   0.0900000000   0.1400000000   1.4926087121                   
 INPUT CARD> BE          4.0   0.0900000000  -0.1400000000  -1.4926087121                   
 INPUT CARD> $END                                                                           
   40000000 WORDS OF MEMORY AVAILABLE

     BASIS OPTIONS
     -------------
     GBASIS=DFTB         IGAUSS=       0      POLAR=NONE    
     NDFUNC=       0     NFFUNC=       0     DIFFSP=       F
     NPFUNC=       0      DIFFS=       F     BASNAM=        


     RUN TITLE
     ---------
  Be6                                                                            

 THE POINT GROUP OF THE MOLECULE IS C1      
 THE ORDER OF THE PRINCIPAL AXIS IS     0

  **********************************************************
  **  DENSITY-FUNCTIONAL TIGHT-BINDING (DFTB) CALCULATION **
  **********************************************************
        WRITTEN BY YOSHIO NISHIMOTO (NAGOYA UNIVERSITY)

 NUMBER OF SPECIES:  1
        SPECIES 1 :  BE      WITH S+P   ORBITALS

     $DFTB OPTIONS
     -------------
 NDFTB =       2     SCC   =       T     DFTB3 =       F
 SRSCC =       F     DAMPXH=       F     DAMPEX=    0.00
 DISP  =DFT          ITYPMX=       0     ETEMP =    0.00
 MODESD=       0     MODGAM=       0     PRTORB=       F

 --- SCC CALCULATION ---

 BROYDEN'S CHARGE MIXING
 DFT-D[1,2,3] TYPE DISPERSION IS TURNED ON

   1 SLATER-KOSTER FILES WILL BE READ

  START READING SLATER-KOSTER FILES

  1  1 (BE       - BE      ) = /home/sarom/gamessGH/tests/dftb/parameters/Be-Be.spl

 ATOM      ATOMIC                      COORDINATES (BOHR)
           CHARGE         X                   Y                   Z
 BE          4.0     1.9944805534        1.9944805534        0.3023561580
 BE          4.0     1.9944805534       -1.9944805534       -0.0566917796
 BE          4.0    -1.9944805534        1.9944805534        0.0566917796
 BE          4.0    -1.9944805534       -1.9944805534       -0.3023561580
 BE          4.0     0.1700753389        0.2645616383        2.8206214728
 BE          4.0     0.1700753389       -0.2645616383       -2.8206214728

          INTERNUCLEAR DISTANCES (ANGS.)
          ------------------------------

                1 BE         2 BE         3 BE         4 BE         5 BE    

   1 BE      0.0000000    2.1194012 *  2.1148668 *  3.0023196    1.8830632 *
   2 BE      2.1194012 *  0.0000000    2.9858203 *  2.1148668 *  2.1632063 *
   3 BE      2.1148668 *  2.9858203 *  0.0000000    2.1194012 *  2.0710533 *
   4 BE      3.0023196    2.1148668 *  2.1194012 *  0.0000000    2.3392725 *
   5 BE      1.8830632 *  2.1632063 *  2.0710533 *  2.3392725 *  0.0000000  
   6 BE      2.2565991 *  1.9771964 *  2.2493149 *  1.9813842 *  2.9983200 *

                6 BE    

   1 BE      2.2565991 *
   2 BE      1.9771964 *
   3 BE      2.2493149 *
   4 BE      1.9813842 *
   5 BE      2.9983200 *
   6 BE      0.0000000  

  * ... LESS THAN  3.000


 TOTAL NUMBER OF BASIS SET SHELLS             =   12
 NUMBER OF CARTESIAN GAUSSIAN BASIS FUNCTIONS =   24
 NOTE: THIS RUN WILL RESTRICT THE MO VARIATION SPACE TO SPHERICAL HARMONICS.
 THE NUMBER OF ORBITALS KEPT IN THE VARIATIONAL SPACE WILL BE PRINTED LATER.
 NUMBER OF ELECTRONS                          =   12
 CHARGE OF MOLECULE                           =    0
 SPIN MULTIPLICITY                            =    1
 NUMBER OF OCCUPIED ORBITALS (ALPHA)          =    6
 NUMBER OF OCCUPIED ORBITALS (BETA )          =    6
 TOTAL NUMBER OF ATOMS                        =    6
 THE NUCLEAR REPULSION ENERGY IS        0.0000000000

     $CONTRL OPTIONS
     ---------------
 SCFTYP=RHF          RUNTYP=OPTIMIZE     EXETYP=RUN     
 MPLEVL=       0     CITYP =NONE         CCTYP =NONE         VBTYP =NONE    
 DFTTYP=NONE         TDDFT =NONE    
 MULT  =       1     ICHARG=       0     NZVAR =       0     COORD =UNIQUE  
 PP    =NONE         RELWFN=NONE         LOCAL =NONE         NUMGRD=       F
 ISPHER=       1     NOSYM =       0     MAXIT =      30     UNITS =ANGS    
 PLTORB=       F     MOLPLT=       F     AIMPAC=       F     FRIEND=        
 NPRINT=      -5     IREST =       0     GEOM  =INPUT   
 NORMF =       0     NORMP =       0     ITOL  =      20     ICUT  =       9
 INTTYP=BEST         GRDTYP=BEST         QMTTOL= 1.0E-06

     $SYSTEM OPTIONS
     ---------------
  REPLICATED MEMORY=    40000000 WORDS (ON EVERY NODE).
 DISTRIBUTED MEMDDI=           0 MILLION WORDS IN AGGREGATE,
 MEMDDI DISTRIBUTED OVER   1 PROCESSORS IS           0 WORDS/PROCESSOR.
 TOTAL MEMORY REQUESTED ON EACH PROCESSOR=    40000000 WORDS.
 TIMLIM=      525600.00 MINUTES, OR     365.0 DAYS.
 PARALL= F  BALTYP=  DLB     KDIAG=    0  COREFL= F
 MXSEQ2=     300 MXSEQ3=     150  mem10=         0

          ----------------
          PROPERTIES INPUT
          ----------------

     MOMENTS            FIELD           POTENTIAL          DENSITY
 IEMOM =       1   IEFLD =       0   IEPOT =       0   IEDEN =       0
 WHERE =COMASS     WHERE =NUCLEI     WHERE =NUCLEI     WHERE =NUCLEI  
 OUTPUT=BOTH       OUTPUT=BOTH       OUTPUT=BOTH       OUTPUT=BOTH    
 IEMINT=       0   IEFINT=       0                     IEDINT=       0
                                                       MORB  =       0
          EXTRAPOLATION IN EFFECT
          SOSCF IN EFFECT
 ORBITAL PRINTING OPTION: NPREO=     1    24     2     1

     -------------------------------
     INTEGRAL TRANSFORMATION OPTIONS
     -------------------------------
     NWORD  =            0
     CUTOFF = 1.0E-09     MPTRAN =       0
     DIRTRF =       F     AOINTS =DUP     

          ----------------------
          INTEGRAL INPUT OPTIONS
          ----------------------
 NOPK  =       1 NORDER=       0 SCHWRZ=       T

     ------------------------------------------
     THE POINT GROUP IS C1 , NAXIS= 0, ORDER= 1
     ------------------------------------------

 -- VARIATIONAL SPACE WILL BE RESTRICTED TO PURE SPHERICAL HARMONICS ONLY --
 AFTER EXCLUDING CONTAMINANT COMBINATIONS FROM THE CARTESIAN GAUSSIAN BASIS
 SET, THE NUMBER OF SPHERICAL HARMONICS KEPT IN THE VARIATION SPACE IS   24

     DIMENSIONS OF THE SYMMETRY SUBSPACES ARE
 A   =   24

 ..... DONE SETTING UP THE RUN .....
 STEP CPU TIME =     0.04 TOTAL CPU TIME =        0.0 (    0.0 MIN)
 TOTAL WALL CLOCK TIME=        0.1 SECONDS, CPU UTILIZATION IS  57.14%


          -----------------------------
          STATIONARY POINT LOCATION RUN
          -----------------------------

 OBTAINING INITIAL HESSIAN, HESS=CALC    
 Old integral subroutine is used
 ...... END OF NCC-DFTB PREPARATION ......
 STEP CPU TIME =     0.00 TOTAL CPU TIME =        0.0 (    0.0 MIN)
 TOTAL WALL CLOCK TIME=        0.1 SECONDS, CPU UTILIZATION IS  57.14%

          -------------
          GUESS OPTIONS
          -------------
          GUESS =HUCKEL            NORB  =       0          NORDER=       0
          MIX   =       F          PRTMO =       F          PUNMO =       F
          TOLZ  = 1.0E-08          TOLE  = 1.0E-05
          SYMDEN=       F          PURIFY=       F

 INITIAL GUESS OPTIONS ARE IGNORED FOR DFTB

          --------------------------
             SCC-DFTB CALCULATION
          --------------------------
     DENSITY MATRIX CONV=  1.00E-12

 ITER EX DEM     TOTAL ENERGY        E CHANGE  DENSITY CHANGE    DIIS ERROR
   1  0  0       -2.6830860094    -2.6830860094   0.789898034   0.000000000
   2  1  0       -2.6832902559    -0.0002042465   0.007888020   0.070607277
   3  2  0       -2.6834522557    -0.0001619998   0.018642103   0.169111587
   4  3  0       -2.6834632128    -0.0000109571   0.002304603   0.018901045
   5  4  0       -2.6834632746    -0.0000000617   0.000327216   0.003598347
   6  5  0       -2.6834632778    -0.0000000033   0.000064968   0.000512581
   7  6  0       -2.6834632779    -0.0000000000   0.000009867   0.000100902
   8  7  0       -2.6834632779    -0.0000000000   0.000005306   0.000042137
   9  8  0       -2.6834632779    -0.0000000000   0.000000267   0.000002485
  10  9  0       -2.6834632779     0.0000000000   0.000000005   0.000000046
  11 10  0       -2.6834632779     0.0000000000   0.000000000   0.000000000
  12 11  0       -2.6834632779     0.0000000000   0.000000000   0.000000000

          -----------------
          DENSITY CONVERGED
          -----------------
     TIME TO FORM FOCK OPERATORS=       0.0 SECONDS (       0.0 SEC/ITER)
     TIME TO SOLVE SCF EQUATIONS=       0.0 SECONDS (       0.0 SEC/ITER)

          ----------------------------
          DFT-D PARAMETERS AND RESULTS
          ----------------------------
 C6 COEFFICIENTS USED:
       3 C6 FOR ELEMENT   4
  Z=  4 CN= 0.000     C6(AA)=  257.49
  Z=  4 CN= 0.981     C6(AA)=  135.84
  Z=  4 CN= 1.970     C6(AA)=   55.14

 #          XYZ [AU]             R0(AA) [ANG.]  CN         C6(AA)     C8(AA)   C10(AA) [AU]
  1   1.99448   1.99448   0.30236    4  1.010  3.816        55.1      2456.6    134081.6
  2   1.99448  -1.99448  -0.05669    4  1.010  3.885        55.1      2456.6    134081.6
  3  -1.99448   1.99448   0.05669    4  1.010  3.800        55.1      2456.6    134081.6
  4  -1.99448  -1.99448  -0.30236    4  1.010  3.711        55.1      2456.6    134081.6
  5   0.17008   0.26456   2.82062    4  1.010  3.715        55.1      2456.6    134081.6
  6   0.17008  -0.26456  -2.82062    4  1.010  3.757        55.1      2456.6    134081.6

     MOLECULAR C6(AA) [AU] =      1984.91

           DFT-D V3(BJ)

 FUNCTIONAL: NONE    

 PARAMETERS
 S6       :    1.0000
 S8       :    0.5883
 A1       :    0.5719
 A2       :    3.6017
 K1-K3    :   16.0000    1.3333    4.0000

 EDISP /KCAL,AU:    -4.3893 -0.00699487

 E6    /KCAL :    -2.9471
 E8    /KCAL :    -1.4422
 % E8        : 32.86

 FINAL RDFTB ENERGY IS       -2.6904581464 AFTER  12 ITERATIONS
 GRIMME'S DISPERSION ENERGY                     =       -0.0069948686
 ENERGY WITHOUT DISPERSION CORRECTION IS                -2.6834632779
 ...... END OF RDFTB CALCULATION ......
 STEP CPU TIME =     0.01 TOTAL CPU TIME =        0.0 (    0.0 MIN)
 TOTAL WALL CLOCK TIME=        0.1 SECONDS, CPU UTILIZATION IS  62.50%

          ----------------------------
          DFT-D PARAMETERS AND RESULTS
          ----------------------------
 C6 COEFFICIENTS USED:
       3 C6 FOR ELEMENT   4
  Z=  4 CN= 0.000     C6(AA)=  257.49
  Z=  4 CN= 0.981     C6(AA)=  135.84
  Z=  4 CN= 1.970     C6(AA)=   55.14

 #          XYZ [AU]             R0(AA) [ANG.]  CN         C6(AA)     C8(AA)   C10(AA) [AU]
  1   1.99448   1.99448   0.30236    4  1.010  3.816        55.1      2456.6    134081.6
  2   1.99448  -1.99448  -0.05669    4  1.010  3.885        55.1      2456.6    134081.6
  3  -1.99448   1.99448   0.05669    4  1.010  3.800        55.1      2456.6    134081.6
  4  -1.99448  -1.99448  -0.30236    4  1.010  3.711        55.1      2456.6    134081.6
  5   0.17008   0.26456   2.82062    4  1.010  3.715        55.1      2456.6    134081.6
  6   0.17008  -0.26456  -2.82062    4  1.010  3.757        55.1      2456.6    134081.6

     MOLECULAR C6(AA) [AU] =      1984.91

           DFT-D V3(BJ)

 FUNCTIONAL: NONE    

 PARAMETERS
 S6       :    1.0000
 S8       :    0.5883
 A1       :    0.5719
 A2       :    3.6017
 K1-K3    :   16.0000    1.3333    4.0000

 EDISP /KCAL,AU:    -4.3893 -0.00699487

 E6    /KCAL :    -2.9471
 E8    /KCAL :    -1.4422
 % E8        : 32.86
 STEP CPU TIME =     0.00 TOTAL CPU TIME =        0.0 (    0.0 MIN)
 TOTAL WALL CLOCK TIME=        0.1 SECONDS, CPU UTILIZATION IS  62.50%

          ----------------------------
          DFT-D PARAMETERS AND RESULTS
          ----------------------------
 C6 COEFFICIENTS USED:
       3 C6 FOR ELEMENT   4
  Z=  4 CN= 0.000     C6(AA)=  257.49
  Z=  4 CN= 0.981     C6(AA)=  135.84
  Z=  4 CN= 1.970     C6(AA)=   55.14

 #          XYZ [AU]             R0(AA) [ANG.]  CN         C6(AA)     C8(AA)   C10(AA) [AU]
  1   1.99448   1.99448   0.30236    4  1.010  3.816        55.1      2456.6    134081.6
  2   1.99448  -1.99448  -0.05669    4  1.010  3.885        55.1      2456.6    134081.6
  3  -1.99448   1.99448   0.05669    4  1.010  3.800        55.1      2456.6    134081.6
  4  -1.99448  -1.99448  -0.30236    4  1.010  3.711        55.1      2456.6    134081.6
  5   0.17008   0.26456   2.82062    4  1.010  3.715        55.1      2456.6    134081.6
  6   0.17008  -0.26456  -2.82062    4  1.010  3.757        55.1      2456.6    134081.6

     MOLECULAR C6(AA) [AU] =      1984.91

           DFT-D V3(BJ)

 FUNCTIONAL: NONE    

 PARAMETERS
 S6       :    1.0000
 S8       :    0.5883
 A1       :    0.5719
 A2       :    3.6017
 K1-K3    :   16.0000    1.3333    4.0000

 EDISP /KCAL,AU:    -4.3893 -0.00699487

 E6    /KCAL :    -2.9471
 E8    /KCAL :    -1.4422
 % E8        : 32.86
 STEP CPU TIME =     0.02 TOTAL CPU TIME =        0.1 (    0.0 MIN)
 TOTAL WALL CLOCK TIME=        0.1 SECONDS, CPU UTILIZATION IS  70.00%

          PARAMETERS CONTROLLING GEOMETRY SEARCH ARE
          METHOD =QA                  UPHESS =BFGS    
          NNEG   =         0          NFRZ   =         0
          NSTEP  =       200          IFOLOW =         1
          HESS   =CALC                RESTAR =         F
          IHREP  =         0          HSSEND =         T
          NPRT   =         0          NPUN   =         0
          OPTTOL = 1.000E-09          RMIN   = 1.500E-03
          RMAX   = 1.000E-01          RLIM   = 7.000E-02
          DXMAX  = 3.000E-01          PURIFY =         F
          MOVIE  =         F          TRUPD  =         T
          TRMAX  = 5.000E-01          TRMIN  = 5.000E-02
          ITBMAT =         5          STPT   =         F
          STSTEP = 1.000E-02          PROJCT=          T

 THE GRADIENT AT THE INITIAL GEOMETRY IS KNOWN.
 PROCEEDING DIRECTLY TO THE GEOMETRY SEARCH...

          NSERCH=  0     ENERGY=      -2.6904581

                                 -----------------------
                                 GRADIENT (HARTREE/BOHR)
                                 -----------------------
        ATOM     ZNUC       DE/DX         DE/DY         DE/DZ
 --------------------------------------------------------------
    1  BE           4.0    -0.0142510    -0.0048712    -0.0079231
    2  BE           4.0    -0.0139074     0.0050669    -0.0108001
    3  BE           4.0    -0.0020703     0.0159873     0.0042079
    4  BE           4.0    -0.0036578    -0.0135465     0.0176648
    5  BE           4.0     0.0029443    -0.0056603    -0.0018599
    6  BE           4.0     0.0309422     0.0030237    -0.0012896

          MAXIMUM GRADIENT = 0.0309422    RMS GRADIENT = 0.0116052

 NSERCH:   0  E=       -2.6904581464  GRAD. MAX=  0.0309422  R.M.S.=  0.0116052

          FORCE CONSTANT MATRIX NOT UPDATED --- TAKING FIRST STEP
 LOCAL CURVATURE   1 OF THE APPROXIMATE HESSIAN HAS EIGENVALUE=   -0.081590
 *** THIS MODE HAS AN INCORRECT CURVATURE ***
 THE COMPONENTS OF THIS MODE FOLLOWS:
       -0.174992       0.114647       0.168551      -0.230912      -0.070062
        0.395358       0.131847       0.012305      -0.328004       0.118898
       -0.146253      -0.317330       0.519673      -0.043356       0.155169
       -0.364514       0.132719      -0.073744
          TRIM/QA LAMBDA FOR NON-TS MODES =  -0.14074144
          TRIM/QA STEP HAS LENGTH         =   0.300000
          RADIUS OF STEP TAKEN=   0.30000  CURRENT TRUST RADIUS=   0.30000

 BEGINNING GEOMETRY SEARCH POINT NSERCH=   1 ...

 COORDINATES OF ALL ATOMS ARE (ANGS)
   ATOM   CHARGE       X              Y              Z
 ------------------------------------------------------------
 BE          4.0   1.0618858021   1.0639203958   0.1931050754
 BE          4.0   1.0530207530  -1.0567148355   0.0349173336
 BE          4.0  -1.0377149445   1.0350031824  -0.0156182562
 BE          4.0  -1.0400750751  -1.0575019812  -0.2253930145
 BE          4.0   0.1460129490   0.1443587206   1.5134031201
 BE          4.0  -0.0031294845  -0.1290654822  -1.5004142585

          INTERNUCLEAR DISTANCES (ANGS.)
          ------------------------------

                1 BE         2 BE         3 BE         4 BE         5 BE    

   1 BE      0.0000000    2.1265455 *  2.1101481 *  3.0155950    1.8513789 *
   2 BE      2.1265455 *  0.0000000    2.9578732 *  2.1092208 *  2.1097775 *
   3 BE      2.1101481 *  2.9578732 *  0.0000000    2.1029952 *  2.1289353 *
   4 BE      3.0155950    2.1092208 *  2.1029952 *  0.0000000    2.4237751 *
   5 BE      1.8513789 *  2.1097775 *  2.1289353 *  2.4237751 *  0.0000000  
   6 BE      2.3292661 *  2.0816411 *  2.1517533 *  1.8875724 *  3.0298679  

                6 BE    

   1 BE      2.3292661 *
   2 BE      2.0816411 *
   3 BE      2.1517533 *
   4 BE      1.8875724 *
   5 BE      3.0298679  
   6 BE      0.0000000  

  * ... LESS THAN  3.000

 ...... END OF NCC-DFTB PREPARATION ......
 STEP CPU TIME =     0.00 TOTAL CPU TIME =        0.1 (    0.0 MIN)
 TOTAL WALL CLOCK TIME=        0.1 SECONDS, CPU UTILIZATION IS  70.00%

          --------------------------
             SCC-DFTB CALCULATION
          --------------------------
     DENSITY MATRIX CONV=  5.00E-12

 ITER EX DEM     TOTAL ENERGY        E CHANGE  DENSITY CHANGE    DIIS ERROR
   1  0  0       -2.6916050131    -2.6916050131   0.783457627   0.000000000
   2  1  0       -2.6916235598    -0.0000185467   0.002243493   0.017252500
   3  2  0       -2.6916330071    -0.0000094473   0.003750255   0.031646309
   4  3  0       -2.6916338152    -0.0000008081   0.000849677   0.006961763
   5  4  0       -2.6916338262    -0.0000000110   0.000083397   0.000827303
   6  5  0       -2.6916338278    -0.0000000015   0.000042974   0.000424830
   7  6  0       -2.6916338279    -0.0000000002   0.000012664   0.000089798
   8  7  0       -2.6916338279    -0.0000000000   0.000000279   0.000002227
   9  8  0       -2.6916338279     0.0000000000   0.000000017   0.000000102
  10  9  0       -2.6916338279    -0.0000000000   0.000000000   0.000000000
  11 10  0       -2.6916338279     0.0000000000   0.000000000   0.000000000

          -----------------
          DENSITY CONVERGED
          -----------------
     TIME TO FORM FOCK OPERATORS=       0.0 SECONDS (       0.0 SEC/ITER)
     TIME TO SOLVE SCF EQUATIONS=       0.0 SECONDS (       0.0 SEC/ITER)

          ----------------------------
          DFT-D PARAMETERS AND RESULTS
          ----------------------------
 C6 COEFFICIENTS USED:
       3 C6 FOR ELEMENT   4
  Z=  4 CN= 0.000     C6(AA)=  257.49
  Z=  4 CN= 0.981     C6(AA)=  135.84
  Z=  4 CN= 1.970     C6(AA)=   55.14

 #          XYZ [AU]             R0(AA) [ANG.]  CN         C6(AA)     C8(AA)   C10(AA) [AU]
  1   2.00667   2.01052   0.36492    4  1.010  3.730        55.1      2456.6    134081.6
  2   1.98992  -1.99690   0.06598    4  1.010  3.895        55.1      2456.6    134081.6
  3  -1.96100   1.95587  -0.02951    4  1.010  3.867        55.1      2456.6    134081.6
  4  -1.96546  -1.99839  -0.42593    4  1.010  3.600        55.1      2456.6    134081.7
  5   0.27592   0.27280   2.85992    4  1.010  3.587        55.1      2456.6    134081.7
  6  -0.00591  -0.24390  -2.83537    4  1.010  3.723        55.1      2456.6    134081.6

     MOLECULAR C6(AA) [AU] =      1984.91

           DFT-D V3(BJ)

 FUNCTIONAL: NONE    

 PARAMETERS
 S6       :    1.0000
 S8       :    0.5883
 A1       :    0.5719
 A2       :    3.6017
 K1-K3    :   16.0000    1.3333    4.0000

 EDISP /KCAL,AU:    -4.3857 -0.00698903

 E6    /KCAL :    -2.9444
 E8    /KCAL :    -1.4413
 % E8        : 32.86

 FINAL RDFTB ENERGY IS       -2.6986228575 AFTER  11 ITERATIONS
 GRIMME'S DISPERSION ENERGY                     =       -0.0069890295
 ENERGY WITHOUT DISPERSION CORRECTION IS                -2.6916338279
 ...... END OF RDFTB CALCULATION ......
 STEP CPU TIME =     0.00 TOTAL CPU TIME =        0.1 (    0.0 MIN)
 TOTAL WALL CLOCK TIME=        0.1 SECONDS, CPU UTILIZATION IS  63.64%

          ----------------------------
          DFT-D PARAMETERS AND RESULTS
          ----------------------------
 C6 COEFFICIENTS USED:
       3 C6 FOR ELEMENT   4
  Z=  4 CN= 0.000     C6(AA)=  257.49
  Z=  4 CN= 0.981     C6(AA)=  135.84
  Z=  4 CN= 1.970     C6(AA)=   55.14

 #          XYZ [AU]             R0(AA) [ANG.]  CN         C6(AA)     C8(AA)   C10(AA) [AU]
  1   2.00667   2.01052   0.36492    4  1.010  3.730        55.1      2456.6    134081.6
  2   1.98992  -1.99690   0.06598    4  1.010  3.895        55.1      2456.6    134081.6
  3  -1.96100   1.95587  -0.02951    4  1.010  3.867        55.1      2456.6    134081.6
  4  -1.96546  -1.99839  -0.42593    4  1.010  3.600        55.1      2456.6    134081.7
  5   0.27592   0.27280   2.85992    4  1.010  3.587        55.1      2456.6    134081.7
  6  -0.00591  -0.24390  -2.83537    4  1.010  3.723        55.1      2456.6    134081.6

     MOLECULAR C6(AA) [AU] =      1984.91

           DFT-D V3(BJ)

 FUNCTIONAL: NONE    

 PARAMETERS
 S6       :    1.0000
 S8       :    0.5883
 A1       :    0.5719
 A2       :    3.6017
 K1-K3    :   16.0000    1.3333    4.0000

 EDISP /KCAL,AU:    -4.3857 -0.00698903

 E6    /KCAL :    -2.9444
 E8    /KCAL :    -1.4413
 % E8        : 32.86
 STEP CPU TIME =     0.01 TOTAL CPU TIME =        0.1 (    0.0 MIN)
 TOTAL WALL CLOCK TIME=        0.1 SECONDS, CPU UTILIZATION IS  72.73%

          NSERCH=  1     ENERGY=      -2.6986229

                                 -----------------------
                                 GRADIENT (HARTREE/BOHR)
                                 -----------------------
        ATOM     ZNUC       DE/DX         DE/DY         DE/DZ
 --------------------------------------------------------------
    1  BE           4.0    -0.0059880    -0.0031289    -0.0009320
    2  BE           4.0    -0.0011377    -0.0001202    -0.0041029
    3  BE           4.0    -0.0048924     0.0065669     0.0002516
    4  BE           4.0     0.0009695     0.0014601     0.0074381
    5  BE           4.0     0.0013537    -0.0036602    -0.0035976
    6  BE           4.0     0.0096949    -0.0011178     0.0009428

          MAXIMUM GRADIENT = 0.0096949    RMS GRADIENT = 0.0041798

 NSERCH:   1  E=       -2.6986228575  GRAD. MAX=  0.0096949  R.M.S.=  0.0041798

          HESSIAN UPDATED USING THE BFGS FORMULA
             ACTUAL ENERGY CHANGE WAS  -0.0081647110
          PREDICTED ENERGY CHANGE WAS  -0.0115727748 RATIO=  0.706
          MIN SEARCH, CORRECT HESSIAN, TRYING PURE NR STEP
               NR STEP HAS LENGTH         =   0.663691
          TRIM/QA LAMBDA FOR NON-TS MODES =  -0.01546538
          TRIM/QA STEP HAS LENGTH         =   0.300000
          RADIUS OF STEP TAKEN=   0.30000  CURRENT TRUST RADIUS=   0.30000

 BEGINNING GEOMETRY SEARCH POINT NSERCH=   2 ...

 COORDINATES OF ALL ATOMS ARE (ANGS)
   ATOM   CHARGE       X              Y              Z
 ------------------------------------------------------------
 BE          4.0   1.0898613494   1.0743013397   0.1867844668
 BE          4.0   1.0217499003  -1.0602520687   0.0882253672
 BE          4.0  -1.0304048517   0.9867020527   0.0041478517
 BE          4.0  -1.0565372058  -1.0899335039  -0.3176123769
 BE          4.0   0.1926452140   0.1980343684   1.5470962958
 BE          4.0  -0.0373144063  -0.1088521883  -1.5086416046

          INTERNUCLEAR DISTANCES (ANGS.)
          ------------------------------

                1 BE         2 BE         3 BE         4 BE         5 BE    

   1 BE      0.0000000    2.1379128 *  2.1299198 *  3.0895559    1.8502132 *
   2 BE      2.1379128 *  0.0000000    2.8997292 *  2.1177494 *  2.0973802 *
   3 BE      2.1299198 *  2.8997292 *  0.0000000    2.1015775 *  2.1209757 *
   4 BE      3.0895559    2.1177494 *  2.1015775 *  0.0000000    2.5877512 *
   5 BE      1.8502132 *  2.0973802 *  2.1209757 *  2.5877512 *  0.0000000  
   6 BE      2.3547499 *  2.1393371 *  2.1154195 *  1.8492935 *  3.0797070  

                6 BE    

   1 BE      2.3547499 *
   2 BE      2.1393371 *
   3 BE      2.1154195 *
   4 BE      1.8492935 *
   5 BE      3.0797070  
   6 BE      0.0000000  

  * ... LESS THAN  3.000

 ...... END OF NCC-DFTB PREPARATION ......
 STEP CPU TIME =     0.00 TOTAL CPU TIME =        0.1 (    0.0 MIN)
 TOTAL WALL CLOCK TIME=        0.1 SECONDS, CPU UTILIZATION IS  72.73%

          --------------------------
             SCC-DFTB CALCULATION
          --------------------------
     DENSITY MATRIX CONV=  1.00E-12

 ITER EX DEM     TOTAL ENERGY        E CHANGE  DENSITY CHANGE    DIIS ERROR
   1  0  0       -2.6944410313    -2.6944410313   0.808288841   0.000000000
   2  1  0       -2.6944741671    -0.0000331358   0.003077297   0.024830403
   3  2  0       -2.6944918866    -0.0000177195   0.005329455   0.052887674
   4  3  0       -2.6944947585    -0.0000028719   0.001372673   0.011630773
   5  4  0       -2.6944947848    -0.0000000263   0.000121005   0.000802596
   6  5  0       -2.6944947871    -0.0000000023   0.000053553   0.000377267
   7  6  0       -2.6944947873    -0.0000000002   0.000017150   0.000125053
   8  7  0       -2.6944947873    -0.0000000000   0.000000857   0.000006845
   9  8  0       -2.6944947873     0.0000000000   0.000000015   0.000000133
  10  9  0       -2.6944947873    -0.0000000000   0.000000000   0.000000000
  11 10  0       -2.6944947873     0.0000000000   0.000000000   0.000000000
  12 11  0       -2.6944947873     0.0000000000   0.000000000   0.000000000

          -----------------
          DENSITY CONVERGED
          -----------------
     TIME TO FORM FOCK OPERATORS=       0.0 SECONDS (       0.0 SEC/ITER)
     TIME TO SOLVE SCF EQUATIONS=       0.0 SECONDS (       0.0 SEC/ITER)

          ----------------------------
          DFT-D PARAMETERS AND RESULTS
          ----------------------------
 C6 COEFFICIENTS USED:
       3 C6 FOR ELEMENT   4
  Z=  4 CN= 0.000     C6(AA)=  257.49
  Z=  4 CN= 0.981     C6(AA)=  135.84
  Z=  4 CN= 1.970     C6(AA)=   55.14

 #          XYZ [AU]             R0(AA) [ANG.]  CN         C6(AA)     C8(AA)   C10(AA) [AU]
  1   2.05954   2.03014   0.35297    4  1.010  3.665        55.1      2456.6    134081.6
  2   1.93083  -2.00359   0.16672    4  1.010  3.890        55.1      2456.6    134081.6
  3  -1.94718   1.86460   0.00784    4  1.010  3.902        55.1      2456.6    134081.6
  4  -1.99657  -2.05968  -0.60020    4  1.010  3.326        55.1      2456.6    134081.7
  5   0.36405   0.37423   2.92359    4  1.010  3.328        55.1      2456.6    134081.7
  6  -0.07051  -0.20570  -2.85092    4  1.010  3.673        55.1      2456.6    134081.6

     MOLECULAR C6(AA) [AU] =      1984.91

           DFT-D V3(BJ)

 FUNCTIONAL: NONE    

 PARAMETERS
 S6       :    1.0000
 S8       :    0.5883
 A1       :    0.5719
 A2       :    3.6017
 K1-K3    :   16.0000    1.3333    4.0000

 EDISP /KCAL,AU:    -4.3720 -0.00696730

 E6    /KCAL :    -2.9344
 E8    /KCAL :    -1.4377
 % E8        : 32.88

 FINAL RDFTB ENERGY IS       -2.7014620837 AFTER  12 ITERATIONS
 GRIMME'S DISPERSION ENERGY                     =       -0.0069672965
 ENERGY WITHOUT DISPERSION CORRECTION IS                -2.6944947873
 ...... END OF RDFTB CALCULATION ......
 STEP CPU TIME =     0.00 TOTAL CPU TIME =        0.1 (    0.0 MIN)
 TOTAL WALL CLOCK TIME=        0.1 SECONDS, CPU UTILIZATION IS  72.73%

          ----------------------------
          DFT-D PARAMETERS AND RESULTS
          ----------------------------
 C6 COEFFICIENTS USED:
       3 C6 FOR ELEMENT   4
  Z=  4 CN= 0.000     C6(AA)=  257.49
  Z=  4 CN= 0.981     C6(AA)=  135.84
  Z=  4 CN= 1.970     C6(AA)=   55.14

 #          XYZ [AU]             R0(AA) [ANG.]  CN         C6(AA)     C8(AA)   C10(AA) [AU]
  1   2.05954   2.03014   0.35297    4  1.010  3.665        55.1      2456.6    134081.6
  2   1.93083  -2.00359   0.16672    4  1.010  3.890        55.1      2456.6    134081.6
  3  -1.94718   1.86460   0.00784    4  1.010  3.902        55.1      2456.6    134081.6
  4  -1.99657  -2.05968  -0.60020    4  1.010  3.326        55.1      2456.6    134081.7
  5   0.36405   0.37423   2.92359    4  1.010  3.328        55.1      2456.6    134081.7
  6  -0.07051  -0.20570  -2.85092    4  1.010  3.673        55.1      2456.6    134081.6

     MOLECULAR C6(AA) [AU] =      1984.91

           DFT-D V3(BJ)

 FUNCTIONAL: NONE    

 PARAMETERS
 S6       :    1.0000
 S8       :    0.5883
 A1       :    0.5719
 A2       :    3.6017
 K1-K3    :   16.0000    1.3333    4.0000

 EDISP /KCAL,AU:    -4.3720 -0.00696730

 E6    /KCAL :    -2.9344
 E8    /KCAL :    -1.4377
 % E8        : 32.88
 STEP CPU TIME =     0.00 TOTAL CPU TIME =        0.1 (    0.0 MIN)
 TOTAL WALL CLOCK TIME=        0.1 SECONDS, CPU UTILIZATION IS  66.67%

          NSERCH=  2     ENERGY=      -2.7014621

                                 -----------------------
                                 GRADIENT (HARTREE/BOHR)
                                 -----------------------
        ATOM     ZNUC       DE/DX         DE/DY         DE/DZ
 --------------------------------------------------------------
    1  BE           4.0     0.0015923     0.0025345     0.0046421
    2  BE           4.0     0.0056151    -0.0035930     0.0013646
    3  BE           4.0    -0.0029598     0.0016998    -0.0035861
    4  BE           4.0     0.0018780     0.0052914     0.0037603
    5  BE           4.0    -0.0013834    -0.0040805    -0.0052537
    6  BE           4.0    -0.0047423    -0.0018520    -0.0009273

          MAXIMUM GRADIENT = 0.0056151    RMS GRADIENT = 0.0034955

 NSERCH:   2  E=       -2.7014620837  GRAD. MAX=  0.0056151  R.M.S.=  0.0034955

          HESSIAN UPDATED USING THE BFGS FORMULA
             ACTUAL ENERGY CHANGE WAS  -0.0028392263
          PREDICTED ENERGY CHANGE WAS  -0.0026710604 RATIO=  1.063
          MIN SEARCH, CORRECT HESSIAN, TRYING PURE NR STEP
               NR STEP HAS LENGTH         =   2.512773
          TRIM/QA LAMBDA FOR NON-TS MODES =  -0.01393709
          TRIM/QA STEP HAS LENGTH         =   0.500000
          RADIUS OF STEP TAKEN=   0.50000  CURRENT TRUST RADIUS=   0.50000

 BEGINNING GEOMETRY SEARCH POINT NSERCH=   3 ...

 COORDINATES OF ALL ATOMS ARE (ANGS)
   ATOM   CHARGE       X              Y              Z
 ------------------------------------------------------------
 BE          4.0   1.1294243463   1.0756711057   0.1411167215
 BE          4.0   0.9654703805  -1.0675298819   0.1531057152
 BE          4.0  -1.0427323052   0.9014208234   0.0837494626
 BE          4.0  -1.0971647280  -1.1322783070  -0.4655953623
 BE          4.0   0.2557318305   0.3040543450   1.6076767923
 BE          4.0  -0.0307295241  -0.0813380851  -1.5200533293

          INTERNUCLEAR DISTANCES (ANGS.)
          ------------------------------

                1 BE         2 BE         3 BE         4 BE         5 BE    

   1 BE      0.0000000    2.1494965 *  2.1798896 *  3.1938752    1.8733738 *
   2 BE      2.1494965 *  0.0000000    2.8132642 *  2.1544018 *  2.1214969 *
   3 BE      2.1798896 *  2.8132642 *  0.0000000    2.1072909 *  2.0893086 *
   4 BE      3.1938752    2.1544018 *  2.1072909 *  0.0000000    2.8621387 *
   5 BE      1.8733738 *  2.1214969 *  2.0893086 *  2.8621387 *  0.0000000  
   6 BE      2.3332624 *  2.1827619 *  2.1359186 *  1.8312949 *  3.1643772  

                6 BE    

   1 BE      2.3332624 *
   2 BE      2.1827619 *
   3 BE      2.1359186 *
   4 BE      1.8312949 *
   5 BE      3.1643772  
   6 BE      0.0000000  

  * ... LESS THAN  3.000

 ...... END OF NCC-DFTB PREPARATION ......
 STEP CPU TIME =     0.00 TOTAL CPU TIME =        0.1 (    0.0 MIN)
 TOTAL WALL CLOCK TIME=        0.1 SECONDS, CPU UTILIZATION IS  66.67%

          --------------------------
             SCC-DFTB CALCULATION
          --------------------------
     DENSITY MATRIX CONV=  1.00E-12

 ITER EX DEM     TOTAL ENERGY        E CHANGE  DENSITY CHANGE    DIIS ERROR
   1  0  0       -2.7011046054    -2.7011046054   0.886840871   0.000000000
   2  1  0       -2.7011757005    -0.0000710951   0.005200082   0.036952328
   3  2  0       -2.7012138170    -0.0000381165   0.008203278   0.075522796
   4  3  0       -2.7012192472    -0.0000054302   0.002079994   0.016737914
   5  4  0       -2.7012194528    -0.0000002056   0.000401774   0.002491640
   6  5  0       -2.7012194551    -0.0000000022   0.000049468   0.000346670
   7  6  0       -2.7012194554    -0.0000000004   0.000026161   0.000217782
   8  7  0       -2.7012194554    -0.0000000000   0.000001732   0.000013095
   9  8  0       -2.7012194554    -0.0000000000   0.000000136   0.000000908
  10  9  0       -2.7012194554     0.0000000000   0.000000000   0.000000001
  11 10  0       -2.7012194554    -0.0000000000   0.000000000   0.000000000
  12 11  0       -2.7012194554    -0.0000000000   0.000000000   0.000000000

          -----------------
          DENSITY CONVERGED
          -----------------
     TIME TO FORM FOCK OPERATORS=       0.0 SECONDS (       0.0 SEC/ITER)
     TIME TO SOLVE SCF EQUATIONS=       0.0 SECONDS (       0.0 SEC/ITER)

          ----------------------------
          DFT-D PARAMETERS AND RESULTS
          ----------------------------
 C6 COEFFICIENTS USED:
       3 C6 FOR ELEMENT   4
  Z=  4 CN= 0.000     C6(AA)=  257.49
  Z=  4 CN= 0.981     C6(AA)=  135.84
  Z=  4 CN= 1.970     C6(AA)=   55.14

 #          XYZ [AU]             R0(AA) [ANG.]  CN         C6(AA)     C8(AA)   C10(AA) [AU]
  1   2.13430   2.03272   0.26667    4  1.010  3.644        55.1      2456.6    134081.7
  2   1.82447  -2.01734   0.28933    4  1.010  3.878        55.1      2456.6    134081.6
  3  -1.97048   1.70344   0.15826    4  1.010  3.922        55.1      2456.6    134081.6
  4  -2.07334  -2.13970  -0.87985    4  1.010  3.035        55.1      2456.6    134082.3
  5   0.48326   0.57458   3.03807    4  1.010  3.060        55.1      2456.6    134082.2
  6  -0.05807  -0.15371  -2.87248    4  1.010  3.655        55.1      2456.6    134081.6

     MOLECULAR C6(AA) [AU] =      1984.91

           DFT-D V3(BJ)

 FUNCTIONAL: NONE    

 PARAMETERS
 S6       :    1.0000
 S8       :    0.5883
 A1       :    0.5719
 A2       :    3.6017
 K1-K3    :   16.0000    1.3333    4.0000

 EDISP /KCAL,AU:    -4.3423 -0.00691993

 E6    /KCAL :    -2.9131
 E8    /KCAL :    -1.4292
 % E8        : 32.91

 FINAL RDFTB ENERGY IS       -2.7081393822 AFTER  12 ITERATIONS
 GRIMME'S DISPERSION ENERGY                     =       -0.0069199268
 ENERGY WITHOUT DISPERSION CORRECTION IS                -2.7012194554
 ...... END OF RDFTB CALCULATION ......
 STEP CPU TIME =     0.01 TOTAL CPU TIME =        0.1 (    0.0 MIN)
 TOTAL WALL CLOCK TIME=        0.1 SECONDS, CPU UTILIZATION IS  75.00%

          ----------------------------
          DFT-D PARAMETERS AND RESULTS
          ----------------------------
 C6 COEFFICIENTS USED:
       3 C6 FOR ELEMENT   4
  Z=  4 CN= 0.000     C6(AA)=  257.49
  Z=  4 CN= 0.981     C6(AA)=  135.84
  Z=  4 CN= 1.970     C6(AA)=   55.14

 #          XYZ [AU]             R0(AA) [ANG.]  CN         C6(AA)     C8(AA)   C10(AA) [AU]
  1   2.13430   2.03272   0.26667    4  1.010  3.644        55.1      2456.6    134081.7
  2   1.82447  -2.01734   0.28933    4  1.010  3.878        55.1      2456.6    134081.6
  3  -1.97048   1.70344   0.15826    4  1.010  3.922        55.1      2456.6    134081.6
  4  -2.07334  -2.13970  -0.87985    4  1.010  3.035        55.1      2456.6    134082.3
  5   0.48326   0.57458   3.03807    4  1.010  3.060        55.1      2456.6    134082.2
  6  -0.05807  -0.15371  -2.87248    4  1.010  3.655        55.1      2456.6    134081.6

     MOLECULAR C6(AA) [AU] =      1984.91

           DFT-D V3(BJ)

 FUNCTIONAL: NONE    

 PARAMETERS
 S6       :    1.0000
 S8       :    0.5883
 A1       :    0.5719
 A2       :    3.6017
 K1-K3    :   16.0000    1.3333    4.0000

 EDISP /KCAL,AU:    -4.3423 -0.00691993

 E6    /KCAL :    -2.9131
 E8    /KCAL :    -1.4292
 % E8        : 32.91
 STEP CPU TIME =     0.00 TOTAL CPU TIME =        0.1 (    0.0 MIN)
 TOTAL WALL CLOCK TIME=        0.1 SECONDS, CPU UTILIZATION IS  75.00%

          NSERCH=  3     ENERGY=      -2.7081394

                                 -----------------------
                                 GRADIENT (HARTREE/BOHR)
                                 -----------------------
        ATOM     ZNUC       DE/DX         DE/DY         DE/DZ
 --------------------------------------------------------------
    1  BE           4.0     0.0157902     0.0137081     0.0095482
    2  BE           4.0     0.0155169    -0.0103971     0.0054800
    3  BE           4.0    -0.0055295     0.0022430    -0.0004462
    4  BE           4.0     0.0010533     0.0087240     0.0073668
    5  BE           4.0    -0.0120128    -0.0075975    -0.0079233
    6  BE           4.0    -0.0148181    -0.0066805    -0.0140256

          MAXIMUM GRADIENT = 0.0157902    RMS GRADIENT = 0.0100009

 NSERCH:   3  E=       -2.7081393822  GRAD. MAX=  0.0157902  R.M.S.=  0.0100009

          HESSIAN UPDATED USING THE BFGS FORMULA
          WARNING! HEREDITARY POSITIVE DEFINITENESS ENDANGERED
 LOCAL CURVATURE   1 OF THE APPROXIMATE HESSIAN HAS EIGENVALUE=   -0.030619
 *** THIS MODE HAS AN INCORRECT CURVATURE ***
 THE COMPONENTS OF THIS MODE FOLLOWS:
       -0.007253      -0.128039      -0.212793      -0.221535      -0.015883
        0.157099      -0.051003      -0.349550       0.195689      -0.124565
       -0.089333      -0.530662       0.303385       0.429890       0.263693
        0.100972       0.152916       0.126974
             ACTUAL ENERGY CHANGE WAS  -0.0066772985
          PREDICTED ENERGY CHANGE WAS  -0.0041112492 RATIO=  1.624
          TRIM/QA LAMBDA FOR NON-TS MODES =  -0.08196613
          TRIM/QA STEP HAS LENGTH         =   0.500000
          RADIUS OF STEP TAKEN=   0.50000  CURRENT TRUST RADIUS=   0.50000

 BEGINNING GEOMETRY SEARCH POINT NSERCH=   4 ...

 COORDINATES OF ALL ATOMS ARE (ANGS)
   ATOM   CHARGE       X              Y              Z
 ------------------------------------------------------------
 BE          4.0   1.1029082885   1.0192036062   0.0787156486
 BE          4.0   0.9043479935  -1.0587446276   0.1685065656
 BE          4.0  -1.0445558801   0.8132469178   0.1214747225
 BE          4.0  -1.1254499344  -1.1531349127  -0.5923421171
 BE          4.0   0.3326583405   0.4173839698   1.6830914277
 BE          4.0   0.0100911919  -0.0379549536  -1.4594462474

          INTERNUCLEAR DISTANCES (ANGS.)
          ------------------------------

                1 BE         2 BE         3 BE         4 BE         5 BE    

   1 BE      0.0000000    2.0893438 *  2.1577416 *  3.1835442    1.8786946 *
   2 BE      2.0893438 *  0.0000000    2.7027376 *  2.1697649 *  2.1908336 *
   3 BE      2.1577416 *  2.7027376 *  0.0000000    2.0934985 *  2.1194512 *
   4 BE      3.1835442    2.1697649 *  2.0934985 *  0.0000000    3.1257331  
   5 BE      1.8786946 *  2.1908336 *  2.1194512 *  3.1257331    0.0000000  
   6 BE      2.1628166 *  2.1194191 *  2.0823391 *  1.8124430 *  3.1916964  

                6 BE    

   1 BE      2.1628166 *
   2 BE      2.1194191 *
   3 BE      2.0823391 *
   4 BE      1.8124430 *
   5 BE      3.1916964  
   6 BE      0.0000000  

  * ... LESS THAN  3.000

 ...... END OF NCC-DFTB PREPARATION ......
 STEP CPU TIME =     0.00 TOTAL CPU TIME =        0.1 (    0.0 MIN)
 TOTAL WALL CLOCK TIME=        0.1 SECONDS, CPU UTILIZATION IS  75.00%

          --------------------------
             SCC-DFTB CALCULATION
          --------------------------
     DENSITY MATRIX CONV=  5.00E-12

 ITER EX DEM     TOTAL ENERGY        E CHANGE  DENSITY CHANGE    DIIS ERROR
   1  0  0       -2.7110836480    -2.7110836480   0.897711691   0.000000000
   2  1  0       -2.7112229371    -0.0001392891   0.006531640   0.042070810
   3  2  0       -2.7112794284    -0.0000564913   0.008137006   0.054170393
   4  3  0       -2.7112809378    -0.0000015093   0.001198807   0.011392448
   5  4  0       -2.7112812366    -0.0000002988   0.000547468   0.004719503
   6  5  0       -2.7112812378    -0.0000000012   0.000022119   0.000170228
   7  6  0       -2.7112812381    -0.0000000003   0.000018051   0.000123520
   8  7  0       -2.7112812381    -0.0000000000   0.000002025   0.000019407
   9  8  0       -2.7112812381    -0.0000000000   0.000000216   0.000001558
  10  9  0       -2.7112812381     0.0000000000   0.000000000   0.000000000
  11 10  0       -2.7112812381     0.0000000000   0.000000000   0.000000000
  12 11  0       -2.7112812381    -0.0000000000   0.000000000   0.000000000

          -----------------
          DENSITY CONVERGED
          -----------------
     TIME TO FORM FOCK OPERATORS=       0.0 SECONDS (       0.0 SEC/ITER)
     TIME TO SOLVE SCF EQUATIONS=       0.0 SECONDS (       0.0 SEC/ITER)

          ----------------------------
          DFT-D PARAMETERS AND RESULTS
          ----------------------------
 C6 COEFFICIENTS USED:
       3 C6 FOR ELEMENT   4
  Z=  4 CN= 0.000     C6(AA)=  257.49
  Z=  4 CN= 0.981     C6(AA)=  135.84
  Z=  4 CN= 1.970     C6(AA)=   55.14

 #          XYZ [AU]             R0(AA) [ANG.]  CN         C6(AA)     C8(AA)   C10(AA) [AU]
  1   2.08419   1.92602   0.14875    4  1.010  3.845        55.1      2456.6    134081.6
  2   1.70897  -2.00074   0.31843    4  1.010  3.981        55.1      2456.6    134081.6
  3  -1.97392   1.53681   0.22955    4  1.010  4.040        55.1      2456.6    134081.6
  4  -2.12679  -2.17911  -1.11936    4  1.010  2.953        55.1      2456.6    134082.8
  5   0.62863   0.78874   3.18058    4  1.010  2.925        55.1      2456.6    134083.1
  6   0.01907  -0.07172  -2.75795    4  1.010  3.868        55.1      2456.6    134081.6

     MOLECULAR C6(AA) [AU] =      1984.92

           DFT-D V3(BJ)

 FUNCTIONAL: NONE    

 PARAMETERS
 S6       :    1.0000
 S8       :    0.5883
 A1       :    0.5719
 A2       :    3.6017
 K1-K3    :   16.0000    1.3333    4.0000

 EDISP /KCAL,AU:    -4.3311 -0.00690209

 E6    /KCAL :    -2.9062
 E8    /KCAL :    -1.4249
 % E8        : 32.90

 FINAL RDFTB ENERGY IS       -2.7181833306 AFTER  12 ITERATIONS
 GRIMME'S DISPERSION ENERGY                     =       -0.0069020925
 ENERGY WITHOUT DISPERSION CORRECTION IS                -2.7112812381
 ...... END OF RDFTB CALCULATION ......
 STEP CPU TIME =     0.00 TOTAL CPU TIME =        0.1 (    0.0 MIN)
 TOTAL WALL CLOCK TIME=        0.1 SECONDS, CPU UTILIZATION IS  69.23%

          ----------------------------
          DFT-D PARAMETERS AND RESULTS
          ----------------------------
 C6 COEFFICIENTS USED:
       3 C6 FOR ELEMENT   4
  Z=  4 CN= 0.000     C6(AA)=  257.49
  Z=  4 CN= 0.981     C6(AA)=  135.84
  Z=  4 CN= 1.970     C6(AA)=   55.14

 #          XYZ [AU]             R0(AA) [ANG.]  CN         C6(AA)     C8(AA)   C10(AA) [AU]
  1   2.08419   1.92602   0.14875    4  1.010  3.845        55.1      2456.6    134081.6
  2   1.70897  -2.00074   0.31843    4  1.010  3.981        55.1      2456.6    134081.6
  3  -1.97392   1.53681   0.22955    4  1.010  4.040        55.1      2456.6    134081.6
  4  -2.12679  -2.17911  -1.11936    4  1.010  2.953        55.1      2456.6    134082.8
  5   0.62863   0.78874   3.18058    4  1.010  2.925        55.1      2456.6    134083.1
  6   0.01907  -0.07172  -2.75795    4  1.010  3.868        55.1      2456.6    134081.6

     MOLECULAR C6(AA) [AU] =      1984.92

           DFT-D V3(BJ)

 FUNCTIONAL: NONE    

 PARAMETERS
 S6       :    1.0000
 S8       :    0.5883
 A1       :    0.5719
 A2       :    3.6017
 K1-K3    :   16.0000    1.3333    4.0000

 EDISP /KCAL,AU:    -4.3311 -0.00690209

 E6    /KCAL :    -2.9062
 E8    /KCAL :    -1.4249
 % E8        : 32.90
 STEP CPU TIME =     0.00 TOTAL CPU TIME =        0.1 (    0.0 MIN)
 TOTAL WALL CLOCK TIME=        0.1 SECONDS, CPU UTILIZATION IS  69.23%

          NSERCH=  4     ENERGY=      -2.7181833

                                 -----------------------
                                 GRADIENT (HARTREE/BOHR)
                                 -----------------------
        ATOM     ZNUC       DE/DX         DE/DY         DE/DZ
 --------------------------------------------------------------
    1  BE           4.0    -0.0034935    -0.0069108    -0.0092007
    2  BE           4.0     0.0151827    -0.0043916    -0.0085233
    3  BE           4.0     0.0016293    -0.0009683    -0.0146287
    4  BE           4.0     0.0040369     0.0136421     0.0049841
    5  BE           4.0    -0.0100228    -0.0028549     0.0056749
    6  BE           4.0    -0.0073327     0.0014834     0.0216938

          MAXIMUM GRADIENT = 0.0216938    RMS GRADIENT = 0.0093669

 NSERCH:   4  E=       -2.7181833306  GRAD. MAX=  0.0216938  R.M.S.=  0.0093669

          HESSIAN UPDATED USING THE BFGS FORMULA
             ACTUAL ENERGY CHANGE WAS  -0.0100439484
          PREDICTED ENERGY CHANGE WAS  -0.0180138168 RATIO=  0.558
          MIN SEARCH, CORRECT HESSIAN, TRYING PURE NR STEP
               NR STEP HAS LENGTH         =   0.578904
          TRIM/QA LAMBDA FOR NON-TS MODES =  -0.00398667
          TRIM/QA STEP HAS LENGTH         =   0.500000
          RADIUS OF STEP TAKEN=   0.50000  CURRENT TRUST RADIUS=   0.50000

 BEGINNING GEOMETRY SEARCH POINT NSERCH=   5 ...

 COORDINATES OF ALL ATOMS ARE (ANGS)
   ATOM   CHARGE       X              Y              Z
 ------------------------------------------------------------
 BE          4.0   1.1190387870   1.0161987047   0.0463883794
 BE          4.0   0.8163650815  -1.0378181247   0.2025329499
 BE          4.0  -1.0355764801   0.7334665591   0.2110099889
 BE          4.0  -1.1704518414  -1.2085288480  -0.7325412706
 BE          4.0   0.4024862116   0.5228389863   1.7336733164
 BE          4.0   0.0481382414  -0.0261572774  -1.4610633639

          INTERNUCLEAR DISTANCES (ANGS.)
          ------------------------------

                1 BE         2 BE         3 BE         4 BE         5 BE    

   1 BE      0.0000000    2.0820609 *  2.1793129 *  3.2860176    1.8983629 *
   2 BE      2.0820609 *  0.0000000    2.5626566 *  2.2024866 *  2.2251600 *
   3 BE      2.1793129 *  2.5626566 *  0.0000000    2.1632907 *  2.1049684 *
   4 BE      3.2860176    2.2024866 *  2.1632907 *  0.0000000    3.3991150  
   5 BE      1.8983629 *  2.2251600 *  2.1049684 *  3.3991150    0.0000000  
   6 BE      2.1226740 *  2.0931275 *  2.1324388 *  1.8476225 *  3.2608744  

                6 BE    

   1 BE      2.1226740 *
   2 BE      2.0931275 *
   3 BE      2.1324388 *
   4 BE      1.8476225 *
   5 BE      3.2608744  
   6 BE      0.0000000  

  * ... LESS THAN  3.000

 ...... END OF NCC-DFTB PREPARATION ......
 STEP CPU TIME =     0.00 TOTAL CPU TIME =        0.1 (    0.0 MIN)
 TOTAL WALL CLOCK TIME=        0.1 SECONDS, CPU UTILIZATION IS  69.23%

          --------------------------
             SCC-DFTB CALCULATION
          --------------------------
     DENSITY MATRIX CONV=  5.00E-12

 ITER EX DEM     TOTAL ENERGY        E CHANGE  DENSITY CHANGE    DIIS ERROR
   1  0  0       -2.7149394511    -2.7149394511   0.943873867   0.000000000
   2  1  0       -2.7149831253    -0.0000436742   0.002742090   0.025466776
   3  2  0       -2.7149982202    -0.0000150949   0.004213271   0.041378346
   4  3  0       -2.7150012736    -0.0000030534   0.001594143   0.013514438
   5  4  0       -2.7150013506    -0.0000000770   0.000223954   0.002017271
   6  5  0       -2.7150013511    -0.0000000005   0.000016691   0.000157646
   7  6  0       -2.7150013515    -0.0000000004   0.000023006   0.000201761
   8  7  0       -2.7150013515    -0.0000000000   0.000001364   0.000010516
   9  8  0       -2.7150013515    -0.0000000000   0.000000045   0.000000268
  10  9  0       -2.7150013515    -0.0000000000   0.000000000   0.000000000
  11 10  0       -2.7150013515    -0.0000000000   0.000000000   0.000000000

          -----------------
          DENSITY CONVERGED
          -----------------
     TIME TO FORM FOCK OPERATORS=       0.0 SECONDS (       0.0 SEC/ITER)
     TIME TO SOLVE SCF EQUATIONS=       0.0 SECONDS (       0.0 SEC/ITER)

          ----------------------------
          DFT-D PARAMETERS AND RESULTS
          ----------------------------
 C6 COEFFICIENTS USED:
       3 C6 FOR ELEMENT   4
  Z=  4 CN= 0.000     C6(AA)=  257.49
  Z=  4 CN= 0.981     C6(AA)=  135.84
  Z=  4 CN= 1.970     C6(AA)=   55.14

 #          XYZ [AU]             R0(AA) [ANG.]  CN         C6(AA)     C8(AA)   C10(AA) [AU]
  1   2.11468   1.92034   0.08766    4  1.010  3.844        55.1      2456.6    134081.6
  2   1.54271  -1.96119   0.38273    4  1.010  4.120        55.1      2456.6    134081.6
  3  -1.95696   1.38605   0.39875    4  1.010  4.155        55.1      2456.6    134081.6
  4  -2.21183  -2.28379  -1.38430    4  1.010  2.861        55.1      2456.7    134084.1
  5   0.76059   0.98802   3.27617    4  1.010  2.871        55.1      2456.6    134083.9
  6   0.09097  -0.04943  -2.76101    4  1.010  3.871        55.1      2456.6    134081.6

     MOLECULAR C6(AA) [AU] =      1984.92

           DFT-D V3(BJ)

 FUNCTIONAL: NONE    

 PARAMETERS
 S6       :    1.0000
 S8       :    0.5883
 A1       :    0.5719
 A2       :    3.6017
 K1-K3    :   16.0000    1.3333    4.0000

 EDISP /KCAL,AU:    -4.2878 -0.00683298

 E6    /KCAL :    -2.8777
 E8    /KCAL :    -1.4100
 % E8        : 32.89

 FINAL RDFTB ENERGY IS       -2.7218343327 AFTER  11 ITERATIONS
 GRIMME'S DISPERSION ENERGY                     =       -0.0068329813
 ENERGY WITHOUT DISPERSION CORRECTION IS                -2.7150013515
 ...... END OF RDFTB CALCULATION ......
 STEP CPU TIME =     0.01 TOTAL CPU TIME =        0.1 (    0.0 MIN)
 TOTAL WALL CLOCK TIME=        0.1 SECONDS, CPU UTILIZATION IS  76.92%

          ----------------------------
          DFT-D PARAMETERS AND RESULTS
          ----------------------------
 C6 COEFFICIENTS USED:
       3 C6 FOR ELEMENT   4
  Z=  4 CN= 0.000     C6(AA)=  257.49
  Z=  4 CN= 0.981     C6(AA)=  135.84
  Z=  4 CN= 1.970     C6(AA)=   55.14

 #          XYZ [AU]             R0(AA) [ANG.]  CN         C6(AA)     C8(AA)   C10(AA) [AU]
  1   2.11468   1.92034   0.08766    4  1.010  3.844        55.1      2456.6    134081.6
  2   1.54271  -1.96119   0.38273    4  1.010  4.120        55.1      2456.6    134081.6
  3  -1.95696   1.38605   0.39875    4  1.010  4.155        55.1      2456.6    134081.6
  4  -2.21183  -2.28379  -1.38430    4  1.010  2.861        55.1      2456.7    134084.1
  5   0.76059   0.98802   3.27617    4  1.010  2.871        55.1      2456.6    134083.9
  6   0.09097  -0.04943  -2.76101    4  1.010  3.871        55.1      2456.6    134081.6

     MOLECULAR C6(AA) [AU] =      1984.92

           DFT-D V3(BJ)

 FUNCTIONAL: NONE    

 PARAMETERS
 S6       :    1.0000
 S8       :    0.5883
 A1       :    0.5719
 A2       :    3.6017
 K1-K3    :   16.0000    1.3333    4.0000

 EDISP /KCAL,AU:    -4.2878 -0.00683298

 E6    /KCAL :    -2.8777
 E8    /KCAL :    -1.4100
 % E8        : 32.89
 STEP CPU TIME =     0.00 TOTAL CPU TIME =        0.1 (    0.0 MIN)
 TOTAL WALL CLOCK TIME=        0.1 SECONDS, CPU UTILIZATION IS  76.92%

          NSERCH=  5     ENERGY=      -2.7218343

                                 -----------------------
                                 GRADIENT (HARTREE/BOHR)
                                 -----------------------
        ATOM     ZNUC       DE/DX         DE/DY         DE/DZ
 --------------------------------------------------------------
    1  BE           4.0    -0.0006466    -0.0030182    -0.0138931
    2  BE           4.0     0.0150952    -0.0080437    -0.0071987
    3  BE           4.0    -0.0042127     0.0136870    -0.0026203
    4  BE           4.0    -0.0144415    -0.0158915    -0.0134791
    5  BE           4.0     0.0004449     0.0086164     0.0257862
    6  BE           4.0     0.0037607     0.0046499     0.0114050

          MAXIMUM GRADIENT = 0.0257862    RMS GRADIENT = 0.0113208

 NSERCH:   5  E=       -2.7218343327  GRAD. MAX=  0.0257862  R.M.S.=  0.0113208

          HESSIAN UPDATED USING THE BFGS FORMULA
             ACTUAL ENERGY CHANGE WAS  -0.0036510022
          PREDICTED ENERGY CHANGE WAS  -0.0055253522 RATIO=  0.661
          MIN SEARCH, CORRECT HESSIAN, TRYING PURE NR STEP
               NR STEP HAS LENGTH         =   0.172960
          RADIUS OF STEP TAKEN=   0.17296  CURRENT TRUST RADIUS=   0.50000

 BEGINNING GEOMETRY SEARCH POINT NSERCH=   6 ...

 COORDINATES OF ALL ATOMS ARE (ANGS)
   ATOM   CHARGE       X              Y              Z
 ------------------------------------------------------------
 BE          4.0   1.1223342977   1.0336028168   0.0707693754
 BE          4.0   0.8010476063  -1.0322198700   0.2117569419
 BE          4.0  -1.0410476100   0.7277051287   0.2026888952
 BE          4.0  -1.1471499591  -1.1821912958  -0.6879478084
 BE          4.0   0.3983142014   0.4885377138   1.6944824004
 BE          4.0   0.0465014638  -0.0354344935  -1.4917498044

          INTERNUCLEAR DISTANCES (ANGS.)
          ------------------------------

                1 BE         2 BE         3 BE         4 BE         5 BE    

   1 BE      0.0000000    2.0954059 *  2.1888804 *  3.2612811    1.8595013 *
   2 BE      2.0954059 *  0.0000000    2.5476917 *  2.1511471 *  2.1617985 *
   3 BE      2.1888804 *  2.5476917 *  0.0000000    2.1100227 *  2.0867226 *
   4 BE      3.2612811    2.1511471 *  2.1100227 *  0.0000000    3.2948093  
   5 BE      1.8595013 *  2.1617985 *  2.0867226 *  3.2948093    0.0000000  
   6 BE      2.1775498 *  2.1130206 *  2.1531994 *  1.8400958 *  3.2481371  

                6 BE    

   1 BE      2.1775498 *
   2 BE      2.1130206 *
   3 BE      2.1531994 *
   4 BE      1.8400958 *
   5 BE      3.2481371  
   6 BE      0.0000000  

  * ... LESS THAN  3.000

 ...... END OF NCC-DFTB PREPARATION ......
 STEP CPU TIME =     0.00 TOTAL CPU TIME =        0.1 (    0.0 MIN)
 TOTAL WALL CLOCK TIME=        0.1 SECONDS, CPU UTILIZATION IS  71.43%

          --------------------------
             SCC-DFTB CALCULATION
          --------------------------
     DENSITY MATRIX CONV=  5.00E-12

 ITER EX DEM     TOTAL ENERGY        E CHANGE  DENSITY CHANGE    DIIS ERROR
   1  0  0       -2.7183991141    -2.7183991141   0.923506440   0.000000000
   2  1  0       -2.7184903603    -0.0000912462   0.005433974   0.034002075
   3  2  0       -2.7185284049    -0.0000380445   0.006087521   0.042155985
   4  3  0       -2.7185288866    -0.0000004818   0.000600738   0.004333609
   5  4  0       -2.7185289409    -0.0000000542   0.000329105   0.002576145
   6  5  0       -2.7185289416    -0.0000000007   0.000018147   0.000143175
   7  6  0       -2.7185289419    -0.0000000003   0.000021681   0.000188207
   8  7  0       -2.7185289419    -0.0000000000   0.000004273   0.000031350
   9  8  0       -2.7185289419    -0.0000000000   0.000000142   0.000000815
  10  9  0       -2.7185289419     0.0000000000   0.000000000   0.000000000
  11 10  0       -2.7185289419     0.0000000000   0.000000000   0.000000000
  12 11  0       -2.7185289419    -0.0000000000   0.000000000   0.000000000

          -----------------
          DENSITY CONVERGED
          -----------------
     TIME TO FORM FOCK OPERATORS=       0.0 SECONDS (       0.0 SEC/ITER)
     TIME TO SOLVE SCF EQUATIONS=       0.0 SECONDS (       0.0 SEC/ITER)

          ----------------------------
          DFT-D PARAMETERS AND RESULTS
          ----------------------------
 C6 COEFFICIENTS USED:
       3 C6 FOR ELEMENT   4
  Z=  4 CN= 0.000     C6(AA)=  257.49
  Z=  4 CN= 0.981     C6(AA)=  135.84
  Z=  4 CN= 1.970     C6(AA)=   55.14

 #          XYZ [AU]             R0(AA) [ANG.]  CN         C6(AA)     C8(AA)   C10(AA) [AU]
  1   2.12090   1.95323   0.13373    4  1.010  3.808        55.1      2456.6    134081.6
  2   1.51376  -1.95061   0.40016    4  1.010  4.208        55.1      2456.6    134081.6
  3  -1.96729   1.37516   0.38303    4  1.010  4.194        55.1      2456.6    134081.6
  4  -2.16780  -2.23402  -1.30003    4  1.010  2.929        55.1      2456.6    134083.1
  5   0.75270   0.92320   3.20211    4  1.010  2.932        55.1      2456.6    134083.1
  6   0.08788  -0.06696  -2.81900    4  1.010  3.825        55.1      2456.6    134081.6

     MOLECULAR C6(AA) [AU] =      1984.92

           DFT-D V3(BJ)

 FUNCTIONAL: NONE    

 PARAMETERS
 S6       :    1.0000
 S8       :    0.5883
 A1       :    0.5719
 A2       :    3.6017
 K1-K3    :   16.0000    1.3333    4.0000

 EDISP /KCAL,AU:    -4.3062 -0.00686232

 E6    /KCAL :    -2.8901
 E8    /KCAL :    -1.4160
 % E8        : 32.88

 FINAL RDFTB ENERGY IS       -2.7253912633 AFTER  12 ITERATIONS
 GRIMME'S DISPERSION ENERGY                     =       -0.0068623214
 ENERGY WITHOUT DISPERSION CORRECTION IS                -2.7185289419
 ...... END OF RDFTB CALCULATION ......
 STEP CPU TIME =     0.00 TOTAL CPU TIME =        0.1 (    0.0 MIN)
 TOTAL WALL CLOCK TIME=        0.1 SECONDS, CPU UTILIZATION IS  71.43%

          ----------------------------
          DFT-D PARAMETERS AND RESULTS
          ----------------------------
 C6 COEFFICIENTS USED:
       3 C6 FOR ELEMENT   4
  Z=  4 CN= 0.000     C6(AA)=  257.49
  Z=  4 CN= 0.981     C6(AA)=  135.84
  Z=  4 CN= 1.970     C6(AA)=   55.14

 #          XYZ [AU]             R0(AA) [ANG.]  CN         C6(AA)     C8(AA)   C10(AA) [AU]
  1   2.12090   1.95323   0.13373    4  1.010  3.808        55.1      2456.6    134081.6
  2   1.51376  -1.95061   0.40016    4  1.010  4.208        55.1      2456.6    134081.6
  3  -1.96729   1.37516   0.38303    4  1.010  4.194        55.1      2456.6    134081.6
  4  -2.16780  -2.23402  -1.30003    4  1.010  2.929        55.1      2456.6    134083.1
  5   0.75270   0.92320   3.20211    4  1.010  2.932        55.1      2456.6    134083.1
  6   0.08788  -0.06696  -2.81900    4  1.010  3.825        55.1      2456.6    134081.6

     MOLECULAR C6(AA) [AU] =      1984.92

           DFT-D V3(BJ)

 FUNCTIONAL: NONE    

 PARAMETERS
 S6       :    1.0000
 S8       :    0.5883
 A1       :    0.5719
 A2       :    3.6017
 K1-K3    :   16.0000    1.3333    4.0000

 EDISP /KCAL,AU:    -4.3062 -0.00686232

 E6    /KCAL :    -2.8901
 E8    /KCAL :    -1.4160
 % E8        : 32.88
 STEP CPU TIME =     0.01 TOTAL CPU TIME =        0.1 (    0.0 MIN)
 TOTAL WALL CLOCK TIME=        0.1 SECONDS, CPU UTILIZATION IS  78.57%

          NSERCH=  6     ENERGY=      -2.7253913

                                 -----------------------
                                 GRADIENT (HARTREE/BOHR)
                                 -----------------------
        ATOM     ZNUC       DE/DX         DE/DY         DE/DZ
 --------------------------------------------------------------
    1  BE           4.0     0.0044649     0.0000936     0.0004927
    2  BE           4.0     0.0079155    -0.0041104    -0.0022299
    3  BE           4.0    -0.0066847     0.0054720     0.0006937
    4  BE           4.0    -0.0005583     0.0003033    -0.0010653
    5  BE           4.0    -0.0027739     0.0008030     0.0013703
    6  BE           4.0    -0.0023635    -0.0025616     0.0007384

          MAXIMUM GRADIENT = 0.0079155    RMS GRADIENT = 0.0033687

 NSERCH:   6  E=       -2.7253912633  GRAD. MAX=  0.0079155  R.M.S.=  0.0033687

          HESSIAN UPDATED USING THE BFGS FORMULA
             ACTUAL ENERGY CHANGE WAS  -0.0035569305
          PREDICTED ENERGY CHANGE WAS  -0.0036220834 RATIO=  0.982
          MIN SEARCH, CORRECT HESSIAN, TRYING PURE NR STEP
               NR STEP HAS LENGTH         =   0.163968
          RADIUS OF STEP TAKEN=   0.16397  CURRENT TRUST RADIUS=   0.34592

 BEGINNING GEOMETRY SEARCH POINT NSERCH=   7 ...

 COORDINATES OF ALL ATOMS ARE (ANGS)
   ATOM   CHARGE       X              Y              Z
 ------------------------------------------------------------
 BE          4.0   1.1188213723   1.0383154334   0.0680020804
 BE          4.0   0.7550110694  -1.0190732675   0.2345715040
 BE          4.0  -1.0290457991   0.6799548451   0.2133818900
 BE          4.0  -1.1490274255  -1.1787474251  -0.7114579499
 BE          4.0   0.4288189015   0.5073518901   1.6985711227
 BE          4.0   0.0554218815  -0.0278014760  -1.5030686471

          INTERNUCLEAR DISTANCES (ANGS.)
          ------------------------------

                1 BE         2 BE         3 BE         4 BE         5 BE    

   1 BE      0.0000000    2.0959369 *  2.1824049 *  3.2658940    1.8484537 *
   2 BE      2.0959369 *  0.0000000    2.4637379 *  2.1320952 *  2.1400163 *
   3 BE      2.1824049 *  2.4637379 *  0.0000000    2.0795428 *  2.0882884 *
   4 BE      3.2658940    2.1320952 *  2.0795428 *  0.0000000    3.3377792  
   5 BE      1.8484537 *  2.1400163 *  2.0882884 *  3.3377792    0.0000000  
   6 BE      2.1761634 *  2.1193013 *  2.1501608 *  1.8444572 *  3.2674626  

                6 BE    

   1 BE      2.1761634 *
   2 BE      2.1193013 *
   3 BE      2.1501608 *
   4 BE      1.8444572 *
   5 BE      3.2674626  
   6 BE      0.0000000  

  * ... LESS THAN  3.000

 ...... END OF NCC-DFTB PREPARATION ......
 STEP CPU TIME =     0.01 TOTAL CPU TIME =        0.1 (    0.0 MIN)
 TOTAL WALL CLOCK TIME=        0.1 SECONDS, CPU UTILIZATION IS  85.71%

          --------------------------
             SCC-DFTB CALCULATION
          --------------------------
     DENSITY MATRIX CONV=  1.00E-12

 ITER EX DEM     TOTAL ENERGY        E CHANGE  DENSITY CHANGE    DIIS ERROR
   1  0  0       -2.7196937496    -2.7196937496   0.916744482   0.000000000
   2  1  0       -2.7197155122    -0.0000217626   0.002538618   0.016959234
   3  2  0       -2.7197254330    -0.0000099209   0.003243341   0.023499948
   4  3  0       -2.7197256466    -0.0000002136   0.000592363   0.004864205
   5  4  0       -2.7197256835    -0.0000000369   0.000180864   0.001339450
   6  5  0       -2.7197256837    -0.0000000002   0.000013989   0.000098169
   7  6  0       -2.7197256838    -0.0000000001   0.000014459   0.000146822
   8  7  0       -2.7197256838    -0.0000000000   0.000000170   0.000001166
   9  8  0       -2.7197256838     0.0000000000   0.000000029   0.000000205
  10  9  0       -2.7197256838    -0.0000000000   0.000000000   0.000000000
  11 10  0       -2.7197256838     0.0000000000   0.000000000   0.000000000
  12 11  0       -2.7197256838     0.0000000000   0.000000000   0.000000000

          -----------------
          DENSITY CONVERGED
          -----------------
     TIME TO FORM FOCK OPERATORS=       0.0 SECONDS (       0.0 SEC/ITER)
     TIME TO SOLVE SCF EQUATIONS=       0.0 SECONDS (       0.0 SEC/ITER)

          ----------------------------
          DFT-D PARAMETERS AND RESULTS
          ----------------------------
 C6 COEFFICIENTS USED:
       3 C6 FOR ELEMENT   4
  Z=  4 CN= 0.000     C6(AA)=  257.49
  Z=  4 CN= 0.981     C6(AA)=  135.84
  Z=  4 CN= 1.970     C6(AA)=   55.14

 #          XYZ [AU]             R0(AA) [ANG.]  CN         C6(AA)     C8(AA)   C10(AA) [AU]
  1   2.11427   1.96213   0.12851    4  1.010  3.813        55.1      2456.6    134081.6
  2   1.42676  -1.92577   0.44328    4  1.010  4.359        55.1      2456.6    134081.6
  3  -1.94461   1.28493   0.40323    4  1.010  4.344        55.1      2456.6    134081.6
  4  -2.17135  -2.22751  -1.34446    4  1.010  2.946        55.1      2456.6    134082.9
  5   0.81035   0.95876   3.20983    4  1.010  2.939        55.1      2456.6    134083.0
  6   0.10473  -0.05254  -2.84039    4  1.010  3.823        55.1      2456.6    134081.6

     MOLECULAR C6(AA) [AU] =      1984.92

           DFT-D V3(BJ)

 FUNCTIONAL: NONE    

 PARAMETERS
 S6       :    1.0000
 S8       :    0.5883
 A1       :    0.5719
 A2       :    3.6017
 K1-K3    :   16.0000    1.3333    4.0000

 EDISP /KCAL,AU:    -4.3033 -0.00685768

 E6    /KCAL :    -2.8889
 E8    /KCAL :    -1.4144
 % E8        : 32.87

 FINAL RDFTB ENERGY IS       -2.7265833644 AFTER  12 ITERATIONS
 GRIMME'S DISPERSION ENERGY                     =       -0.0068576806
 ENERGY WITHOUT DISPERSION CORRECTION IS                -2.7197256838
 ...... END OF RDFTB CALCULATION ......
 STEP CPU TIME =     0.00 TOTAL CPU TIME =        0.1 (    0.0 MIN)
 TOTAL WALL CLOCK TIME=        0.1 SECONDS, CPU UTILIZATION IS  80.00%

          ----------------------------
          DFT-D PARAMETERS AND RESULTS
          ----------------------------
 C6 COEFFICIENTS USED:
       3 C6 FOR ELEMENT   4
  Z=  4 CN= 0.000     C6(AA)=  257.49
  Z=  4 CN= 0.981     C6(AA)=  135.84
  Z=  4 CN= 1.970     C6(AA)=   55.14

 #          XYZ [AU]             R0(AA) [ANG.]  CN         C6(AA)     C8(AA)   C10(AA) [AU]
  1   2.11427   1.96213   0.12851    4  1.010  3.813        55.1      2456.6    134081.6
  2   1.42676  -1.92577   0.44328    4  1.010  4.359        55.1      2456.6    134081.6
  3  -1.94461   1.28493   0.40323    4  1.010  4.344        55.1      2456.6    134081.6
  4  -2.17135  -2.22751  -1.34446    4  1.010  2.946        55.1      2456.6    134082.9
  5   0.81035   0.95876   3.20983    4  1.010  2.939        55.1      2456.6    134083.0
  6   0.10473  -0.05254  -2.84039    4  1.010  3.823        55.1      2456.6    134081.6

     MOLECULAR C6(AA) [AU] =      1984.92

           DFT-D V3(BJ)

 FUNCTIONAL: NONE    

 PARAMETERS
 S6       :    1.0000
 S8       :    0.5883
 A1       :    0.5719
 A2       :    3.6017
 K1-K3    :   16.0000    1.3333    4.0000

 EDISP /KCAL,AU:    -4.3033 -0.00685768

 E6    /KCAL :    -2.8889
 E8    /KCAL :    -1.4144
 % E8        : 32.87
 STEP CPU TIME =     0.00 TOTAL CPU TIME =        0.1 (    0.0 MIN)
 TOTAL WALL CLOCK TIME=        0.1 SECONDS, CPU UTILIZATION IS  80.00%

          NSERCH=  7     ENERGY=      -2.7265834

                                 -----------------------
                                 GRADIENT (HARTREE/BOHR)
                                 -----------------------
        ATOM     ZNUC       DE/DX         DE/DY         DE/DZ
 --------------------------------------------------------------
    1  BE           4.0     0.0040679     0.0006328     0.0021411
    2  BE           4.0     0.0043751    -0.0036594     0.0009877
    3  BE           4.0    -0.0070233     0.0001481    -0.0007213
    4  BE           4.0     0.0012270     0.0037777     0.0002322
    5  BE           4.0     0.0000591     0.0006599    -0.0009959
    6  BE           4.0    -0.0027057    -0.0015591    -0.0016437

          MAXIMUM GRADIENT = 0.0070233    RMS GRADIENT = 0.0027348

 NSERCH:   7  E=       -2.7265833644  GRAD. MAX=  0.0070233  R.M.S.=  0.0027348

          HESSIAN UPDATED USING THE BFGS FORMULA
             ACTUAL ENERGY CHANGE WAS  -0.0011921012
          PREDICTED ENERGY CHANGE WAS  -0.0008558419 RATIO=  1.393
          MIN SEARCH, CORRECT HESSIAN, TRYING PURE NR STEP
               NR STEP HAS LENGTH         =   0.175842
          TRIM/QA LAMBDA FOR NON-TS MODES =  -0.00222134
          TRIM/QA STEP HAS LENGTH         =   0.163968
          RADIUS OF STEP TAKEN=   0.16397  CURRENT TRUST RADIUS=   0.16397

 BEGINNING GEOMETRY SEARCH POINT NSERCH=   8 ...

 COORDINATES OF ALL ATOMS ARE (ANGS)
   ATOM   CHARGE       X              Y              Z
 ------------------------------------------------------------
 BE          4.0   1.1178021631   1.0437551557   0.0638207625
 BE          4.0   0.7102313770  -0.9960265991   0.2470354454
 BE          4.0  -0.9943303248   0.6414058110   0.2327089646
 BE          4.0  -1.1570340150  -1.1904683605  -0.7401497643
 BE          4.0   0.4434476096   0.5263286025   1.7060736723
 BE          4.0   0.0598831901  -0.0249946097  -1.5094890805

          INTERNUCLEAR DISTANCES (ANGS.)
          ------------------------------

                1 BE         2 BE         3 BE         4 BE         5 BE    

   1 BE      0.0000000    2.0881550 *  2.1567364 *  3.2883131    1.8491833 *
   2 BE      2.0881550 *  0.0000000    2.3636668 *  2.1210899 *  2.1254485 *
   3 BE      2.1567364 *  2.3636668 *  0.0000000    2.0805503 *  2.0618564 *
   4 BE      3.2883131    2.1210899 *  2.0805503 *  0.0000000    3.3901242  
   5 BE      1.8491833 *  2.1254485 *  2.0618564 *  3.3901242    0.0000000  
   6 BE      2.1764013 *  2.1097948 *  2.1425941 *  1.8523227 *  3.2849540  

                6 BE    

   1 BE      2.1764013 *
   2 BE      2.1097948 *
   3 BE      2.1425941 *
   4 BE      1.8523227 *
   5 BE      3.2849540  
   6 BE      0.0000000  

  * ... LESS THAN  3.000

 ...... END OF NCC-DFTB PREPARATION ......
 STEP CPU TIME =     0.00 TOTAL CPU TIME =        0.1 (    0.0 MIN)
 TOTAL WALL CLOCK TIME=        0.1 SECONDS, CPU UTILIZATION IS  80.00%

          --------------------------
             SCC-DFTB CALCULATION
          --------------------------
     DENSITY MATRIX CONV=  1.00E-12

 ITER EX DEM     TOTAL ENERGY        E CHANGE  DENSITY CHANGE    DIIS ERROR
   1  0  0       -2.7200497854    -2.7200497854   0.909077968   0.000000000
   2  1  0       -2.7200633086    -0.0000135232   0.001571669   0.014226315
   3  2  0       -2.7200702303    -0.0000069216   0.002579976   0.024382327
   4  3  0       -2.7200706859    -0.0000004557   0.000650720   0.006316450
   5  4  0       -2.7200707286    -0.0000000427   0.000170418   0.001219912
   6  5  0       -2.7200707287    -0.0000000001   0.000006320   0.000049657
   7  6  0       -2.7200707288    -0.0000000000   0.000005027   0.000043007
   8  7  0       -2.7200707288    -0.0000000000   0.000000640   0.000007259
   9  8  0       -2.7200707288     0.0000000000   0.000000003   0.000000020
  10  9  0       -2.7200707288    -0.0000000000   0.000000000   0.000000000
  11 10  0       -2.7200707288    -0.0000000000   0.000000000   0.000000000

          -----------------
          DENSITY CONVERGED
          -----------------
     TIME TO FORM FOCK OPERATORS=       0.0 SECONDS (       0.0 SEC/ITER)
     TIME TO SOLVE SCF EQUATIONS=       0.0 SECONDS (       0.0 SEC/ITER)

          ----------------------------
          DFT-D PARAMETERS AND RESULTS
          ----------------------------
 C6 COEFFICIENTS USED:
       3 C6 FOR ELEMENT   4
  Z=  4 CN= 0.000     C6(AA)=  257.49
  Z=  4 CN= 0.981     C6(AA)=  135.84
  Z=  4 CN= 1.970     C6(AA)=   55.14

 #          XYZ [AU]             R0(AA) [ANG.]  CN         C6(AA)     C8(AA)   C10(AA) [AU]
  1   2.11234   1.97241   0.12060    4  1.010  3.829        55.1      2456.6    134081.6
  2   1.34214  -1.88222   0.46683    4  1.010  4.533        55.1      2456.6    134081.6
  3  -1.87901   1.21208   0.43976    4  1.010  4.526        55.1      2456.6    134081.6
  4  -2.18648  -2.24966  -1.39868    4  1.010  2.945        55.1      2456.6    134082.9
  5   0.83799   0.99462   3.22401    4  1.010  2.950        55.1      2456.6    134082.9
  6   0.11316  -0.04723  -2.85252    4  1.010  3.829        55.1      2456.6    134081.6

     MOLECULAR C6(AA) [AU] =      1984.92

           DFT-D V3(BJ)

 FUNCTIONAL: NONE    

 PARAMETERS
 S6       :    1.0000
 S8       :    0.5883
 A1       :    0.5719
 A2       :    3.6017
 K1-K3    :   16.0000    1.3333    4.0000

 EDISP /KCAL,AU:    -4.2976 -0.00684867

 E6    /KCAL :    -2.8859
 E8    /KCAL :    -1.4117
 % E8        : 32.85

 FINAL RDFTB ENERGY IS       -2.7269193996 AFTER  11 ITERATIONS
 GRIMME'S DISPERSION ENERGY                     =       -0.0068486709
 ENERGY WITHOUT DISPERSION CORRECTION IS                -2.7200707288
 ...... END OF RDFTB CALCULATION ......
 STEP CPU TIME =     0.01 TOTAL CPU TIME =        0.1 (    0.0 MIN)
 TOTAL WALL CLOCK TIME=        0.1 SECONDS, CPU UTILIZATION IS  86.67%

          ----------------------------
          DFT-D PARAMETERS AND RESULTS
          ----------------------------
 C6 COEFFICIENTS USED:
       3 C6 FOR ELEMENT   4
  Z=  4 CN= 0.000     C6(AA)=  257.49
  Z=  4 CN= 0.981     C6(AA)=  135.84
  Z=  4 CN= 1.970     C6(AA)=   55.14

 #          XYZ [AU]             R0(AA) [ANG.]  CN         C6(AA)     C8(AA)   C10(AA) [AU]
  1   2.11234   1.97241   0.12060    4  1.010  3.829        55.1      2456.6    134081.6
  2   1.34214  -1.88222   0.46683    4  1.010  4.533        55.1      2456.6    134081.6
  3  -1.87901   1.21208   0.43976    4  1.010  4.526        55.1      2456.6    134081.6
  4  -2.18648  -2.24966  -1.39868    4  1.010  2.945        55.1      2456.6    134082.9
  5   0.83799   0.99462   3.22401    4  1.010  2.950        55.1      2456.6    134082.9
  6   0.11316  -0.04723  -2.85252    4  1.010  3.829        55.1      2456.6    134081.6

     MOLECULAR C6(AA) [AU] =      1984.92

           DFT-D V3(BJ)

 FUNCTIONAL: NONE    

 PARAMETERS
 S6       :    1.0000
 S8       :    0.5883
 A1       :    0.5719
 A2       :    3.6017
 K1-K3    :   16.0000    1.3333    4.0000

 EDISP /KCAL,AU:    -4.2976 -0.00684867

 E6    /KCAL :    -2.8859
 E8    /KCAL :    -1.4117
 % E8        : 32.85
 STEP CPU TIME =     0.00 TOTAL CPU TIME =        0.1 (    0.0 MIN)
[...]

 EDISP /KCAL,AU:    -4.3022 -0.00685606

 E6    /KCAL :    -2.8889
 E8    /KCAL :    -1.4134
 % E8        : 32.85
 STEP CPU TIME =     0.02 TOTAL CPU TIME =        0.3 (    0.0 MIN)
 TOTAL WALL CLOCK TIME=        0.3 SECONDS, CPU UTILIZATION IS  86.21%

          ---------------
          ENERGY GRADIENT
          ---------------

 UNITS ARE HARTREE/BOHR    E'X               E'Y               E'Z 
    1 BE              -0.000000002      -0.000000001      -0.000000003
    2 BE              -0.000000003      -0.000000005      -0.000000004
    3 BE              -0.000000001      -0.000000004      -0.000000002
    4 BE               0.000000005       0.000000005       0.000000004
    5 BE               0.000000001       0.000000003       0.000000006
    6 BE               0.000000001       0.000000002      -0.000000001

          -------------------------------
          CARTESIAN FORCE CONSTANT MATRIX
          -------------------------------

                                   1                          2
                               BE                         BE        
                          X        Y        Z        X        Y        Z
  1   BE           X 0.130159 0.096231 0.005226-0.018051-0.020463 0.003520
                   Y 0.096231 0.131170 0.008892-0.012219-0.080217-0.006233
                   Z 0.005226 0.008892 0.142365 0.006518 0.001606 0.012501
  2   BE           X-0.018051-0.012219 0.006518 0.079234-0.010311 0.054889
                   Y-0.020463-0.080217 0.001606-0.010311 0.140635 0.014424
                   Z 0.003520-0.006233 0.012501 0.054889 0.014424 0.105386
  3   BE           X-0.079882-0.020747-0.000834 0.017714-0.006806-0.002234
                   Y-0.012878-0.017789 0.007113 0.007111 0.017236-0.011697
                   Z-0.008936 0.003821 0.011903-0.011906-0.002521 0.016756
  4   BE           X-0.009294-0.019173-0.000207-0.065141 0.002317-0.045239
                   Y-0.019275-0.009547-0.001105-0.013588-0.017182 0.002580
                   Z-0.003226-0.004134-0.016744-0.030200 0.005131-0.020391
  5   BE           X 0.003118-0.017510 0.033774 0.000805 0.015594 0.001936
                   Y-0.017117 0.005571 0.030075 0.005767-0.056055-0.023758
                   Z 0.045390 0.041723-0.090454 0.004782-0.043276-0.047463
  6   BE           X-0.026050-0.026582-0.044477-0.014561 0.019670-0.012872
                   Y-0.026497-0.029188-0.046580 0.023240-0.004417 0.024684
                   Z-0.041974-0.044070-0.059571-0.024082 0.024636-0.066790

                                   3                          4
                               BE                         BE        
                          X        Y        Z        X        Y        Z
  3   BE           X 0.139674-0.011498 0.015859-0.017427 0.004126 0.005162
                   Y-0.011498 0.082896 0.055338-0.012353-0.067667-0.029023
                   Z 0.015859 0.055338 0.102685 0.003199-0.043521-0.017619
  4   BE           X-0.017427-0.012353 0.003199 0.148803 0.107962 0.044817
                   Y 0.004126-0.067667-0.043521 0.107962 0.152512 0.047232
                   Z 0.005162-0.029023-0.017619 0.044817 0.047232 0.110375
  5   BE           X-0.053828 0.004668-0.024149-0.019264-0.020675-0.046424
                   Y 0.013920 0.001040 0.000692-0.020595-0.022492-0.048141
                   Z-0.043996 0.003161-0.049925-0.044058-0.045768-0.047157
  6   BE           X-0.006251 0.024949 0.025933-0.037677-0.058551 0.029872
                   Y 0.021004-0.015716-0.013809-0.058158-0.035622 0.028934
                   Z 0.026042-0.024892-0.063801 0.041488 0.040583-0.008465

                                   5                          6
                               BE                         BE        
                          X        Y        Z        X        Y        Z
  5   BE           X 0.072431 0.031130 0.037512-0.003262-0.013207-0.002649
                   Y 0.031130 0.075394 0.045097-0.013105-0.003457-0.003965
                   Z 0.037512 0.045097 0.263866 0.000370-0.000937-0.028867
  6   BE           X-0.003262-0.013105 0.000370 0.087801 0.053618 0.001174
                   Y-0.013207-0.003457-0.000937 0.053618 0.088400 0.007708
                   Z-0.002649-0.003965-0.028867 0.001174 0.007708 0.227493

          ------------------------          ----------------
          DIPOLE DERIVATIVE TENSOR          (DEBYE/ANGSTROM)
          ------------------------          ----------------

        ATOM                 MU-X           MU-Y           MU-Z
     BE         D/DX     0.482768551    0.342377198   -1.680623178
                D/DY     0.345248190    0.372074327   -1.738755660
                D/DZ    -1.595728720   -1.653623848   -1.496165513
     BE         D/DX     0.371346456   -1.676391241    1.392222246
                D/DY    -0.512287844    0.719875530    0.334879561
                D/DZ     0.583112523    1.102488338   -0.435116908
     BE         D/DX     0.674975174   -0.518248116    0.387042734
                D/DY    -1.682351604    0.429816188    1.308024145
                D/DZ     1.196152415    0.540415345   -0.448686321
     BE         D/DX     0.684243484    2.478048739    1.625871047
                D/DY     2.429645913    0.759746342    1.639635843
                D/DZ     0.194544568    0.204328785   -1.458773215
     BE         D/DX    -1.672014170    0.059213910   -0.030831195
                D/DY     0.107616689   -1.619505125    0.138465870
                D/DZ     1.400495430    1.573772910    3.276736411
     BE         D/DX    -0.541319495   -0.685000490   -1.693681654
                D/DY    -0.687871344   -0.662007261   -1.682249758
                D/DZ    -1.778578569   -1.767380940    0.562006702

          --------------------------------------------------------
          NORMAL COORDINATE ANALYSIS IN THE HARMONIC APPROXIMATION
          --------------------------------------------------------

          ATOMIC WEIGHTS (AMU)

    1     BE                9.01218
    2     BE                9.01218
    3     BE                9.01218
    4     BE                9.01218
    5     BE                9.01218
    6     BE                9.01218

 MODES    1 TO    6 ARE TAKEN AS ROTATIONS AND TRANSLATIONS.

 ANALYZING SYMMETRY OF NORMAL MODES...

     FREQUENCIES IN CM**-1, IR INTENSITIES IN DEBYE**2/AMU-ANGSTROM**2,
     REDUCED MASSES IN AMU.

                            1           2           3           4           5
       FREQUENCY:         0.23        0.19        0.13        0.07        0.19  
        SYMMETRY:         A           A           A           A           A   
    REDUCED MASS:      9.01218     9.01218     9.01218     9.01218     9.01218
    IR INTENSITY:      0.00001     0.00015     0.00007     0.00010     0.00001

  1   BE           X  0.13871349 -0.00507594  0.04251891  0.07117521  0.08838415
                   Y -0.10763708  0.10153815 -0.02207475  0.00186459  0.02609108
                   Z -0.06627295  0.06779793 -0.00201558 -0.00101213  0.07518195
  2   BE           X  0.03432540  0.09451863  0.02098579 -0.10993533  0.07757564
                   Y -0.08901388  0.06691847 -0.01801004  0.03687030  0.03393486
                   Z -0.07458204 -0.10767378 -0.00130018  0.01390069  0.13870206
  3   BE           X  0.12348039  0.01490023  0.03048281  0.03499933  0.08420177
                   Y  0.00350284 -0.00707598 -0.01406695  0.18005691  0.03732622
                   Z  0.01749836  0.06518063 -0.16631786 -0.04970933  0.04250013
  4   BE           X -0.01764969  0.08883698  0.10058434 -0.10113034  0.09865058
                   Y  0.02283709  0.06620251 -0.02795970  0.18216397  0.00581658
                   Z  0.00168412 -0.09680113 -0.14970720 -0.03119425  0.10440137
  5   BE           X  0.17720840  0.04638442 -0.09365193 -0.01996789  0.05015700
                   Y -0.09295913 -0.07135091  0.00527505  0.07509420  0.08513514
                   Z -0.04632096  0.02679848 -0.04472778 -0.01029387  0.08124766
  6   BE           X  0.01283244  0.02234893  0.16799815  0.01874303  0.11971168
                   Y -0.03283103  0.19039959 -0.04354479  0.07103329 -0.02514981
                   Z -0.03526099 -0.01204909 -0.06983372 -0.01451406  0.09013958

 TRANS. SAYVETZ    X  4.22590526  2.36040938  2.42353806 -0.95633635  4.67444485
                   Y -2.66851718  3.12390842 -1.08489689  4.93041280  1.47037382
                   Z -1.83176576 -0.51141380 -3.91040591 -0.83653725  4.79603653
               TOTAL  5.32302780  3.94865551  4.72671264  5.09149724  6.85670476

   ROT. SAYVETZ    X  2.51435271 13.42798596 -0.68486422  0.83129607 -5.37377802
                   Y  8.50733268 -0.84032069-13.48690602 -1.64272608 -2.86601804
                   Z -9.36562791  3.94750033  2.35927218-11.20016369  1.11397374
               TOTAL 12.90006454 14.02140166 13.70882337 11.35047439  6.19132354

                            6           7           8           9          10
       FREQUENCY:         0.27      188.47      279.84      388.39      520.98  
        SYMMETRY:         A           A           A           A           A   
    REDUCED MASS:      9.01218     9.01218     9.01218     9.01218     9.01218
    IR INTENSITY:      0.00008     0.63760     0.00000     0.49431     0.00010

  1   BE           X  0.01577442  0.07146466 -0.13923410 -0.01733261  0.03034874
                   Y -0.10489122 -0.07126635  0.13884804 -0.01581052  0.03333987
                   Z  0.16066643  0.00241000 -0.00469544  0.04643439  0.08595629
  2   BE           X -0.07996613  0.10829907  0.00165970  0.18415862 -0.03627004
                   Y -0.09781226  0.05454290  0.00174953 -0.06133602  0.16405638
                   Z  0.04419771 -0.10932215  0.00251691 -0.07880251 -0.09011082
  3   BE           X -0.00636468 -0.05796744 -0.00165966 -0.05904367  0.16708777
                   Y -0.02380690 -0.10473467 -0.00174949  0.18119190 -0.03873749
                   Z  0.05009303  0.11101940 -0.00251694 -0.08700404 -0.08325302
  4   BE           X -0.04468863 -0.09662989 -0.09170160 -0.00736021 -0.05344265
                   Y  0.02683208  0.09636206  0.09144734 -0.00420546 -0.05139665
                   Z -0.04685687 -0.00325870 -0.00309251  0.09389209  0.06489753
  5   BE           X -0.08126762 -0.09663026  0.09170154 -0.06657549 -0.04927175
                   Y -0.15702216  0.09636233 -0.09144711 -0.06662249 -0.04700021
                   Z  0.10505113 -0.00325868  0.00309240  0.00409003  0.07122285
  6   BE           X  0.03940504  0.07146466  0.13923427 -0.03384664 -0.05845202
                   Y  0.01388103 -0.07126629 -0.13884806 -0.03321751 -0.06026188
                   Z  0.06253182  0.00240998  0.00469534  0.02139008 -0.04871282

 TRANS. SAYVETZ    X -1.41588195  0.00000709  0.00000140 -0.00000007  0.00000047
                   Y -3.08955036 -0.00000025  0.00000221 -0.00000078  0.00000023
                   Z  3.38572515 -0.00000139 -0.00000228  0.00000037  0.00000005
               TOTAL  4.79720522  0.00000723  0.00000347  0.00000086  0.00000053

   ROT. SAYVETZ    X 10.41523152 -0.00000300  0.00000021  0.00000343 -0.00000093
                   Y -7.44722653 -0.00000838  0.00000126 -0.00000077 -0.00000016
                   Z -6.09120068  0.00001408 -0.00000404 -0.00000407  0.00000005
               TOTAL 14.17889122  0.00001665  0.00000424  0.00000538  0.00000094

                           11          12          13          14          15
       FREQUENCY:       588.36      672.99      758.12      816.55      824.97  
        SYMMETRY:         A           A           A           A           A   
    REDUCED MASS:      9.01218     9.01218     9.01218     9.01218     9.01218
    IR INTENSITY:      1.41034     3.02010     0.00000     0.71187     1.34289

  1   BE           X -0.04456779  0.12635284  0.04879720 -0.06166639  0.06792470
                   Y -0.04027102  0.12802539 -0.04866190  0.06149554  0.06370435
                   Z  0.13072483  0.03906845  0.00164560 -0.00207971 -0.13038265
  2   BE           X -0.06112113 -0.01814966  0.09627365  0.09430784 -0.03165787
                   Y -0.06442559 -0.01913096  0.10147885 -0.16414148 -0.01287895
                   Z -0.09269212 -0.02752457  0.14600216  0.05190013  0.02982681
  3   BE           X -0.06112105 -0.01814975 -0.09627380  0.16600935 -0.01381014
                   Y -0.06442567 -0.01913092 -0.10147873 -0.09545386 -0.03067736
                   Z -0.09269210 -0.02752456 -0.14600215 -0.04312139  0.03042875
  4   BE           X -0.02270340 -0.09827613 -0.07023932 -0.06849216 -0.00148995
                   Y -0.01829879 -0.09938473  0.07004455  0.06830219  0.00413722
                   Z  0.13211689 -0.02469946 -0.00236869 -0.00230960  0.16652850
  5   BE           X  0.09451059 -0.01076753  0.07023942 -0.06849219 -0.11730100
                   Y  0.09398825 -0.01555447 -0.07004458  0.06830201 -0.11793519
                   Z -0.02321884 -0.14066878  0.00236867 -0.00230979 -0.00910272
  6   BE           X  0.09500278  0.01899024 -0.04879715 -0.06166643  0.09633430
                   Y  0.09343282  0.02517568  0.04866181  0.06149559  0.09364992
                   Z -0.05423861  0.18134892 -0.00164558 -0.00207964 -0.08729872

 TRANS. SAYVETZ    X -0.00000001  0.00000004  0.00000006  0.00000014  0.00000036
                   Y -0.00000005 -0.00000017 -0.00000009 -0.00000016 -0.00000012
                   Z  0.00000051  0.00000005  0.00000014  0.00000003 -0.00000023
               TOTAL  0.00000051  0.00000018  0.00000018  0.00000022  0.00000044

   ROT. SAYVETZ    X  0.00000069 -0.00000043  0.00000014 -0.00000089 -0.00000025
                   Y -0.00000012  0.00000085  0.00000034 -0.00000053 -0.00000050
                   Z  0.00000071  0.00000098  0.00000049  0.00000040  0.00000028
               TOTAL  0.00000100  0.00000136  0.00000062  0.00000111  0.00000063

                           16          17          18
       FREQUENCY:      1001.07     1039.68     1161.29  
        SYMMETRY:         A           A           A   
    REDUCED MASS:      9.01218     9.01218     9.01218
    IR INTENSITY:      0.65410     1.07123     0.00616

  1   BE           X -0.09625342  0.07406384  0.08686436
                   Y -0.10130056  0.07182132  0.08678736
                   Z -0.14133457 -0.07240496 -0.00942042
  2   BE           X  0.01803760 -0.06389192  0.03621190
                   Y  0.05024423 -0.06734621 -0.05932380
                   Z -0.04681610 -0.09689415  0.01735494
  3   BE           X  0.05175787 -0.06389188 -0.05995620
                   Y  0.01661746 -0.06734624  0.03657757
                   Z -0.04567897 -0.09689415  0.01411186
  4   BE           X -0.07273471  0.10243826 -0.12017701
                   Y -0.07347028  0.10340166 -0.12304197
                   Z -0.01577027  0.02006429 -0.07483723
  5   BE           X  0.00620258  0.00722506  0.04457954
                   Y  0.00973478  0.01219065  0.05062216
                   Z  0.10394067  0.14624392  0.17502148
  6   BE           X  0.09299004 -0.05594337  0.01247742
                   Y  0.09817438 -0.05272117  0.00837868
                   Z  0.14565923  0.09988506 -0.12223061

 TRANS. SAYVETZ    X -0.00000032  0.00000004  0.00000006
                   Y -0.00000004  0.00000006  0.00000002
                   Z -0.00000003 -0.00000004  0.00000007
               TOTAL  0.00000032  0.00000008  0.00000009

   ROT. SAYVETZ    X -0.00000016 -0.00000037  0.00000011
                   Y -0.00000050  0.00000005  0.00000026
                   Z  0.00000033 -0.00000008 -0.00000001
               TOTAL  0.00000062  0.00000038  0.00000029

 REFERENCE ON SAYVETZ CONDITIONS - A. SAYVETZ, J.CHEM.PHYS., 7, 383-389(1939).

 NOTE - THE MODES J,K ARE ORTHONORMALIZED ACCORDING TO
 SUM ON I   M(I) * (X(I,J)*X(I,K) + Y(I,J)*Y(I,K) + Z(I,J)*Z(I,K)) = DELTA(J,K)

  MODE FREQ(CM**-1)  SYMMETRY  RED. MASS  IR INTENS.
     1       0.231    A        9.012180    0.000010
     2       0.195    A        9.012180    0.000147
     3       0.133    A        9.012180    0.000073
     4       0.073    A        9.012180    0.000099
     5       0.194    A        9.012180    0.000015
     6       0.274    A        9.012180    0.000077
     7     188.475    A        9.012180    0.637599
     8     279.844    A        9.012180    0.000000
     9     388.392    A        9.012180    0.494310
    10     520.981    A        9.012180    0.000103
    11     588.361    A        9.012180    1.410335
    12     672.986    A        9.012180    3.020100
    13     758.123    A        9.012180    0.000000
    14     816.549    A        9.012180    0.711870
    15     824.970    A        9.012180    1.342892
    16    1001.071    A        9.012180    0.654095
    17    1039.683    A        9.012180    1.071226
    18    1161.289    A        9.012180    0.006155

     -------------------------------
     THERMOCHEMISTRY AT T=  298.15 K
     -------------------------------

 USING IDEAL GAS, RIGID ROTOR, HARMONIC NORMAL MODE APPROXIMATIONS.
 P=  1.01325E+05 PASCAL.
 ALL FREQUENCIES ARE SCALED BY   1.00000
 THE MOMENTS OF INERTIA ARE (IN AMU*BOHR**2)
    201.38837   350.26752   367.49404
 THE ROTATIONAL SYMMETRY NUMBER IS  1.0
 THE ROTATIONAL CONSTANTS ARE (IN GHZ)
      8.95329     5.14775     4.90644
      7 -     18 VIBRATIONAL MODES ARE USED IN THERMOCHEMISTRY.
 THE HARMONIC ZERO POINT ENERGY IS (SCALED BY   1.000)
        0.018774 HARTREE/MOLECULE     4120.361598 CM**-1/MOLECULE 
       11.780717 KCAL/MOL               49.290519 KJ/MOL

               Q               LN Q
 ELEC.     1.00000E+00       0.000000
 TRANS.    1.56288E+07      16.564625
 ROT.      5.76347E+04      10.961879
 VIB.      3.48723E+00       1.249108
 TOT.      3.14116E+12      28.775612

              E         H         G         CV        CP        S
           KJ/MOL    KJ/MOL    KJ/MOL   J/MOL-K   J/MOL-K   J/MOL-K
 ELEC.      0.000     0.000     0.000     0.000     0.000     0.000
 TRANS.     3.718     6.197   -41.063    12.472    20.786   158.511
 ROT.       3.718     3.718   -27.174    12.472    12.472   103.613
 VIB.      54.987    54.987    46.194    46.456    46.456    29.492
 TOTAL     62.424    64.903   -22.043    71.399    79.714   291.617
 VIB. THERMAL CORRECTION E(T)-E(0) = H(T)-H(0) =  5696.704 J/MOL

              E         H         G         CV        CP        S
         KCAL/MOL  KCAL/MOL  KCAL/MOL CAL/MOL-K CAL/MOL-K CAL/MOL-K
 ELEC.      0.000     0.000     0.000     0.000     0.000     0.000
 TRANS.     0.889     1.481    -9.814     2.981     4.968    37.885
 ROT.       0.889     0.889    -6.495     2.981     2.981    24.764
 VIB.      13.142    13.142    11.041    11.103    11.103     7.049
 TOTAL     14.920    15.512    -5.268    17.065    19.052    69.698
 VIB. THERMAL CORRECTION E(T)-E(0) = H(T)-H(0) =  1361.545 CAL/MOL
 ......END OF NORMAL COORDINATE ANALYSIS......
 STEP CPU TIME =     0.00 TOTAL CPU TIME =        0.3 (    0.0 MIN)
 TOTAL WALL CLOCK TIME=        0.3 SECONDS, CPU UTILIZATION IS  86.21%
               731270  WORDS OF DYNAMIC MEMORY USED
 EXECUTION OF GAMESS TERMINATED NORMALLY Mon Nov 28 18:29:51 2016
 DDI: 263640 bytes (0.3 MB / 0 MWords) used by master data server.

 ----------------------------------------
 CPU timing information for all processes
 ========================================
 0: 0.228 + 0.40 = 0.269
 ----------------------------------------
 ddikick.x: exited gracefully.
unset echo
----- accounting info -----
Files used on the master node compute-3-0 were:
-rw-rw-r-- 1 sarom sarom  142521 Nov 29  2016 .//exam48.dat
-rw-rw-r-- 1 sarom sarom     978 Nov 29  2016 .//exam48.F05
-rw-rw-r-- 1 sarom sarom       0 Nov 29  2016 .//exam48.F08
-rw-rw-r-- 1 sarom sarom 1995920 Nov 29  2016 .//exam48.F10
-rw-rw-r-- 1 sarom sarom     978 Nov 28 17:27 .//exam48.inp
-rw-rw-r-- 1 sarom sarom  232771 Nov 29  2016 .//exam48.log
Mon Nov 28 18:29:54 CST 2016
0.195u 0.271s 0:03.81 12.0%	0+0k 0+136io 0pf+0w
