----- GAMESS execution script 'rungms' -----
This job is running on host compute-3-0
under operating system Linux at Tue Nov 29 02:43:04 CST 2016
Available scratch disk space (Kbyte units) at beginning of the job is
Filesystem            1K-blocks       Used  Available Use% Mounted on
bolt.local:/export/home/sarom
                     9590469632 1553479680 7549821952  18% /home/sarom
Copying input file sf-ro-pcm.inp to your run's scratch directory...
cp sf-ro-pcm.inp .//sf-ro-pcm.F05
unset echo
/home/sarom/gamessGH/ddikick.x /home/sarom/gamessGH/gamess.00.x sf-ro-pcm -ddi 1 1 localhost -scr ./

 Distributed Data Interface kickoff program.
 Initiating 1 compute processes on 1 nodes to run the following command:
 /home/sarom/gamessGH/gamess.00.x sf-ro-pcm 

          ******************************************************
          *         GAMESS VERSION = 18 AUG 2016 (R1)          *
          *             FROM IOWA STATE UNIVERSITY             *
          * M.W.SCHMIDT, K.K.BALDRIDGE, J.A.BOATZ, S.T.ELBERT, *
          *   M.S.GORDON, J.H.JENSEN, S.KOSEKI, N.MATSUNAGA,   *
          *          K.A.NGUYEN, S.J.SU, T.L.WINDUS,           *
          *       TOGETHER WITH M.DUPUIS, J.A.MONTGOMERY       *
          *         J.COMPUT.CHEM.  14, 1347-1363(1993)        *
          **************** 64 BIT LINUX VERSION ****************

  SINCE 1993, STUDENTS AND POSTDOCS WORKING AT IOWA STATE UNIVERSITY
  AND ALSO IN THEIR VARIOUS JOBS AFTER LEAVING ISU HAVE MADE IMPORTANT
  CONTRIBUTIONS TO THE CODE:
     IVANA ADAMOVIC, CHRISTINE AIKENS, YURI ALEXEEV, POOJA ARORA,
     ANDREY ASADCHEV, ROB BELL, PRADIPTA BANDYOPADHYAY, JONATHAN BENTZ,
     BRETT BODE, KURT BRORSEN, CALEB CARLIN, GALINA CHABAN, WEI CHEN,
     CHEOL HO CHOI, PAUL DAY, ALBERT DEFUSCO, NUWAN DESILVA, TIM DUDLEY,
     DMITRI FEDOROV, GRAHAM FLETCHER, MARK FREITAG, KURT GLAESEMANN,
     DAN KEMP, GRANT MERRILL, NORIYUKI MINEZAWA, JONATHAN MULLIN,
     TAKESHI NAGATA, SEAN NEDD, HEATHER NETZLOFF, BOSILJKA NJEGIC, RYAN OLSON,
     MIKE PAK, SPENCER PRUITT, LUKE ROSKOP, JIM SHOEMAKER, LYUDMILA SLIPCHENKO,
     TONY SMITH, SAROM SOK LEANG, JIE SONG, TETSUYA TAKETSUGU, SIMON WEBB,
     PENG XU, SOOHAENG YOO, FEDERICO ZAHARIEV

  ADDITIONAL CODE HAS BEEN PROVIDED BY COLLABORATORS IN OTHER GROUPS:
     IOWA STATE UNIVERSITY:
          JOE IVANIC, AARON WEST, LAIMUTIS BYTAUTAS, KLAUS RUEDENBERG
     UNIVERSITY OF TOKYO: KIMIHIKO HIRAO, TAKAHITO NAKAJIMA,
          TAKAO TSUNEDA, MUNEAKI KAMIYA, SUSUMU YANAGISAWA,
          KIYOSHI YAGI, MAHITO CHIBA, SEIKEN TOKURA, NAOAKI KAWAKAMI
     UNIVERSITY OF AARHUS: FRANK JENSEN
     UNIVERSITY OF IOWA: VISVALDAS KAIRYS, HUI LI
     NATIONAL INST. OF STANDARDS AND TECHNOLOGY: WALT STEVENS, DAVID GARMER
     UNIVERSITY OF PISA: BENEDETTA MENNUCCI, JACOPO TOMASI
     UNIVERSITY OF MEMPHIS: HENRY KURTZ, PRAKASHAN KORAMBATH
     UNIVERSITY OF ALBERTA: TOBY ZENG, MARIUSZ KLOBUKOWSKI
     UNIVERSITY OF NEW ENGLAND: MARK SPACKMAN
     MIE UNIVERSITY: HIROAKI UMEDA
     NAT. INST. OF ADVANCED INDUSTRIAL SCIENCE AND TECHNOLOGY: KAZUO KITAURA
     MICHIGAN STATE UNIVERSITY:
          KAROL KOWALSKI, MARTA WLOCH, JEFFREY GOUR, JESSE LUTZ,
          WEI LI, PIOTR PIECUCH
     UNIVERSITY OF SILESIA: MONIKA MUSIAL, STANISLAW KUCHARSKI
     FACULTES UNIVERSITAIRES NOTRE-DAME DE LA PAIX:
          OLIVIER QUINET, BENOIT CHAMPAGNE
     UNIVERSITY OF CALIFORNIA - SANTA BARBARA: BERNARD KIRTMAN
     INSTITUTE FOR MOLECULAR SCIENCE:
          KAZUYA ISHIMURA, MICHIO KATOUDA, AND SHIGERU NAGASE
     UNIVERSITY OF NOTRE DAME: ANNA POMOGAEVA, DAN CHIPMAN
     KYUSHU UNIVERSITY:
          HARUYUKI NAKANO,
          FENG LONG GU, JACEK KORCHOWIEC, MARCIN MAKOWSKI, AND YURIKO AOKI,
          HIROTOSHI MORI AND EISAKU MIYOSHI
     PENNSYLVANIA STATE UNIVERSITY:
          TZVETELIN IORDANOV, CHET SWALINA, JONATHAN SKONE,
          SHARON HAMMES-SCHIFFER
     WASEDA UNIVERSITY:
          MASATO KOBAYASHI, TOMOKO AKAMA, TSUGUKI TOUMA,
          TAKESHI YOSHIKAWA, YASUHIRO IKABATA, JUNJI SEINO,
          YUYA NAKAJIMA, HIROMI NAKAI
     NANJING UNIVERSITY: SHUHUA LI
     UNIVERSITY OF NEBRASKA:
          PEIFENG SU, DEJUN SI, NANDUN THELLAMUREGE, YALI WANG, HUI LI
     UNIVERSITY OF ZURICH: ROBERTO PEVERATI, KIM BALDRIDGE
     N. COPERNICUS UNIVERSITY AND JACKSON STATE UNIVERSITY:
          MARIA BARYSZ
     UNIVERSITY OF COPENHAGEN: Jimmy Kromann, CASPER STEINMANN
     TOKYO INSTITUTE OF TECHNOLOGY: HIROYA NAKATA
     NAGOYA UNIVERSITY: YOSHIO NISHIMOTO, STEPHAN IRLE
     MOSCOW STATE UNIVERSITY: VLADIMIR MIRONOV

 EXECUTION OF GAMESS BEGUN Tue Nov 29 02:43:04 2016

            ECHO OF THE FIRST FEW INPUT CARDS -
 INPUT CARD>!   restricted open shell reference geom.opt. with spin-flip TDDFT              
 INPUT CARD>!   H2CO wrapped in PCM water...test from Noriyuki...August 2012                
 INPUT CARD>!                                                                               
 INPUT CARD>!   NSERCH:   0  E=     -114.4565117043  R.M.S.=  0.0015285                     
 INPUT CARD>!   NSERCH:   1  E=     -114.4564881351  R.M.S.=  0.0014286                     
 INPUT CARD>!   NSERCH:   2  E=     -114.4565230966  R.M.S.=  0.0003324                     
 INPUT CARD>!   NSERCH:   3  E=     -114.4565233257  R.M.S.=  0.0002507                     
 INPUT CARD>!   NSERCH:   4  E=     -114.4565234407  R.M.S.=  0.0001181                     
 INPUT CARD>!   NSERCH:   5  E=     -114.4565234589  R.M.S.=  0.0001936                     
 INPUT CARD>!   NSERCH:   6  E=     -114.4565235665  R.M.S.=  0.0000169                     
 INPUT CARD>!                                                                               
 INPUT CARD>!   This run takes 124 seconds on 2.66 GHz Cloverton (2 Sep 2012)               
 INPUT CARD>!                                                                               
 INPUT CARD>!-----------------------------------------------------------------------        
 INPUT CARD>! H2CO                                                                          
 INPUT CARD>!-----------------------------------------------------------------------        
 INPUT CARD> $CONTRL RUNTYP=OPTIMIZE SCFTYP=ROHF DFTTYP=BHHLYP TDDFT=SPNFLP MULT=3          
 INPUT CARD>         MAXIT=100 $END                                                         
 INPUT CARD> $SYSTEM MWORDS=20 $END                                                         
 INPUT CARD>!-----------------------------------------------------------------------        
 INPUT CARD>! Wave function                                                                 
 INPUT CARD>!-----------------------------------------------------------------------        
 INPUT CARD> $GUESS GUESS=MOREAD NORB=40 $END                                               
 INPUT CARD> $BASIS GBASIS=DH NDFUNC=1 NPFUNC=1 $END                                        
 INPUT CARD> $TDDFT NSTATE=5 IROOT=1 MULT=1 NONEQ=.F. $END                                  
 INPUT CARD>!-----------------------------------------------------------------------        
 INPUT CARD>! PCM                                                                           
 INPUT CARD>!-----------------------------------------------------------------------        
 INPUT CARD> $PCM SOLVNT=WATER $END                                                         
 INPUT CARD> $PCMITR MXITR1=100 MXITR2=100 $END                                             
 INPUT CARD>!-----------------------------------------------------------------------        
 INPUT CARD>! Geometry                                                                      
 INPUT CARD>!-----------------------------------------------------------------------        
 INPUT CARD> $DATA                                                                          
 INPUT CARD>H2CO SF-BHHLYP/PCM S0                                                           
 INPUT CARD>C1                                                                              
 INPUT CARD> O           8.0   2.0047174261  -1.2044159001  -1.2183049102                   
 INPUT CARD> C           6.0   1.7002977106  -0.9860871697  -0.0824484221                   
 INPUT CARD> H           1.0   0.6903569141  -1.1849733842   0.3065753520                   
 INPUT CARD> H           1.0   2.4104486992  -0.5721785358   0.6491298728                   
 INPUT CARD> $END                                                                           
 INPUT CARD>--- OPEN SHELL ORBITALS --- GENERATED AT Tue Aug 21 01:00:12 2012               
 INPUT CARD>H2CO SF-BHHLYP/PCM S0                                                           
 INPUT CARD>E(RO-BHHLYP)=     -114.3412965343, E(NUC)=   31.4987736333,   16 ITERS          
 INPUT CARD> $VEC                                                                           
 INPUT CARD> 1  1 9.98706151E-01 3.21073637E-03 4.39632964E-03-3.67624193E-04 2.63163174E-04
 INPUT CARD> 1  2 1.37126446E-03-6.45544518E-05 4.65569392E-05 2.41407763E-04-1.83386551E-03
 INPUT CARD> 1  3-1.75281486E-03-1.25870064E-03-7.63236222E-05-1.81553114E-04 1.02332233E-04
 INPUT CARD> 1  4-7.13987809E-05 1.49779273E-04-9.64183410E-04-1.08612122E-04 7.80117878E-05
 INPUT CARD> 1  5 4.05446485E-04-1.67859884E-04 1.19840385E-04 6.24437367E-04-1.61501638E-04
   20000000 WORDS OF MEMORY AVAILABLE

     BASIS OPTIONS
     -------------
     GBASIS=DH           IGAUSS=       0      POLAR=DUNNING 
     NDFUNC=       1     NFFUNC=       0     DIFFSP=       F
     NPFUNC=       1      DIFFS=       F     BASNAM=        


     RUN TITLE
     ---------
 H2CO SF-BHHLYP/PCM S0                                                           

 THE POINT GROUP OF THE MOLECULE IS C1      
 THE ORDER OF THE PRINCIPAL AXIS IS     0

 ATOM      ATOMIC                      COORDINATES (BOHR)
           CHARGE         X                   Y                   Z
 O           8.0     3.7883666181       -2.2760160264       -2.3022624498
 C           6.0     3.2130967706       -1.8634345507       -0.1558049259
 H           1.0     1.3045854014       -2.2392749989        0.5793434099
 H           1.0     4.5550875489       -1.0812606487        1.2266775900

          INTERNUCLEAR DISTANCES (ANGS.)
          ------------------------------

                1 O          2 C          3 H          4 H     

   1 O       0.0000000    1.1960388 *  2.0132514 *  2.0128722 *
   2 C       1.1960388 *  0.0000000    1.1003979 *  1.1003825 *
   3 H       2.0132514 *  1.1003979 *  0.0000000    1.8578420 *
   4 H       2.0128722 *  1.1003825 *  1.8578420 *  0.0000000  

  * ... LESS THAN  3.000


     ATOMIC BASIS SET
     ----------------
 THE CONTRACTED PRIMITIVE FUNCTIONS HAVE BEEN UNNORMALIZED
 THE CONTRACTED BASIS FUNCTIONS ARE NOW NORMALIZED TO UNITY

  SHELL TYPE  PRIMITIVE        EXPONENT          CONTRACTION COEFFICIENT(S)

 O         

      1   S       1          7817.0000000    0.001176000331
      1   S       2          1176.0000000    0.008968002523
      1   S       3           273.2000000    0.042868012059
      1   S       4            81.1700000    0.143930040487
      1   S       5            27.1800000    0.355630100037
      1   S       6             9.5320000    0.461248129747
      1   S       7             3.4140000    0.140206039439

      2   S       8             9.5320000   -0.154153073905
      2   S       9             0.9398000    1.056914506712

      3   S      10             0.2846000    1.000000000000

      4   P      11            35.1800000    0.019580000501
      4   P      12             7.9040000    0.124200003180
      4   P      13             2.3050000    0.394714010108
      4   P      14             0.7171000    0.627376016066

      5   P      15             0.2137000    1.000000000000

      6   D      16             0.8500000    1.000000000000

 C         

      7   S      17          4233.0000000    0.001219999687
      7   S      18           634.9000000    0.009341997607
      7   S      19           146.1000000    0.045451988358
      7   S      20            42.5000000    0.154656960385
      7   S      21            14.1900000    0.358865908077
      7   S      22             5.1480000    0.438631887645
      7   S      23             1.9670000    0.145917962623

      8   S      24             5.1480000   -0.168366956056
      8   S      25             0.4962000    1.060090723318

      9   S      26             0.1533000    1.000000000000

     10   P      27            18.1600000    0.018538999809
     10   P      28             3.9860000    0.115435998814
     10   P      29             1.1430000    0.386187996031
     10   P      30             0.3594000    0.640113993421

     11   P      31             0.1146000    1.000000000000

     12   D      32             0.7500000    1.000000000000

 H         

     13   S      33            19.2384000    0.032827991019
     13   S      34             2.8987200    0.231203936751
     13   S      35             0.6534720    0.817225776436

     14   S      36             0.1630642    1.000000000000

     15   P      37             1.0000000    1.000000000000

 H         

     16   S      38            19.2384000    0.032827991019
     16   S      39             2.8987200    0.231203936751
     16   S      40             0.6534720    0.817225776436

     17   S      41             0.1630642    1.000000000000

     18   P      42             1.0000000    1.000000000000

 TOTAL NUMBER OF BASIS SET SHELLS             =   18
 NUMBER OF CARTESIAN GAUSSIAN BASIS FUNCTIONS =   40
 NUMBER OF ELECTRONS                          =   16
 CHARGE OF MOLECULE                           =    0
 SPIN MULTIPLICITY                            =    3
 NUMBER OF OCCUPIED ORBITALS (ALPHA)          =    9
 NUMBER OF OCCUPIED ORBITALS (BETA )          =    7
 TOTAL NUMBER OF ATOMS                        =    4
 THE NUCLEAR REPULSION ENERGY IS       31.4987736333

     LEBEDEV GRID-BASED DFT OPTIONS
     ------------------------------
     DFTTYP=BHHLYP  
     NRAD  =      96     NLEB  =     302
     NRAD0 =      24     NLEB0 =     110
     SWOFF =    5.00E-03 (PURE SCF -> DFT)
     SWITCH=    3.00E-04 (COARSE -> TIGHT GRID)
     THRESH=    0.00E+00 GTHRE=    1.00E+00

 GRIMME'S EMPIRICAL DISPERSION CORRECTION= F

     $CONTRL OPTIONS
     ---------------
 SCFTYP=ROHF         RUNTYP=OPTIMIZE     EXETYP=RUN     
 MPLEVL=       0     CITYP =NONE         CCTYP =NONE         VBTYP =NONE    
 DFTTYP=BHHLYP       TDDFT =SPNFLP  
 MULT  =       3     ICHARG=       0     NZVAR =       0     COORD =UNIQUE  
 PP    =NONE         RELWFN=NONE         LOCAL =NONE         NUMGRD=       F
 ISPHER=      -1     NOSYM =       0     MAXIT =     100     UNITS =ANGS    
 PLTORB=       F     MOLPLT=       F     AIMPAC=       F     FRIEND=        
 NPRINT=       7     IREST =       0     GEOM  =INPUT   
 NORMF =       0     NORMP =       0     ITOL  =      20     ICUT  =       9
 INTTYP=BEST         GRDTYP=BEST         QMTTOL= 1.0E-06

     $SYSTEM OPTIONS
     ---------------
  REPLICATED MEMORY=    20000000 WORDS (ON EVERY NODE).
 DISTRIBUTED MEMDDI=           0 MILLION WORDS IN AGGREGATE,
 MEMDDI DISTRIBUTED OVER   1 PROCESSORS IS           0 WORDS/PROCESSOR.
 TOTAL MEMORY REQUESTED ON EACH PROCESSOR=    20000000 WORDS.
 TIMLIM=      525600.00 MINUTES, OR     365.0 DAYS.
 PARALL= F  BALTYP=  DLB     KDIAG=    0  COREFL= F
 MXSEQ2=     300 MXSEQ3=     150  mem10=         0

 ** LOOKING UP INTERNALLY STORED DATA FOR SOLVENT=WATER    **
 OPTICAL AND PHYSICAL CONSTANTS:
 EPS= 78.390; EPSINF=  1.776; RSOLV=  1.385 A; VMOL=  18.070 ML/MOL;
 TCE= .25700E-03 1/K; STEN= 71.810 DYN/CM;  DSTEN=  0.6500; CMF=  1.2770


     -----------------------------------
     INPUT FOR PCM SOLVATION CALCULATION 
     -----------------------------------
     IEF   =     -10
     ICOMP =       0     IFIELD=       0     ICAV  =       0
     IDISP =       0     IREP  =       0     IDP   =       0

     SOLVNT=WATER        EPS   = 78.3900     EPSINF=  1.7760
     VMOL  = 18.0700     TCE   =  0.00025700 STEN  = 71.8100
     DSTEN =  0.6500     CMF   =  1.2770     RSOLV =  1.3850

     NESFP =       0
     OMEGA = 40.0000     RET   =100.0000     FRO   =  0.7000

     TABS  =298.0000     IPRINT=       0

     --------------------------------
     INPUT FOR ITERATIVE C-PCM METHOD 
     --------------------------------
     IPCMIT  =         1     MXDIIS  =        50
     MXITR1  =       100     MXITR2  =       100
     THRES   = 0.100E-09     IMUL    =         3
     RCUT(1) =   15.0000     RCUT(2) =   30.0000

     IDIRCT  =         1
     IMGABI  =         0     RABI    =    4.0000
     IMGASC  =         0     RASC    =   20.0000
     THRSLS  = 0.500E-03     DENSLS  =    0.0100
     IEFPOL  =         1     REFPOL  =    0.0000

     INPUT FOR ISOTROPIC DIELECTRICS
     -------------------------------
     EPS=    78.39

     INPUT FOR CAVITY DEFINITION 
     ---------------------------
   ATOM               COORDINATES                RADIUS       EPS
      1      2.0047     -1.2044     -1.2183      1.5000     78.3900
      2      1.7003     -0.9861     -0.0824      1.7000     78.3900
      3      0.6904     -1.1850      0.3066      1.2000     78.3900
      4      2.4104     -0.5722      0.6491      1.2000     78.3900

     ----------------------------
     INPUT FOR TESSERA DEFINITION
     ----------------------------
     NTSALL  =        60     MTHALL  =         4
     MTHAUT  =         0     AUTFRE  =    2.0000
     NTSFRZ  =        60     KEEPSM  =         0
     AREAKP  =   10.0000     BONDRY  =    1.0000
     AREATL  =    0.0100

     SPHERE     INITS       METHOD
          1        60       FIXPVA
          2        60       FIXPVA
          3        60       FIXPVA
          4        60       FIXPVA

     ------------------------------
      FIXPVA TESSELLATION FOR PCM
         PEIFENG SU AND HUI LI
     UNIVERSITY OF NEBRASKA-LINCOLN
     ------------------------------


     -----------------------------
     INPUT FOR PCM GRADIENT METHOD
     -----------------------------
     IPCDER  =         3     IFAST   =         0
     FIXPVA GRADIENTS BY PEIFENG SU AND HUI LI
  

 PCM DIMENSIONS: MXSP=  2000, MXTS=       240, MEMORY=         33283

          ----------------
          PROPERTIES INPUT
          ----------------

     MOMENTS            FIELD           POTENTIAL          DENSITY
 IEMOM =       1   IEFLD =       0   IEPOT =       0   IEDEN =       0
 WHERE =COMASS     WHERE =NUCLEI     WHERE =NUCLEI     WHERE =NUCLEI  
 OUTPUT=BOTH       OUTPUT=BOTH       OUTPUT=BOTH       OUTPUT=BOTH    
 IEMINT=       0   IEFINT=       0                     IEDINT=       0
                                                       MORB  =       0
          EXTRAPOLATION IN EFFECT
          DIIS IN EFFECT
 ORBITAL PRINTING OPTION: NPREO=     1    40     2     1

     -------------------------------
     INTEGRAL TRANSFORMATION OPTIONS
     -------------------------------
     NWORD  =            0
     CUTOFF = 1.0E-09     MPTRAN =       0
     DIRTRF =       F     AOINTS =DUP     

          ----------------------
          INTEGRAL INPUT OPTIONS
          ----------------------
 NOPK  =       1 NORDER=       0 SCHWRZ=       F

          ----------------------
          TDDFT INPUT PARAMETERS
          ----------------------
 NSTATE=       5  IROOT=       1   MULT=       1
 MAXVEC=      50 NTRIAL=       5 CNVTOL=  1.00E-07
 TDPRP =       F  TAMMD=       F    TPA=       F
 ALPHA =       F   BETA=       F  PFREQ=    0.00    0.00
   NRAD=      48   NLEB=     110

     ------------------------------------------
     THE POINT GROUP IS C1 , NAXIS= 1, ORDER= 1
     ------------------------------------------

     DIMENSIONS OF THE SYMMETRY SUBSPACES ARE
 A   =   40

 ..... DONE SETTING UP THE RUN .....
 STEP CPU TIME =     0.06 TOTAL CPU TIME =        0.1 (    0.0 MIN)
 TOTAL WALL CLOCK TIME=        0.2 SECONDS, CPU UTILIZATION IS  33.33%


          -----------------------------
          STATIONARY POINT LOCATION RUN
          -----------------------------

 OBTAINING INITIAL HESSIAN, HESS=GUESS   
 CARTESIAN COORDINATE OPTIMIZATION USING BADGER'S RULE FORCE CONSTANT GUESS

          PARAMETERS CONTROLLING GEOMETRY SEARCH ARE
          METHOD =QA                  UPHESS =BFGS    
          NNEG   =         0          NFRZ   =         0
          NSTEP  =        50          IFOLOW =         1
          HESS   =GUESS               RESTAR =         F
          IHREP  =         0          HSSEND =         F
          NPRT   =         0          NPUN   =         0
          OPTTOL = 1.000E-04          RMIN   = 1.500E-03
          RMAX   = 1.000E-01          RLIM   = 7.000E-02
          DXMAX  = 3.000E-01          PURIFY =         F
          MOVIE  =         F          TRUPD  =         T
          TRMAX  = 5.000E-01          TRMIN  = 5.000E-02
          ITBMAT =         5          STPT   =         F
          STSTEP = 1.000E-02          PROJCT=          T

 BEGINNING GEOMETRY SEARCH POINT NSERCH=   0 ...

 COORDINATES OF ALL ATOMS ARE (ANGS)
   ATOM   CHARGE       X              Y              Z
 ------------------------------------------------------------
 O           8.0   2.0047174261  -1.2044159001  -1.2183049102
 C           6.0   1.7002977106  -0.9860871697  -0.0824484221
 H           1.0   0.6903569141  -1.1849733842   0.3065753520
 H           1.0   2.4104486992  -0.5721785358   0.6491298728

          ********************
          1 ELECTRON INTEGRALS
          ********************
 ...... END OF ONE-ELECTRON INTEGRALS ......
 STEP CPU TIME =     0.00 TOTAL CPU TIME =        0.1 (    0.0 MIN)
 TOTAL WALL CLOCK TIME=        0.2 SECONDS, CPU UTILIZATION IS  33.33%

          -------------
          GUESS OPTIONS
          -------------
          GUESS =MOREAD            NORB  =      40          NORDER=       0
          MIX   =       F          PRTMO =       F          PUNMO =       F
          TOLZ  = 1.0E-08          TOLE  = 1.0E-05
          SYMDEN=       F          PURIFY=       F

 INITIAL GUESS ORBITALS GENERATED BY MOREAD   ROUTINE.

 SYMMETRIES FOR INITIAL GUESS ORBITALS FOLLOW.  ALPHA SET(S).
     9 ORBITALS ARE OCCUPIED (    2 CORE ORBITALS).
     3=A        4=A        5=A        6=A        7=A        8=A        9=A   
    10=A       11=A       12=A       13=A       14=A       15=A       16=A   
    17=A       18=A       19=A   

 SYMMETRIES FOR INITIAL GUESS ORBITALS FOLLOW.   BETA SET(S).
     7 ORBITALS ARE OCCUPIED (    2 CORE ORBITALS).
     3=A        4=A        5=A        6=A        7=A        8=A        9=A   
    10=A       11=A       12=A       13=A       14=A       15=A       16=A   
    17=A   
 ...... END OF INITIAL ORBITAL SELECTION ......
 STEP CPU TIME =     0.00 TOTAL CPU TIME =        0.1 (    0.0 MIN)
 TOTAL WALL CLOCK TIME=        0.2 SECONDS, CPU UTILIZATION IS  31.58%

                    ----------------------
                    AO INTEGRAL TECHNOLOGY
                    ----------------------
     S,P,L SHELL ROTATED AXIS INTEGRALS, REPROGRAMMED BY
        KAZUYA ISHIMURA (IMS) AND JOSE SIERRA (SYNSTAR).
     S,P,D,L SHELL ROTATED AXIS INTEGRALS PROGRAMMED BY
        KAZUYA ISHIMURA (INSTITUTE FOR MOLECULAR SCIENCE).
     S,P,D,F,G SHELL TO TOTAL QUARTET ANGULAR MOMENTUM SUM 5,
        ERIC PROGRAM BY GRAHAM FLETCHER (ELORET AND NASA ADVANCED
        SUPERCOMPUTING DIVISION, AMES RESEARCH CENTER).
     S,P,D,F,G,L SHELL GENERAL RYS QUADRATURE PROGRAMMED BY
        MICHEL DUPUIS (PACIFIC NORTHWEST NATIONAL LABORATORY).

          --------------------
          2 ELECTRON INTEGRALS
          --------------------

 THE -PK- OPTION IS OFF, THE INTEGRALS ARE NOT IN SUPERMATRIX FORM.
 STORING   15000 INTEGRALS/RECORD ON DISK, USING 12 BYTES/INTEGRAL.
 TWO ELECTRON INTEGRAL EVALUATION REQUIRES   90567 WORDS OF MEMORY.
 II,JST,KST,LST =  1  1  1  1 NREC =         1 INTLOC =    1
 II,JST,KST,LST =  2  1  1  1 NREC =         1 INTLOC =    2
 II,JST,KST,LST =  3  1  1  1 NREC =         1 INTLOC =    7
 II,JST,KST,LST =  4  1  1  1 NREC =         1 INTLOC =   22
 II,JST,KST,LST =  5  1  1  1 NREC =         1 INTLOC =   67
 II,JST,KST,LST =  6  1  1  1 NREC =         1 INTLOC =  214
 II,JST,KST,LST =  7  1  1  1 NREC =         1 INTLOC = 1189
 II,JST,KST,LST =  8  1  1  1 NREC =         1 INTLOC = 3245
 II,JST,KST,LST =  9  1  1  1 NREC =         1 INTLOC = 5710
 II,JST,KST,LST = 10  1  1  1 NREC =         1 INTLOC = 8635
 II,JST,KST,LST = 11  1  1  1 NREC =         2 INTLOC = 5560
 II,JST,KST,LST = 12  1  1  1 NREC =         3 INTLOC = 8257
 II,JST,KST,LST = 13  1  1  1 NREC =         7 INTLOC = 6202
 II,JST,KST,LST = 14  1  1  1 NREC =         8 INTLOC = 6113
 II,JST,KST,LST = 15  1  1  1 NREC =         9 INTLOC = 7513
 II,JST,KST,LST = 16  1  1  1 NREC =        13 INTLOC = 6389
 II,JST,KST,LST = 17  1  1  1 NREC =        14 INTLOC =14715
 II,JST,KST,LST = 18  1  1  1 NREC =        16 INTLOC =10056
 TOTAL NUMBER OF NONZERO TWO-ELECTRON INTEGRALS =              323957
         22 INTEGRAL RECORDS WERE STORED ON DISK FILE  8.
  ...... END OF TWO-ELECTRON INTEGRALS .....
 STEP CPU TIME =     0.07 TOTAL CPU TIME =        0.1 (    0.0 MIN)
 TOTAL WALL CLOCK TIME=        0.4 SECONDS, CPU UTILIZATION IS  35.14%

          -------------------------------------
          ---- POLARISABLE CONTINUUM MODEL ----
          ----      UNIVERSITY OF PISA     ----
          -------------------------------------

     ----------------------------
     INPUT FOR TESSERA DEFINITION
     ----------------------------
     NTSALL  =        60     MTHALL  =         4
     MTHAUT  =         0     AUTFRE  =    2.0000
     NTSFRZ  =        60     KEEPSM  =         0
     AREAKP  =   10.0000     BONDRY  =    1.0000
     AREATL  =    0.0100

     SPHERE     INITS       METHOD
          1        60       FIXPVA
          2        60       FIXPVA
          3        60       FIXPVA
          4        60       FIXPVA

     ------------------------------
      FIXPVA TESSELLATION FOR PCM
         PEIFENG SU AND HUI LI
     UNIVERSITY OF NEBRASKA-LINCOLN
     ------------------------------


     INPUT FOR CAVITY DEFINITION 
     ---------------------------
   ATOM               COORDINATES                RADIUS       EPS
      1      2.0047     -1.2044     -1.2183      1.5000     78.3900
      2      1.7003     -0.9861     -0.0824      1.7000     78.3900
      3      0.6904     -1.1850      0.3066      1.2000     78.3900
      4      2.4104     -0.5722      0.6491      1.2000     78.3900

 MEMORY USED TO GENERATE CAVITY=    185362


 TOTAL NUMBER OF SPHERES=     4
 SPHERE           CENTER  (X,Y,Z) (A)               RADIUS (A)      AREA(A*A)
     1   2.004717426  -1.204415900  -1.218304910   1.800000000  20.395104743
     2   1.700297711  -0.986087170  -0.082448422   2.040000000  19.825030190
     3   0.690356914  -1.184973384   0.306575352   1.440000000   7.962659538
     4   2.410448699  -0.572178536   0.649129873   1.440000000   7.460334739

 TOTAL NUMBER OF TESSERAE=     104
 SURFACE AREA=    55.64312921(A**2)    CAVITY VOLUME=     41.53680039 (A**3)
 STEP CPU TIME =     0.01 TOTAL CPU TIME =        0.1 (    0.0 MIN)
 TOTAL WALL CLOCK TIME=        0.4 SECONDS, CPU UTILIZATION IS  37.84%

          THE SOLUTE IS ENCLOSED IN ONE CAVITY
 DONE CHECKING SEPARATION.
 STEP CPU TIME =     0.00 TOTAL CPU TIME =        0.1 (    0.0 MIN)
 TOTAL WALL CLOCK TIME=        0.4 SECONDS, CPU UTILIZATION IS  37.84%

 ..... DONE GENERATING CAVITY .....
 STEP CPU TIME =     0.00 TOTAL CPU TIME =        0.1 (    0.0 MIN)
 TOTAL WALL CLOCK TIME=        0.4 SECONDS, CPU UTILIZATION IS  37.84%
 NUCLEI-NUCLEAR CHARGE POLARIZATION ADJUSTMENT TO VNN=        0.0000000000

          ---------------------------
            RO-BHHLYP SCF CALCULATION
          ---------------------------

     NUCLEAR ENERGY =        31.4987736333
     MAXIT =100     NPUNCH=  2     MULT=  3
     EXTRAP=T  DAMP=F  SHIFT=F  RSTRCT=F  DIIS=T  SOSCF=F
         DENSITY MATRIX CONVERGENCE THRESHOLD=  1.00E-06
     COARSE -> FINE DFT GRID SWITCH THRESHOLD=  3.00E-04 (SWITCH IN $DFT)
                   HF -> DFT SWITCH THRESHOLD=  0.00E+00 (SWOFF IN $DFT)
     ROHF CANONICALIZATION PARAMETERS
             C-C     O-O     V-V
     ALPHA -0.5000  0.5000  1.5000
     BETA   1.5000  0.5000 -0.5000
     MEMORY REQUIRED FOR UHF/ROHF ITERS=    280917 WORDS.

     EXCHANGE FUNCTIONAL   =B88&HFX   
     CORRELATION FUNCTIONAL=LYP88     
     DFT THRESHOLD         =.862E-08
     GRID CHANGE THRESHOLD =.300E-03
 FOR AN EULER-MACLAURIN QUADRATURE USING  96 RADIAL POINTS:
 SMALLEST GAUSSIAN PRIMITIVE EXPONENT=        0.1146000000 OF TYPE -P-
 ON ATOM NUMBER   2 HAS RADIAL NORMALIZATION=  1.000000
  LARGEST GAUSSIAN PRIMITIVE EXPONENT=     7817.0000000000 OF TYPE -S-
 ON ATOM NUMBER   1 HAS RADIAL NORMALIZATION=  1.000000

 ITER EX      TOTAL ENERGY        E CHANGE  DENSITY CHANGE    DIIS ERROR
          * * *   INITIATING DIIS PROCEDURE   * * *
   1  0     -114.3412965343  -114.3412965343   0.000000400   0.000000116
   2  1     -114.3412965343    -0.0000000000   0.000000297   0.000000200
   3  2     -114.3412965343     0.0000000000   0.000000025   0.000000009

          -----------------
          DENSITY CONVERGED
          -----------------
     TIME TO FORM FOCK OPERATORS=       1.7 SECONDS (       0.6 SEC/ITER)
     TIME TO SOLVE SCF EQUATIONS=       0.0 SECONDS (       0.0 SEC/ITER)

 THE CONVERGED ORBITALS WILL UNDERGO GUEST/SAUNDERS
 CANONICALIZATION FOR SPIN-FLIP TDDFT.

 FINAL RO-BHHLYP ENERGY IS     -114.3412965343 AFTER   3 ITERATIONS
 DFT EXCHANGE + CORRELATION ENERGY =        -7.6134309959
 TOTAL ELECTRON NUMBER             =        16.0000043695

          --------------------
          SPIN SZ   =    1.000
          S-SQUARED =    2.000
          --------------------
  
   PCM ASC=     -0.0093244151
   GCAVP  =      0.0000000000
   GDISP  =      0.0000000000
   GREP   =      0.0000000000

          ------------
          EIGENVECTORS
          ------------

                      1          2          3          4          5
                  -19.7691   -10.6312    -1.2370    -0.7170    -0.5646
                     A          A          A          A          A   
    1  O  1  S    0.998706  -0.000273  -0.215628   0.101180   0.060869
    2  O  1  S    0.003211   0.000598   0.476955  -0.225506  -0.121547
    3  O  1  S    0.004396  -0.001369   0.309802  -0.278214  -0.274939
    4  O  1  X   -0.000368  -0.000124  -0.044476  -0.065354  -0.145171
    5  O  1  Y    0.000263   0.000089   0.031830   0.046970   0.104452
    6  O  1  Z    0.001371   0.000462   0.165833   0.244138   0.541957
    7  O  1  X   -0.000065   0.000187   0.003239  -0.024310  -0.044052
    8  O  1  Y    0.000047  -0.000134  -0.002393   0.017534   0.031769
    9  O  1  Z    0.000241  -0.000700  -0.012196   0.090993   0.164479
   10  O  1 XX   -0.001834   0.000079  -0.001021  -0.000768  -0.002759
   11  O  1 YY   -0.001753   0.000059  -0.004102  -0.001312  -0.002775
   12  O  1 ZZ   -0.001259   0.000056   0.018787   0.020478   0.035003
   13  O  1 XY   -0.000076   0.000010  -0.000369  -0.001458  -0.002962
   14  O  1 XZ   -0.000182   0.000005  -0.006840  -0.007054  -0.012453
   15  O  1 YZ    0.000102   0.000002   0.005531   0.004989   0.008551
   16  C  2  S   -0.000071   0.996649  -0.111321  -0.171540   0.008238
   17  C  2  S    0.000150   0.017854   0.205684   0.359237  -0.004867
   18  C  2  S   -0.000964   0.000871   0.107025   0.250936  -0.077945
   19  C  2  X   -0.000109   0.000427   0.050930  -0.037747   0.107722
   20  C  2  Y    0.000078  -0.000306  -0.036540   0.027102  -0.077019
   21  C  2  Z    0.000405  -0.001592  -0.190033   0.141214  -0.401571
   22  C  2  X   -0.000168  -0.000027  -0.004089  -0.011012  -0.002821
   23  C  2  Y    0.000120   0.000019   0.002905   0.007732   0.002165
   24  C  2  Z    0.000624   0.000100   0.015169   0.040501   0.011060
   25  C  2 XX   -0.000162  -0.005295  -0.013615   0.014756  -0.018898
   26  C  2 YY   -0.000074  -0.005065  -0.014795  -0.003043  -0.006245
   27  C  2 ZZ   -0.000577  -0.004563   0.026385  -0.005109   0.011046
   28  C  2 XY   -0.000001  -0.000146  -0.002689   0.008409  -0.007218
   29  C  2 XZ    0.000146  -0.000219  -0.013304   0.004792  -0.008614
   30  C  2 YZ   -0.000124   0.000087   0.009458   0.001610   0.002434
   31  H  3  S    0.000097   0.000627   0.027713   0.165626  -0.116437
   32  H  3  S   -0.000061  -0.000134  -0.006079   0.063894  -0.101575
   33  H  3  X    0.000055   0.000422   0.005546   0.012935  -0.005832
   34  H  3  Y    0.000015   0.000083   0.000973   0.002765  -0.001980
   35  H  3  Z   -0.000008  -0.000164  -0.002576  -0.004195  -0.000798
   36  H  4  S    0.000097   0.000626   0.027731   0.165694  -0.116293
   37  H  4  S   -0.000060  -0.000134  -0.006025   0.064262  -0.101752
   38  H  4  X   -0.000046  -0.000296  -0.003680  -0.009508   0.005656
   39  H  4  Y   -0.000021  -0.000173  -0.002315  -0.005228   0.002107
   40  H  4  Z   -0.000028  -0.000306  -0.004415  -0.008655   0.001471

                      6          7          8          9         10
                   -0.5551    -0.5075    -0.2695    -0.0710     0.1915
                     A          A          A          A          A   
    1  O  1  S   -0.000055  -0.000041  -0.000032  -0.000004  -0.108277
    2  O  1  S    0.000115   0.000120   0.000140  -0.000051   0.058879
    3  O  1  S    0.000258   0.000128  -0.000046   0.000243   1.550888
    4  O  1  X    0.251318  -0.183364   0.675268   0.119205  -0.020588
    5  O  1  Y    0.089574   0.607683   0.240547  -0.394859   0.014289
    6  O  1  Z    0.049876  -0.166167   0.134672   0.107877   0.075503
    7  O  1  X    0.068597  -0.075363   0.294048   0.098459  -0.087215
    8  O  1  Y    0.024466   0.249823   0.104761  -0.326029   0.062072
    9  O  1  Z    0.013581  -0.068308   0.058630   0.089075   0.323018
   10  O  1 XX   -0.009195   0.003850  -0.007149   0.001265  -0.075004
   11  O  1 YY    0.002348   0.009049   0.001841   0.003072  -0.072818
   12  O  1 ZZ    0.006827  -0.012886   0.005347  -0.004392  -0.057461
   13  O  1 XY    0.001904  -0.008890   0.001469  -0.003009  -0.002226
   14  O  1 XZ    0.018744  -0.006222   0.014585  -0.002109  -0.005594
   15  O  1 YZ    0.007812   0.025826   0.006076   0.008741   0.003182
   16  C  2  S    0.000049  -0.000015  -0.000012  -0.000027   0.031456
   17  C  2  S   -0.000076   0.000075   0.000056   0.000072  -0.051960
   18  C  2  S   -0.000221  -0.000034   0.000169   0.000042  -0.582120
   19  C  2  X    0.471237  -0.088291  -0.157566  -0.191001  -0.017433
   20  C  2  Y    0.167955   0.292144  -0.056174   0.632768   0.011471
   21  C  2  Z    0.094048  -0.079660  -0.031364  -0.172727   0.063514
   22  C  2  X    0.088332  -0.019886  -0.013042  -0.135434  -0.431037
   23  C  2  Y    0.031492   0.065785  -0.004641   0.447915   0.313246
   24  C  2  Z    0.017747  -0.017874  -0.002579  -0.122113   1.622000
   25  C  2 XX   -0.001231  -0.003826   0.018370   0.003029  -0.022679
   26  C  2 YY    0.000317  -0.009144  -0.004682   0.007191  -0.010949
   27  C  2 ZZ    0.000929   0.013001  -0.013660  -0.010222   0.029368
   28  C  2 XY    0.000255   0.008956  -0.003826  -0.007059  -0.008598
   29  C  2 XZ    0.002570   0.006283  -0.037461  -0.004948  -0.015986
   30  C  2 YZ    0.001060  -0.026026  -0.015615   0.020498   0.007776
   31  H  3  S   -0.205610   0.000075   0.151739  -0.000069   0.017258
   32  H  3  S   -0.139544   0.000086   0.196996  -0.000176  -0.391692
   33  H  3  X   -0.009463  -0.001296   0.003201  -0.006008   0.003881
   34  H  3  Y   -0.000893   0.004298   0.000046   0.019891   0.004932
   35  H  3  Z    0.007216  -0.001176  -0.003378  -0.005430   0.013835
   36  H  4  S    0.205709   0.000007  -0.151754  -0.000042   0.016817
   37  H  4  S    0.139695   0.000003  -0.197256   0.000042  -0.395530
   38  H  4  X   -0.004843  -0.001298   0.001176  -0.006008  -0.010494
   39  H  4  Y   -0.004201   0.004302   0.001507   0.019898  -0.000161
   40  H  4  Z   -0.010053  -0.001172   0.004236  -0.005431   0.011037

                     11         12         13         14         15
                    0.1932     0.3044     0.3265     0.3600     0.5466
                     A          A          A          A          A   
    1  O  1  S    0.012773   0.000170   0.000051   0.000053   0.068560
    2  O  1  S    0.006911  -0.000085   0.000073  -0.000075  -0.239560
    3  O  1  S   -0.236310  -0.002489  -0.001074  -0.000598  -0.627878
    4  O  1  X    0.023216  -0.091429  -0.258232   0.005279  -0.018651
    5  O  1  Y   -0.016852  -0.032654  -0.092026  -0.017994   0.013537
    6  O  1  Z   -0.087513  -0.018295  -0.051354   0.004781   0.069314
    7  O  1  X    0.061942  -0.354218  -0.418877   0.034877   0.289159
    8  O  1  Y   -0.044723  -0.126272  -0.149151  -0.116143  -0.207834
    9  O  1  Z   -0.232840  -0.071260  -0.083469   0.031511  -1.079738
   10  O  1 XX    0.005645   0.013474  -0.010262  -0.005705  -0.041875
   11  O  1 YY    0.019050  -0.003278   0.002718  -0.013625  -0.018820
   12  O  1 ZZ    0.007547  -0.009844   0.007742   0.019403  -0.020386
   13  O  1 XY   -0.005307  -0.002785   0.002166   0.013355  -0.010559
   14  O  1 XZ    0.000705  -0.027217   0.021084   0.009363  -0.004800
   15  O  1 YZ   -0.004160  -0.011337   0.008803  -0.038811  -0.003047
   16  C  2  S   -0.126266  -0.000026   0.000095  -0.000022  -0.030122
   17  C  2  S    0.251452   0.000276   0.000121   0.000239  -0.452110
   18  C  2  S    2.386114   0.000129  -0.002371  -0.000219   3.022716
   19  C  2  X   -0.071782  -0.603400   0.597671   0.249628   0.192647
   20  C  2  Y    0.051902  -0.214649   0.213230  -0.827275  -0.138066
   21  C  2  Z    0.269558  -0.120664   0.119092   0.225853  -0.717918
   22  C  2  X   -0.164149   2.098603   1.965876  -0.331586  -0.203827
   23  C  2  Y    0.119611   0.746448   0.699478   1.104072   0.147192
   24  C  2  Z    0.621695   0.415650   0.389641  -0.301995   0.764580
   25  C  2 XX   -0.004284  -0.004105   0.011004   0.001264  -0.110378
   26  C  2 YY    0.009333   0.001145  -0.002760   0.002936  -0.021849
   27  C  2 ZZ    0.013161   0.003110  -0.008089  -0.004113  -0.071656
   28  C  2 XY   -0.006609   0.000902  -0.002251  -0.002823  -0.037136
   29  C  2 XZ   -0.004392   0.008610  -0.022321  -0.001961  -0.004060
   30  C  2 YZ   -0.000714   0.003565  -0.009289   0.008207  -0.021603
   31  H  3  S   -0.068131   0.090371   0.040654   0.000065  -0.301443
   32  H  3  S   -1.607301   0.953811   2.136512   0.001261  -0.708131
   33  H  3  X    0.007338   0.031748  -0.014473   0.003648  -0.016430
   34  H  3  Y    0.004293   0.005531   0.002335  -0.012005  -0.001464
   35  H  3  Z    0.007618  -0.014889   0.024590   0.003252   0.012872
   36  H  4  S   -0.068034  -0.090300  -0.040129  -0.000020  -0.301543
   37  H  4  S   -1.610977  -0.951922  -2.133153  -0.000654  -0.709622
   38  H  4  X   -0.010462   0.021056  -0.000471   0.003635   0.008183
   39  H  4  Y   -0.002054   0.013278  -0.007671  -0.012005   0.007294
   40  H  4  Z    0.004051   0.025338  -0.027618   0.003253   0.017720

                     16         17         18         19         20
                    0.6664     0.7396     0.7672     0.8389     0.9755
                     A          A          A          A          A   
    1  O  1  S   -0.015980  -0.046321  -0.000051  -0.000029   0.005565
    2  O  1  S   -0.032351   0.167706   0.000418   0.000519   0.229567
    3  O  1  S    0.350557  -0.072948  -0.000871  -0.001050  -0.847527
    4  O  1  X    0.167292  -0.127504   0.242561  -0.626319  -0.010338
    5  O  1  Y   -0.120161   0.093178  -0.804078  -0.222946   0.007792
    6  O  1  Z   -0.625482   0.475653   0.220414  -0.124213   0.040369
    7  O  1  X   -0.326112  -0.055715  -0.388777   1.438892   0.077592
    8  O  1  Y    0.233986   0.036773   1.288016   0.512514  -0.056451
    9  O  1  Z    1.217919   0.206194  -0.351573   0.286422  -0.293025
   10  O  1 XX   -0.003334   0.049921  -0.002195   0.033198   0.070172
   11  O  1 YY    0.001248   0.071365  -0.005470  -0.008274   0.084187
   12  O  1 ZZ    0.055031  -0.137891   0.007836  -0.024640   0.045649
   13  O  1 XY   -0.006347   0.006520   0.005523  -0.006910  -0.003480
   14  O  1 XZ   -0.018796   0.064091   0.003993  -0.067306   0.009440
   15  O  1 YZ    0.011620  -0.049816  -0.016144  -0.028153  -0.010348
   16  C  2  S   -0.068868   0.059655   0.000085   0.000107   0.071126
   17  C  2  S   -0.582699  -0.964993  -0.001915  -0.001105  -1.046305
   18  C  2  S    0.354546   1.128640   0.003065   0.002654   3.286246
   19  C  2  X   -0.005064  -0.201909  -0.001013  -0.231161   0.092554
   20  C  2  Y    0.003607   0.145025   0.002466  -0.082178  -0.066525
   21  C  2  Z    0.018967   0.754754   0.000593  -0.045529  -0.346036
   22  C  2  X   -0.059986   0.082540   0.162640  -1.158856  -0.163563
   23  C  2  Y    0.043943  -0.057173  -0.538915  -0.412973   0.118837
   24  C  2  Z    0.226935  -0.305038   0.146475  -0.231117   0.617237
   25  C  2 XX   -0.076910  -0.219975   0.006066  -0.087538   0.131524
   26  C  2 YY    0.012016  -0.116983   0.015305   0.022131  -0.164128
   27  C  2 ZZ   -0.253586   0.073648  -0.021909   0.065228  -0.059908
   28  C  2 XY   -0.020342  -0.062752  -0.015318   0.018135   0.128845
   29  C  2 XZ    0.067083  -0.086807  -0.010764   0.178279   0.033909
   30  C  2 YZ   -0.070425   0.030952   0.044111   0.074419   0.057974
   31  H  3  S   -0.197199  -0.192236  -0.000559  -0.320112   0.700966
   32  H  3  S   -0.092735  -0.125662  -0.000420  -0.356996  -1.692302
   33  H  3  X    0.011181   0.033490   0.004549   0.037648  -0.121747
   34  H  3  Y   -0.007424   0.024587  -0.014782   0.003873  -0.034221
   35  H  3  Z   -0.039532   0.052895   0.004145  -0.027614   0.009327
   36  H  4  S   -0.197024  -0.193158  -0.000463   0.320155   0.701561
   37  H  4  S   -0.094503  -0.125960  -0.000286   0.355493  -1.694801
   38  H  4  X    0.010096  -0.057055   0.004357   0.019781   0.104696
   39  H  4  Y   -0.007825  -0.007690  -0.014821   0.016623   0.046473
   40  H  4  Z   -0.039780   0.034779   0.004116   0.039187   0.054512

                     21         22         23         24         25
                    1.0513     1.3815     1.4441     1.5263     1.7562
                     A          A          A          A          A   
    1  O  1  S   -0.000029  -0.000002  -0.052454   0.000002  -0.002051
    2  O  1  S   -0.000468  -0.000117  -1.811027   0.000260   0.475801
    3  O  1  S    0.001368   0.000263   4.559307  -0.000590  -0.959825
    4  O  1  X    0.498948  -0.000086  -0.021959  -0.046286  -0.032619
    5  O  1  Y    0.177871  -0.000037   0.015461   0.153304   0.023310
    6  O  1  Z    0.099665  -0.000027   0.081117  -0.041828   0.121764
    7  O  1  X   -0.952650   0.000411  -0.232274  -0.048487   0.093719
    8  O  1  Y   -0.339358   0.000168   0.167398   0.160776  -0.067400
    9  O  1  Z   -0.189394   0.000146   0.869053  -0.044130  -0.350461
   10  O  1 XX    0.031219  -0.088558  -0.319681  -0.048392   0.462529
   11  O  1 YY   -0.008120   0.104536  -0.408910  -0.115237  -0.313986
   12  O  1 ZZ   -0.023549  -0.016058  -0.604839   0.163791   0.094139
   13  O  1 XY   -0.006498   0.151179   0.056747   0.112942   0.327904
   14  O  1 XZ   -0.063930  -0.056560   0.085194   0.079135   0.045054
   15  O  1 YZ   -0.026679   0.017272  -0.033948  -0.327892   0.183279
   16  C  2  S   -0.000013  -0.000002  -0.011964   0.000004  -0.016708
   17  C  2  S    0.000269  -0.000003  -0.108292  -0.000100  -0.135757
   18  C  2  S   -0.002391  -0.000111  -1.878018   0.000683   1.156862
   19  C  2  X   -0.263031   0.000080  -0.078729  -0.015708  -0.016608
   20  C  2  Y   -0.093608   0.000002   0.056467   0.052045   0.011639
   21  C  2  Z   -0.051969   0.000025   0.293662  -0.014200   0.061370
   22  C  2  X    2.165546  -0.000831  -0.288909   0.064011  -0.025581
   23  C  2  Y    0.771465  -0.000293   0.205668  -0.212078   0.019002
   24  C  2  Z    0.431013  -0.000112   1.072822   0.057960   0.098176
   25  C  2 XX   -0.113934  -0.307478   0.213284   0.084029   0.343450
   26  C  2 YY    0.029185   0.362885  -0.052473   0.199126  -0.421820
   27  C  2 ZZ    0.084828  -0.055405  -0.101451  -0.283155  -0.088280
   28  C  2 XY    0.023729   0.524697   0.126932  -0.194935   0.328492
   29  C  2 XZ    0.232434  -0.195785   0.077408  -0.136876   0.066574
   30  C  2 YZ    0.096891   0.060110   0.019851   0.567251   0.164339
   31  H  3  S   -0.734699   0.000154   0.083683  -0.000082  -0.366916
   32  H  3  S    2.284570  -0.000716  -0.100278  -0.000176  -0.159101
   33  H  3  X    0.047167   0.091925   0.015657  -0.065556   0.052496
   34  H  3  Y   -0.001594  -0.304503  -0.001845   0.216863  -0.044748
   35  H  3  Z   -0.057862   0.083020  -0.024286  -0.059350  -0.221773
   36  H  4  S    0.734040  -0.000114   0.083360  -0.000089  -0.366221
   37  H  4  S   -2.282368   0.000699  -0.097865  -0.000176  -0.160486
   38  H  4  X    0.012797  -0.092024  -0.001690  -0.065333   0.065859
   39  H  4  Y    0.022991   0.304638  -0.008104   0.216797  -0.040018
   40  H  4  Z    0.069924  -0.083048  -0.027880  -0.059259  -0.219290

                     26         27         28         29         30
                    1.8398     1.9353     1.9613     1.9917     2.1692
                     A          A          A          A          A   
    1  O  1  S   -0.000047  -0.000007  -0.032203  -0.000183  -0.000647
    2  O  1  S    0.000100   0.000109   0.348587   0.001972   0.172263
    3  O  1  S    0.000926  -0.000003   0.194037   0.000854   0.080120
    4  O  1  X   -0.107640  -0.000003  -0.130255   0.078278  -0.073383
    5  O  1  Y   -0.038207   0.000011   0.093128   0.028629   0.052864
    6  O  1  Z   -0.020934   0.000135   0.484934   0.018277   0.273465
    7  O  1  X    0.111624  -0.000043   0.065561  -0.029221   0.031617
    8  O  1  Y    0.039744   0.000011  -0.047187  -0.010839  -0.023252
    9  O  1  Z    0.022152  -0.000103  -0.245321  -0.007351  -0.116971
   10  O  1 XX   -0.149433  -0.406525  -0.250912   0.245543   0.542137
   11  O  1 YY    0.038720   0.479973   0.365385  -0.061147  -0.308989
   12  O  1 ZZ    0.110635  -0.073404  -0.006454  -0.183889  -0.057394
   13  O  1 XY    0.030915   0.693723  -0.255831  -0.052601   0.375032
   14  O  1 XZ    0.303021  -0.259198  -0.016958  -0.503906   0.113958
   15  O  1 YZ    0.126241   0.079440  -0.155060  -0.210839   0.154683
   16  C  2  S    0.000048   0.000010   0.040952   0.000211   0.060572
   17  C  2  S    0.000022  -0.000007  -0.050380  -0.000305   0.037849
   18  C  2  S   -0.000767  -0.000023  -0.200999  -0.000696  -0.402600
   19  C  2  X   -0.224549   0.000029  -0.097652   0.113782  -0.058128
   20  C  2  Y   -0.079872   0.000042   0.069678   0.041122   0.042616
   21  C  2  Z   -0.044305   0.000097   0.362871   0.024708   0.215751
   22  C  2  X   -0.098137   0.000133  -0.082381  -0.399255  -0.018628
   23  C  2  Y   -0.034847   0.000087   0.061572  -0.141713   0.013722
   24  C  2  Z   -0.019118   0.000110   0.316506  -0.077652   0.067831
   25  C  2 XX    0.178305  -0.023918   0.183448  -0.036191  -0.057778
   26  C  2 YY   -0.044902   0.028307   0.289639   0.010895   0.737744
   27  C  2 ZZ   -0.133313  -0.004386  -0.432101   0.025451  -0.243636
   28  C  2 XY   -0.037321   0.040847   0.007410   0.007830  -0.291813
   29  C  2 XZ   -0.364070  -0.015116   0.213222   0.076769   0.139521
   30  C  2 YZ   -0.152120   0.004643  -0.175703   0.030739  -0.314186
   31  H  3  S   -0.512271   0.000108  -0.103145   0.167515   0.181264
   32  H  3  S    0.327069  -0.000024   0.034808  -0.436606  -0.072571
   33  H  3  X    0.317428  -0.084682  -0.059143   0.095926  -0.226917
   34  H  3  Y    0.161994   0.279500  -0.139324   0.172508  -0.065570
   35  H  3  Z    0.242396  -0.076717  -0.443878   0.525709   0.019487
   36  H  4  S    0.512410  -0.000168  -0.102312  -0.168623   0.181205
   37  H  4  S   -0.326963   0.000037   0.030905   0.436741  -0.072238
   38  H  4  X    0.409055   0.084220   0.274114   0.356531   0.195465
   39  H  4  Y    0.096612  -0.279911  -0.018865  -0.012752   0.084895
   40  H  4  Z   -0.098352   0.076418  -0.371775  -0.440484   0.103596

                     31         32         33         34         35
                    2.2125     2.5208     2.7208     2.7693     2.7824
                     A          A          A          A          A   
    1  O  1  S    0.000003  -0.000000  -0.000010  -0.018320   0.000102
    2  O  1  S    0.000747  -0.000051  -0.001624  -0.838226   0.003072
    3  O  1  S   -0.000098   0.000084   0.003217   2.019395  -0.008223
    4  O  1  X    0.022473   0.000021  -0.034606  -0.006816  -0.023449
    5  O  1  Y   -0.075112   0.000037   0.114816   0.004647  -0.008457
    6  O  1  Z    0.021529  -0.000022  -0.031617   0.025621  -0.005080
    7  O  1  X   -0.067224  -0.000266  -0.093843  -0.228881  -0.484637
    8  O  1  Y    0.223029   0.000120   0.310023   0.161762  -0.173632
    9  O  1  Z   -0.061452  -0.000064  -0.083255   0.847425  -0.100125
   10  O  1 XX    0.058404   0.178647   0.123156  -0.381392   0.308246
   11  O  1 YY    0.133879  -0.210552   0.293677  -0.496616  -0.076340
   12  O  1 ZZ   -0.191591   0.031881  -0.417301   0.633123  -0.230907
   13  O  1 XY   -0.130791  -0.304840  -0.288079  -0.035785  -0.063581
   14  O  1 XZ   -0.092190   0.113456  -0.202638  -0.347956  -0.623888
   15  O  1 YZ    0.383781  -0.034427   0.837895   0.266229  -0.261759
   16  C  2  S    0.000204  -0.000003  -0.000155  -0.087168   0.000307
   17  C  2  S    0.000083  -0.000013  -0.000449  -0.398060   0.001727
   18  C  2  S   -0.000982  -0.000002  -0.000004  -0.179460   0.000754
   19  C  2  X    0.103688   0.000366   0.076450  -0.249076   0.854482
   20  C  2  Y   -0.343905  -0.000006  -0.254335   0.182570   0.303279
   21  C  2  Z    0.094649   0.000103   0.070891   0.942189   0.166042
   22  C  2  X    0.064542   0.000396   0.022574  -0.102421   0.867956
   23  C  2  Y   -0.214030   0.000134  -0.075433   0.077191   0.308761
   24  C  2  Z    0.058681   0.000107   0.021330   0.395569   0.171174
   25  C  2 XX   -0.019190  -0.378854   0.121973  -0.336819   0.127748
   26  C  2 YY   -0.042698   0.447412   0.289866  -0.224293  -0.031928
   27  C  2 ZZ    0.063358  -0.068566  -0.412346   0.171189  -0.094626
   28  C  2 XY    0.043240   0.646542  -0.285240  -0.083041  -0.026517
   29  C  2 XZ    0.031592  -0.241670  -0.200014  -0.156500  -0.257260
   30  C  2 YZ   -0.129859   0.074484   0.827796   0.074062  -0.107765
   31  H  3  S    0.000506  -0.000109   0.000048   0.008378   0.034831
   32  H  3  S   -0.000311   0.000498  -0.000780  -0.337588   0.963000
   33  H  3  X   -0.192816  -0.173397   0.069812  -0.377909   0.477483
   34  H  3  Y    0.635666   0.574834  -0.234188  -0.197493   0.013288
   35  H  3  Z   -0.173524  -0.157081   0.063312  -0.307119  -0.478595
   36  H  4  S    0.000511   0.000131   0.000047   0.008134  -0.034908
   37  H  4  S   -0.000299  -0.000531  -0.000685  -0.345126  -0.960009
   38  H  4  X   -0.191117   0.173757   0.071250   0.496768   0.181882
   39  H  4  Y    0.636029  -0.575254  -0.232694   0.115454   0.221931
   40  H  4  Z   -0.173206   0.157228   0.063369  -0.128215   0.611244

                     36         37         38         39         40
                    2.9815     3.2169     3.4943     4.0076     4.2643
                     A          A          A          A          A   
    1  O  1  S   -0.056780  -0.009765   0.000018   0.045381  -0.543386
    2  O  1  S   -0.055301   0.453458   0.000051   0.050086  -0.064107
    3  O  1  S    1.631381  -0.518641   0.000197  -0.120560   4.854751
    4  O  1  X   -0.170649  -0.061014   0.143259  -0.091972   0.067874
    5  O  1  Y    0.122365   0.043657   0.051125   0.066083  -0.048703
    6  O  1  Z    0.636380   0.227329   0.028847   0.343586  -0.253305
    7  O  1  X   -0.220886   0.041379   0.236602  -0.053921  -0.172915
    8  O  1  Y    0.158263  -0.029760   0.084328   0.038863   0.124241
    9  O  1  Z    0.823281  -0.154681   0.047260   0.201659   0.645910
   10  O  1 XX   -0.456293  -0.122812  -0.254727   0.197082  -1.732803
   11  O  1 YY   -0.503281   0.117920   0.065161   0.086875  -1.780324
   12  O  1 ZZ    0.903166   0.089697   0.189873   0.365353  -1.761727
   13  O  1 XY   -0.088932  -0.109427   0.053101   0.029315   0.020598
   14  O  1 XZ   -0.453411  -0.046502   0.519210  -0.066005   0.004947
   15  O  1 YZ    0.323865  -0.034593   0.216626   0.076051   0.009804
   16  C  2  S    0.025680  -0.121326   0.000260  -0.481710  -0.062361
   17  C  2  S   -1.106221   0.828567  -0.001593   2.537240   0.257323
   18  C  2  S   -1.266514   1.164607  -0.001015   0.919936  -1.275879
   19  C  2  X   -0.236767  -0.184122   0.827838  -0.012141   0.054911
   20  C  2  Y    0.169801   0.132714   0.294955   0.008970  -0.039325
   21  C  2  Z    0.883401   0.690459   0.164979   0.045787  -0.204808
   22  C  2  X    0.033668   0.000076  -0.184176  -0.023716  -0.205452
   23  C  2  Y   -0.023822   0.000200  -0.065645   0.016909   0.146910
   24  C  2  Z   -0.124659   0.000871  -0.036789   0.088487   0.765056
   25  C  2 XX    0.330712   0.681245  -0.627819  -1.957440  -0.352921
   26  C  2 YY    0.439039  -0.510862   0.161603  -1.456127  -0.150003
   27  C  2 ZZ   -0.926381  -0.573674   0.468426  -2.005543   0.168723
   28  C  2 XY    0.056757   0.557515   0.130928  -0.188954  -0.119031
   29  C  2 XZ    0.424428   0.296044   1.283440   0.066165  -0.151760
   30  C  2 YZ   -0.321274   0.124590   0.534752  -0.182289   0.048557
   31  H  3  S    0.075713  -0.548707   0.766608   0.433009   0.195041
   32  H  3  S    0.375527  -0.470387   0.029017  -0.227422  -0.091458
   33  H  3  X    0.380909  -0.744365   0.856833   0.389210   0.038441
   34  H  3  Y    0.180796  -0.077933   0.221653   0.079494  -0.015283
   35  H  3  Z    0.241028   0.538322  -0.136300  -0.139574  -0.098518
   36  H  4  S    0.075843  -0.549396  -0.766478   0.432362   0.194895
   37  H  4  S    0.375025  -0.470959  -0.028398  -0.227459  -0.090781
   38  H  4  X   -0.464974   0.396212   0.700771  -0.278338   0.015519
   39  H  4  Y   -0.120566   0.328492   0.333182  -0.158281  -0.023391
   40  H  4  Z    0.072620   0.765871   0.446219  -0.272352  -0.102875
 ...... END OF ROHF CALCULATION ......
 STEP CPU TIME =     1.80 TOTAL CPU TIME =        1.9 (    0.0 MIN)
 TOTAL WALL CLOCK TIME=        4.2 SECONDS, CPU UTILIZATION IS  45.75%

     ---------------------------------------------------------------------
     PROPERTIES FOR THE BHHLYP   DFT FUNCTIONAL (ROHF TYPE) DENSITY MATRIX
     ---------------------------------------------------------------------

          ---------------------------------------
          MULLIKEN AND LOWDIN POPULATION ANALYSES
          ---------------------------------------

     ATOMIC MULLIKEN POPULATION IN EACH MOLECULAR ORBITAL

                      1          2          3          4          5

                  2.000000   2.000000   2.000000   2.000000   2.000000

    1             2.000370  -0.000366   1.438040   0.586690   1.184804
    2            -0.000367   2.000225   0.557075   0.951143   0.538369
    3            -0.000002   0.000071   0.002425   0.230801   0.138474
    4            -0.000001   0.000071   0.002460   0.231365   0.138353

                      6          7          8          9

                  2.000000   2.000000   1.000000   1.000000

    1             0.314713   1.552394   0.790213   0.190196
    2             1.030625   0.446046   0.048572   0.799933
    3             0.327163   0.000780   0.080584   0.004935
    4             0.327499   0.000781   0.080631   0.004936

     ATOMIC SPIN POPULATION (ALPHA MINUS BETA)
       ATOM         MULL.POP.                    LOW.POP.
    1 O             0.980409                     1.013164
    2 C             0.848506                     0.812184
    3 H             0.085519                     0.087678
    4 H             0.085567                     0.086974

               ----- POPULATIONS IN EACH AO -----
                             MULLIKEN      LOWDIN
              1  O  1  S      1.99856     1.97511
              2  O  1  S      0.97370     0.71845
              3  O  1  S      0.80031     0.45983
              4  O  1  X      0.90634     0.84477
              5  O  1  Y      1.25400     1.18105
              6  O  1  Z      1.17567     1.07637
              7  O  1  X      0.26172     0.33039
              8  O  1  Y      0.39884     0.46980
              9  O  1  Z      0.25662     0.39028
             10  O  1 XX      0.00089     0.17364
             11  O  1 YY     -0.00282     0.17095
             12  O  1 ZZ      0.01503     0.19600
             13  O  1 XY      0.00100     0.00242
             14  O  1 XZ      0.00787     0.01696
             15  O  1 YZ      0.00931     0.02196
             16  C  2  S      1.99570     1.97233
             17  C  2  S      0.70623     0.37143
             18  C  2  S      0.48408     0.32210
             19  C  2  X      0.90400     0.75255
             20  C  2  Y      0.87577     0.78186
             21  C  2  Z      0.81108     0.69849
             22  C  2  X      0.15438     0.28123
             23  C  2  Y      0.31790     0.35621
             24  C  2  Z      0.05046     0.18376
             25  C  2 XX      0.01432     0.16025
             26  C  2 YY     -0.01120     0.10788
             27  C  2 ZZ      0.02820     0.20653
             28  C  2 XY      0.00370     0.00735
             29  C  2 XZ      0.01821     0.04581
             30  C  2 YZ      0.01877     0.04674
             31  H  3  S      0.47959     0.44802
             32  H  3  S      0.28792     0.34026
             33  H  3  X      0.00951     0.02605
             34  H  3  Y      0.00533     0.01642
             35  H  3  Z      0.00287     0.00909
             36  H  4  S      0.47973     0.44641
             37  H  4  S      0.28864     0.34012
             38  H  4  X      0.00520     0.01573
             39  H  4  Y      0.00644     0.01897
             40  H  4  Z      0.00608     0.01645

          ----- MULLIKEN ATOMIC OVERLAP POPULATIONS -----
          (OFF-DIAGONAL ELEMENTS NEED TO BE MULTIPLIED BY 2)

             1           2           3           4

    1    7.7873731
    2    0.3228260   5.3111687
    3   -0.0265546   0.3687552   0.4720418
    4   -0.0265902   0.3688696  -0.0290103   0.4728251

          TOTAL MULLIKEN AND LOWDIN ATOMIC POPULATIONS
       ATOM         MULL.POP.    CHARGE          LOW.POP.     CHARGE
    1 O             8.057054   -0.057054         8.027970   -0.027970
    2 C             6.371619   -0.371619         6.294507   -0.294507
    3 H             0.785232    0.214768         0.839834    0.160166
    4 H             0.786094    0.213906         0.837690    0.162310

          -------------------------------
          BOND ORDER AND VALENCE ANALYSIS     BOND ORDER THRESHOLD=0.050
          -------------------------------

                   BOND                       BOND                       BOND
  ATOM PAIR DIST  ORDER      ATOM PAIR DIST  ORDER      ATOM PAIR DIST  ORDER
    1   2  1.196  1.499        1   3  2.013  0.058        1   4  2.013  0.058
    2   3  1.100  0.876        2   4  1.100  0.876

                       TOTAL       BONDED        FREE
      ATOM            VALENCE     VALENCE     VALENCE
    1 O                 2.276       1.615       0.661
    2 C                 3.892       3.250       0.642
    3 H                 0.936       0.929       0.007
    4 H                 0.936       0.930       0.007

          -----------------------------------------
          ATOMIC SPIN DENSITY AT THE NUCLEUS (A.U.)
          -----------------------------------------
                            SPIN DENS    ALPHA DENS     BETA DENS
    1  O            8.0     0.0000001     147.61578     147.61578
    2  C            6.0     0.0000000      59.58551      59.58551
    3  H            1.0     0.0412517       0.21284       0.17159
    4  H            1.0     0.0412594       0.21291       0.17165

    **** A SOLVENT MODEL IS IN USE IN THIS RUN ****
 ELECTRICAL PROPERTIES (MOMENTS, DENSITY, FIELD/GRADIENT, AND/OR POTENTIAL)
 ARE COMPUTED USING THE SOLVATED SYSTEM'S DENSITY MATRIX, BUT
 ONLY WITH AO INTEGRAL CONTRIBUTIONS FROM THE QUANTUM SOLUTE.
 THE ONE EXCEPTION IS THE DIPOLE, WHICH IS ALSO PRINTED FOR THE TOTAL SYSTEM.

          ----------------------------
          SOLUTE ELECTROSTATIC MOMENTS
          ----------------------------

 POINT   1           X           Y           Z (BOHR)    CHARGE
                 3.500677   -2.069685   -1.228700       -0.00 (A.U.)
         DX          DY          DZ         /D/  (DEBYE)
    -0.411944    0.295777    1.537604    1.619076

          ----------------------------
          SYSTEM ELECTROSTATIC MOMENTS
          ----------------------------

 POINT   1           X           Y           Z (BOHR)    CHARGE
                 3.500677   -2.069685   -1.228700       -0.00 (A.U.)
         DX          DY          DZ         /D/  (DEBYE)
    -0.411944    0.295777    1.537604    1.619076
 INCLUDING PCM SURFACE CHARGES, TOTAL CHARGE=   -0.009324, AND TOTAL DIPOLE IS
         DX          DY          DZ         /D/  (DEBYE)
    -0.000373   -0.012822   -0.015707    0.020279
 ...... END OF PROPERTY EVALUATION ......
 STEP CPU TIME =     0.00 TOTAL CPU TIME =        1.9 (    0.0 MIN)
 TOTAL WALL CLOCK TIME=        4.2 SECONDS, CPU UTILIZATION IS  45.75%

 -----------------------------------------------------------------------
                    SFDFT CALCULATION FOR SCFTYP=ROHF
                          CODED BY NORIYUKI MINEZAWA
 -----------------------------------------------------------------------
  
 -TDDFT RUNTIME PARAMETERS-
    TRIPLET  = F
    NONEQ    = F
    NSTATE   =                    5
    IROOT    =                    1
    NTRIAL   =                    5
    MAXVEC   =                   50
    ILENG    =                  200
    MAXGRD   =                19970
    NRAD     =                   48
    NLEB     =                  110
 SOLVENT SPECTRUM MODELED BY EQUILIBRIUM TDDFT/PCM
 EPS=  78.390
  
 FOR AN EULER-MACLAURIN QUADRATURE USING  48 RADIAL POINTS:
 SMALLEST GAUSSIAN PRIMITIVE EXPONENT=        0.1146000000 OF TYPE -P-
 ON ATOM NUMBER   2 HAS RADIAL NORMALIZATION=  1.000000
  LARGEST GAUSSIAN PRIMITIVE EXPONENT=     7817.0000000000 OF TYPE -S-
 ON ATOM NUMBER   1 HAS RADIAL NORMALIZATION=  0.999999
  

          -----------------------------------------------
          SF-DFT INPUT PARAMETERS (EXTRACTED FROM $TDDFT)
          -----------------------------------------------

     NSTATE=       5  IROOT=       1 MAXVEC=      50
     NTRIAL=       5 CNVTOL=  1.00E-07

     ********** NOTE: THE CURRENT STATUS OF SFDFT **********

     (1) UHF AND ROHF REFERENCES ARE AVAILABLE.
     (2) COLLINEAR APPROXIMATION FOR XC FUNCTIONALS.
     (3) NEITHER LC NOR CAMB3LYP IS SUPPORTED.
     (4) INCORRECT ANALYTIC GRADIENT FOR META-GGA.
     (5) SOLVENT MODELS (EFP1 AND/OR C-PCM) ARE AVAILABLE.

     *******************************************************

 MEMORY REQUIRED FOR SFDFT   ITERATIONS IS    356649 WORDS.


 STATE      ITERATION      ENERGY         RESIDUE NORM
   1            1     -114.4487287538     0.08770374
   2            1     -114.3153899599     0.05785046
   3            1     -114.2977330339     0.07725605
   4            1     -114.1551374166     0.08285963
   5            1     -114.0369383034     0.10066519

 STATE      ITERATION      ENERGY         RESIDUE NORM
   1            2     -114.4564875587     0.00523901
   2            2     -114.3179585143     0.00461256
   3            2     -114.3029088581     0.01317096
   4            2     -114.1645826020     0.00814983
   5            2     -114.0724720513     0.02920838

 STATE      ITERATION      ENERGY         RESIDUE NORM
   1            3     -114.4565116443     0.00029209
   2            3     -114.3179768964     0.00045148
   3            3     -114.3030488456     0.00177549
   4            3     -114.1646925864     0.00120003
   5            3     -114.0734754509     0.00466184

 STATE      ITERATION      ENERGY         RESIDUE NORM
   1            4     -114.4565117042     0.00001295
   2            4     -114.3179770452     0.00003516
   3            4     -114.3030519880     0.00029660
   4            4     -114.1646943492     0.00010339
   5            4     -114.0735061909     0.00047413

 STATE      ITERATION      ENERGY         RESIDUE NORM
   1            5     -114.4565117043     0.00000074
   2            5     -114.3179770464     0.00000485
   3            5     -114.3030520478     0.00003882
   4            5     -114.1646943585     0.00001140
   5            5     -114.0795409197     0.14544546

 STATE      ITERATION      ENERGY         RESIDUE NORM
   1            6     -114.4565117043     0.00000003
   2            6     -114.3179770464     0.00000050
   3            6     -114.3030520486     0.00000269
   4            6     -114.1646943588     0.00000669
   5            6     -114.1026807778     0.15876904

 STATE      ITERATION      ENERGY         RESIDUE NORM
   1            7     -114.4565117043     0.00000000
   2            7     -114.3179770464     0.00000006
   3            7     -114.3030520486     0.00000023
   4            7     -114.1646943589     0.00000217
   5            7     -114.1374784700     0.03306046

 STATE      ITERATION      ENERGY         RESIDUE NORM
   1            8     -114.4565117043     0.00000000
   2            8     -114.3179770464     0.00000000
   3            8     -114.3030520486     0.00000002
   4            8     -114.1646943589     0.00000017
   5            8     -114.1382930641     0.00255507

 STATE      ITERATION      ENERGY         RESIDUE NORM
   1            9     -114.4565117043     0.00000000
   2            9     -114.3179770464     0.00000000
   3            9     -114.3030520486     0.00000000
   4            9     -114.1646943589     0.00000003
   5            9     -114.1382978226     0.00047272

 STATE      ITERATION      ENERGY         RESIDUE NORM
   1           10     -114.4565117043     0.00000000
   2           10     -114.3179770464     0.00000000
   3           10     -114.3030520486     0.00000000
   4           10     -114.1646943589     0.00000000
   5           10     -114.1382980695     0.00007526

 STATE      ITERATION      ENERGY         RESIDUE NORM
   1           11     -114.4565117043     0.00000000
   2           11     -114.3179770464     0.00000000
   3           11     -114.3030520486     0.00000000
   4           11     -114.1646943589     0.00000000
   5           11     -114.1382980756     0.00001236

 STATE      ITERATION      ENERGY         RESIDUE NORM
   1           12     -114.4565117043     0.00000000
   2           12     -114.3179770464     0.00000000
   3           12     -114.3030520486     0.00000000
   4           12     -114.1646943589     0.00000000
   5           12     -114.1382980758     0.00000334

 STATE      ITERATION      ENERGY         RESIDUE NORM
   1           13     -114.4565117043     0.00000000
   2           13     -114.3179770464     0.00000000
   3           13     -114.3030520486     0.00000000
   4           13     -114.1646943589     0.00000000
   5           13     -114.1382980758     0.00000062

 STATE      ITERATION      ENERGY         RESIDUE NORM
   1           14     -114.4565117043     0.00000000
   2           14     -114.3179770464     0.00000000
   3           14     -114.3030520486     0.00000000
   4           14     -114.1646943589     0.00000000
   5           14     -114.1382980758     0.00000006
  
   -----------------------------------  
     SPIN-FLIP CALCULATION CONVERGED
   -----------------------------------  
 NUMBER OF USED VECTORS / MAX =  51 / 250
 NUMBER OF ITERATIONS   / MAX =  14 / 100
 NUMBER OF SINGLE EXCITATIONS =   297
 NUMBER OF ATOMIC ORBITALS    =  40

     -----------------------------------
     ALPHA -> BETA SPIN-FLIP EXCITATIONS
     -----------------------------------

 STATE #   1  ENERGY =   -3.135164 EV
 SYMMETRY OF STATE   =    A   
 S-SQUARED           =    0.0516
        DRF    COEF       OCC(A)    VIR(B)
        ---    ----       ------    ------
          7  0.200697         7  ->     8
          9  0.974154         9  ->     8
         54  0.079723         9  ->    13

 STATE #   2  ENERGY =    0.634556 EV
 SYMMETRY OF STATE   =    A   
 S-SQUARED           =    1.6323
        DRF    COEF       OCC(A)    VIR(B)
        ---    ----       ------    ------
          8  0.335179         8  ->     8
         18  0.940481         9  ->     9

 STATE #   3  ENERGY =    1.040685 EV
 SYMMETRY OF STATE   =    A   
 S-SQUARED           =    0.3757
        DRF    COEF       OCC(A)    VIR(B)
        ---    ----       ------    ------
          6  0.056710         6  ->     8
          8 -0.937088         8  ->     8
         18  0.335390         9  ->     9

 STATE #   4  ENERGY =    4.805590 EV
 SYMMETRY OF STATE   =    A   
 S-SQUARED           =    0.9665
        DRF    COEF       OCC(A)    VIR(B)
        ---    ----       ------    ------
          7  0.968540         7  ->     8
          9 -0.184247         9  ->     8
         54 -0.140040         9  ->    13

 STATE #   5  ENERGY =    5.523869 EV
 SYMMETRY OF STATE   =    A   
 S-SQUARED           =    1.0035
        DRF    COEF       OCC(A)    VIR(B)
        ---    ----       ------    ------
          4  0.233808         4  ->     8
          5 -0.970084         5  ->     8

          ----------------------------
          SUMMARY OF SPIN-FLIP RESULTS
          ----------------------------

   STATE             ENERGY     EXCITATION     S-SQUARED

 1 NEGATIVE ROOT(S) FOUND.
   1  A         -114.4565117043   -3.135        0.0516
   0  A         -114.3412965343    0.000               (REFERENCE STATE)
   2  A         -114.3179770464    0.635        1.6323
   3  A         -114.3030520486    1.041        0.3757
   4  A         -114.1646943589    4.806        0.9665
   5  A         -114.1382980758    5.524        1.0035
  
 SELECTING EXCITED STATE IROOT=   1 AT E=     -114.4565117043
 AS THE STATE OF INTEREST.

 ..... DONE WITH SFDFT   EXCITATION ENERGIES .....
 STEP CPU TIME =     0.20 TOTAL CPU TIME =        2.1 (    0.0 MIN)
 TOTAL WALL CLOCK TIME=        4.5 SECONDS, CPU UTILIZATION IS  47.98%

 -----------------------------------------------------------------------
                   SF-DFT ENERGY GRADIENT CALCULATION
 -----------------------------------------------------------------------

    -------------------------
       START Z-VECTOR LOOP
    -------------------------
 INITIAL ERROR =    2.583E-01 / 1.000E-10
 ITER# 1 ERROR =    1.068E-02 / 1.000E-10
 ITER# 2 ERROR =    2.360E-03 / 1.000E-10
 ITER# 3 ERROR =    4.589E-04 / 1.000E-10
 ITER# 4 ERROR =    2.248E-05 / 1.000E-10
 ITER# 5 ERROR =    7.894E-07 / 1.000E-10
 ITER# 6 ERROR =    1.397E-08 / 1.000E-10
 ITER# 7 ERROR =    3.769E-10 / 1.000E-10
 ITER# 8 ERROR =    2.105E-10 / 1.000E-10
 ITER# 9 ERROR =    4.134E-11 / 1.000E-10
    -------------------------
        Z-VECTOR CONVERGED          
    -------------------------
 ..... DONE WITH SF-DFT EXCITED STATE RESPONSE AND DENSITY MATRIX .....
 STEP CPU TIME =     5.62 TOTAL CPU TIME =        7.8 (    0.1 MIN)
 TOTAL WALL CLOCK TIME=       10.1 SECONDS, CPU UTILIZATION IS  76.98%

     ------------------------------------------
     PROPERTIES FOR THE BHHLYP   DFT FUNCTIONAL
      USING THE RELAXED DENSITY OF EXCITED STATE    1
     ------------------------------------------

          ---------------------------------------
          MULLIKEN AND LOWDIN POPULATION ANALYSES
          ---------------------------------------

     ATOMIC MULLIKEN POPULATION IN EACH MOLECULAR ORBITAL

                      1          2          3          4          5

                  2.000000   2.000000   2.000000   2.000000   2.000000

    1             2.000370  -0.000366   1.438040   0.586690   1.184804
    2            -0.000367   2.000225   0.557075   0.951143   0.538369
    3            -0.000002   0.000071   0.002425   0.230801   0.138474
    4            -0.000001   0.000071   0.002460   0.231365   0.138353

                      6          7          8          9

                  2.000000   2.000000   1.000000   1.000000

    1             0.314713   1.552394   0.790213   0.190196
    2             1.030625   0.446046   0.048572   0.799933
    3             0.327163   0.000780   0.080584   0.004935
    4             0.327499   0.000781   0.080631   0.004936

     ATOMIC SPIN POPULATION (ALPHA MINUS BETA)
       ATOM         MULL.POP.                    LOW.POP.
    1 O            -0.147509                    -0.133335
    2 C             0.141142                     0.120397
    3 H             0.003175                     0.006490
    4 H             0.003191                     0.006447

               ----- POPULATIONS IN EACH AO -----
                             MULLIKEN      LOWDIN
              1  O  1  S      1.99856     1.97483
              2  O  1  S      0.94908     0.70241
              3  O  1  S      0.80738     0.46442
              4  O  1  X      1.32313     1.24287
              5  O  1  Y      0.96472     0.88697
              6  O  1  Z      1.11759     1.02744
              7  O  1  X      0.46520     0.54815
              8  O  1  Y      0.38423     0.44995
              9  O  1  Z      0.27070     0.40491
             10  O  1 XX     -0.00346     0.17118
             11  O  1 YY     -0.00137     0.17211
             12  O  1 ZZ      0.01328     0.19635
             13  O  1 XY      0.00120     0.00166
             14  O  1 XZ      0.00734     0.01617
             15  O  1 YZ      0.01023     0.01479
             16  C  2  S      1.99610     1.97314
             17  C  2  S      0.75873     0.39154
             18  C  2  S      0.47448     0.31658
             19  C  2  X      0.91783     0.75739
             20  C  2  Y      0.60707     0.52593
             21  C  2  Z      0.85511     0.72199
             22  C  2  X      0.09805     0.25124
             23  C  2  Y      0.12874     0.20369
             24  C  2  Z      0.04246     0.17598
             25  C  2 XX      0.01163     0.16625
             26  C  2 YY     -0.01068     0.11250
             27  C  2 ZZ      0.02693     0.20854
             28  C  2 XY      0.00324     0.00550
             29  C  2 XZ      0.03952     0.08960
             30  C  2 YZ      0.01783     0.03685
             31  H  3  S      0.51521     0.49395
             32  H  3  S      0.33365     0.36009
             33  H  3  X      0.00980     0.02798
             34  H  3  Y      0.00163     0.00603
             35  H  3  Z      0.00216     0.00812
             36  H  4  S      0.51522     0.49147
             37  H  4  S      0.33389     0.35969
             38  H  4  X      0.00543     0.01691
             39  H  4  Y      0.00274     0.00866
             40  H  4  Z      0.00541     0.01617

          ----- MULLIKEN ATOMIC OVERLAP POPULATIONS -----
          (OFF-DIAGONAL ELEMENTS NEED TO BE MULTIPLIED BY 2)

             1           2           3           4

    1    7.7365157
    2    0.6989743   4.5739533
    3   -0.0638314   0.3471960   0.6678906
    4   -0.0638402   0.3469242  -0.0888085   0.6684116

          TOTAL MULLIKEN AND LOWDIN ATOMIC POPULATIONS
       ATOM         MULL.POP.    CHARGE          LOW.POP.     CHARGE
    1 O             8.307818   -0.307818         8.274212   -0.274212
    2 C             5.967048    0.032952         5.936720    0.063280
    3 H             0.862447    0.137553         0.896173    0.103827
    4 H             0.862687    0.137313         0.892894    0.107106

          -------------------------------
          BOND ORDER AND VALENCE ANALYSIS     BOND ORDER THRESHOLD=0.050
          -------------------------------

                   BOND                       BOND                       BOND
  ATOM PAIR DIST  ORDER      ATOM PAIR DIST  ORDER      ATOM PAIR DIST  ORDER
    1   2  1.196  2.164        2   3  1.100  0.881        2   4  1.100  0.881

                       TOTAL       BONDED        FREE
      ATOM            VALENCE     VALENCE     VALENCE
    1 O                 2.111       2.196      -0.085
    2 C                 3.930       3.926       0.004
    3 H                 0.921       0.890       0.030
    4 H                 0.921       0.890       0.031

          -----------------------------------------
          ATOMIC SPIN DENSITY AT THE NUCLEUS (A.U.)
          -----------------------------------------
                            SPIN DENS    ALPHA DENS     BETA DENS
    1  O            8.0    -0.0005771     147.51908     147.51966
    2  C            6.0    -0.0000260      59.69651      59.69653
    3  H            1.0     0.0044289       0.21184       0.20741
    4  H            1.0     0.0044824       0.21187       0.20739

    **** A SOLVENT MODEL IS IN USE IN THIS RUN ****
 ELECTRICAL PROPERTIES (MOMENTS, DENSITY, FIELD/GRADIENT, AND/OR POTENTIAL)
 ARE COMPUTED USING THE SOLVATED SYSTEM'S DENSITY MATRIX, BUT
 ONLY WITH AO INTEGRAL CONTRIBUTIONS FROM THE QUANTUM SOLUTE.
 THE ONE EXCEPTION IS THE DIPOLE, WHICH IS ALSO PRINTED FOR THE TOTAL SYSTEM.

          ----------------------------
          SOLUTE ELECTROSTATIC MOMENTS
          ----------------------------

 POINT   1           X           Y           Z (BOHR)    CHARGE
                 3.500677   -2.069685   -1.228700        0.00 (A.U.)
         DX          DY          DZ         /D/  (DEBYE)
    -0.794038    0.568816    2.952759    3.110118

          ----------------------------
          SYSTEM ELECTROSTATIC MOMENTS
          ----------------------------

 POINT   1           X           Y           Z (BOHR)    CHARGE
                 3.500677   -2.069685   -1.228700        0.00 (A.U.)
         DX          DY          DZ         /D/  (DEBYE)
    -0.794038    0.568816    2.952759    3.110118
 INCLUDING PCM SURFACE CHARGES, TOTAL CHARGE=   -0.009324, AND TOTAL DIPOLE IS
         DX          DY          DZ         /D/  (DEBYE)
    -0.382467    0.260217    1.399448    1.473923
 ...... END OF PROPERTY EVALUATION ......
 STEP CPU TIME =     0.00 TOTAL CPU TIME =        7.8 (    0.1 MIN)
 TOTAL WALL CLOCK TIME=       10.1 SECONDS, CPU UTILIZATION IS  76.98%

 .... DONE WITH PCM CONTRIBUTION TO GRADIENT ....
 STEP CPU TIME =     0.15 TOTAL CPU TIME =        7.9 (    0.1 MIN)
 TOTAL WALL CLOCK TIME=       10.2 SECONDS, CPU UTILIZATION IS  77.32%

 BEGINNING ONE ELECTRON GRADIENT...
 ..... END OF 1-ELECTRON GRADIENT ......
 STEP CPU TIME =     0.00 TOTAL CPU TIME =        7.9 (    0.1 MIN)
 TOTAL WALL CLOCK TIME=       10.2 SECONDS, CPU UTILIZATION IS  77.32%

          ----------------------
          GRADIENT OF THE ENERGY
          ----------------------
 MEMORY FOR GRID POINT CONTRIBUTIONS TO THE SF-DFT GRADIENT=   2029955 WORDS.
 STEP CPU TIME =     4.61 TOTAL CPU TIME =       12.5 (    0.2 MIN)
 TOTAL WALL CLOCK TIME=       15.0 SECONDS, CPU UTILIZATION IS  83.36%

 THE MINIMUM MEMORY REQUIRED FOR THIS RUN IS      88139 WORDS.
 USING    1063659 WORDS FOR 2E- DERIVATIVE INTEGRAL CONTRIBUTIONS.
 THE COARSE/FINE SCHWARZ SCREENINGS SKIPPED            0/           0 BLOCKS.
 THE NUMBER OF GRADIENT INTEGRAL BLOCKS COMPUTED WAS     14202
 ...... END OF 2-ELECTRON GRADIENT ......
 STEP CPU TIME =     0.13 TOTAL CPU TIME =       12.7 (    0.2 MIN)
 TOTAL WALL CLOCK TIME=       15.1 SECONDS, CPU UTILIZATION IS  83.50%

          NSERCH=  0     ENERGY=    -114.4565117

                                 -----------------------
                                 GRADIENT (HARTREE/BOHR)
                                 -----------------------
[...]
   31  H  3  S   -0.000097  -0.000623   0.027571   0.165682   0.116381
   32  H  3  S    0.000064   0.000136  -0.006216   0.063909   0.101731
   33  H  3  X   -0.000057  -0.000420   0.005531   0.012946   0.005829
   34  H  3  Y   -0.000015  -0.000081   0.000963   0.002752   0.001969
   35  H  3  Z    0.000009   0.000166  -0.002595  -0.004251   0.000759
   36  H  4  S   -0.000097  -0.000623   0.027581   0.165709   0.116068
   37  H  4  S    0.000062   0.000136  -0.006161   0.064327   0.101838
   38  H  4  X    0.000046   0.000293  -0.003656  -0.009489  -0.005631
   39  H  4  Y    0.000022   0.000172  -0.002311  -0.005237  -0.002106
   40  H  4  Z    0.000029   0.000307  -0.004427  -0.008712  -0.001500

                      6          7          8          9         10
                   -0.5547    -0.5079    -0.2693    -0.0705     0.1914
                     A          A          A          A          A   
    1  O  1  S   -0.000078   0.000036   0.000032  -0.000011  -0.106945
    2  O  1  S    0.000157  -0.000148  -0.000132  -0.000071   0.053879
    3  O  1  S    0.000386  -0.000001   0.000021   0.000368   1.548662
    4  O  1  X    0.253737   0.183263  -0.673923   0.119386  -0.026568
    5  O  1  Y    0.090378  -0.607352  -0.240043  -0.395444   0.018714
    6  O  1  Z    0.050117   0.166058  -0.134337   0.108039   0.098215
    7  O  1  X    0.069479   0.075200  -0.293872   0.098778  -0.101508
    8  O  1  Y    0.024768  -0.249307  -0.104691  -0.327049   0.072431
    9  O  1  Z    0.013686   0.068197  -0.058579   0.089384   0.377026
   10  O  1 XX   -0.009252  -0.003874   0.007136   0.001250  -0.073121
   11  O  1 YY    0.002362  -0.009086  -0.001834   0.003060  -0.075144
   12  O  1 ZZ    0.006852   0.012898  -0.005333  -0.004408  -0.056973
   13  O  1 XY    0.001917   0.008906  -0.001467  -0.003012  -0.000496
   14  O  1 XZ    0.018868   0.006233  -0.014556  -0.002113  -0.005550
   15  O  1 YZ    0.007858  -0.025877  -0.006064   0.008755   0.004303
   16  C  2  S    0.000029   0.000011   0.000013  -0.000023   0.068910
   17  C  2  S   -0.000037  -0.000066  -0.000060   0.000049  -0.127205
   18  C  2  S   -0.000141  -0.000047  -0.000126  -0.000000  -1.288157
   19  C  2  X    0.470682   0.088521   0.158308  -0.190873   0.006000
   20  C  2  Y    0.167805  -0.292890   0.056436   0.632279  -0.005508
   21  C  2  Z    0.094123   0.079888   0.031494  -0.172587  -0.024587
   22  C  2  X    0.088444   0.019870   0.013793  -0.135798  -0.359353
   23  C  2  Y    0.031532  -0.065766   0.004908   0.448921   0.261242
   24  C  2  Z    0.017788   0.017901   0.002728  -0.122326   1.351738
   25  C  2 XX   -0.001185   0.003830  -0.018469   0.003049  -0.020129
   26  C  2 YY    0.000311   0.009159   0.004707   0.007242  -0.013370
   27  C  2 ZZ    0.000898  -0.013017   0.013735  -0.010305   0.024048
   28  C  2 XY    0.000249  -0.008965   0.003848  -0.007113  -0.006064
   29  C  2 XZ    0.002485  -0.006290   0.037665  -0.004986  -0.013878
   30  C  2 YZ    0.001023   0.026058   0.015700   0.020655   0.007692
   31  H  3  S   -0.204873  -0.000070  -0.152850  -0.000069   0.038340
   32  H  3  S   -0.139515  -0.000075  -0.198322  -0.000244   0.120746
   33  H  3  X   -0.009390   0.001296  -0.003189  -0.006016   0.001367
   34  H  3  Y   -0.000859  -0.004292  -0.000024   0.019911   0.003364
   35  H  3  Z    0.007263   0.001173   0.003447  -0.005435   0.010873
   36  H  4  S    0.205089   0.000004   0.152854  -0.000034   0.037917
   37  H  4  S    0.139741   0.000016   0.198548   0.000071   0.118053
   38  H  4  X   -0.004761   0.001296  -0.001129  -0.006014  -0.006729
   39  H  4  Y   -0.004180  -0.004297  -0.001507   0.019915   0.000512
   40  H  4  Z   -0.010071   0.001169  -0.004294  -0.005438   0.009339

                     11         12         13         14         15
                    0.1933     0.3048     0.3255     0.3598     0.5474
                     A          A          A          A          A   
    1  O  1  S    0.021635   0.000165  -0.000037   0.000056   0.068447
    2  O  1  S   -0.024310  -0.000110  -0.000037  -0.000089  -0.239076
    3  O  1  S   -0.262070  -0.002309   0.000697  -0.000629  -0.627996
    4  O  1  X   -0.015971  -0.091554   0.258636   0.005042  -0.018775
    5  O  1  Y    0.011799  -0.032713   0.092196  -0.017563   0.013567
    6  O  1  Z    0.060881  -0.018342   0.051457   0.004631   0.069622
    7  O  1  X   -0.031996  -0.352911   0.419224   0.034590   0.290169
    8  O  1  Y    0.023333  -0.125759   0.149191  -0.115643  -0.208550
    9  O  1  Z    0.121548  -0.070939   0.083425   0.031313  -1.083597
   10  O  1 XX    0.018140   0.013473   0.010300  -0.005722  -0.041902
   11  O  1 YY    0.004751  -0.003294  -0.002702  -0.013660  -0.018796
   12  O  1 ZZ    0.010967  -0.009864  -0.007733   0.019448  -0.020522
   13  O  1 XY    0.005717  -0.002789  -0.002168   0.013384  -0.010573
   14  O  1 XZ    0.001041  -0.027247  -0.021126   0.009390  -0.004761
   15  O  1 YZ    0.002972  -0.011344  -0.008833  -0.038903  -0.003080
   16  C  2  S    0.110375  -0.000034  -0.000086  -0.000026  -0.030151
   17  C  2  S   -0.223376   0.000364  -0.000181   0.000217  -0.450930
   18  C  2  S   -2.086058  -0.000114   0.002845  -0.000078   3.034472
   19  C  2  X    0.073865  -0.603989  -0.598479   0.249756   0.192526
   20  C  2  Y   -0.053058  -0.214725  -0.213785  -0.827367  -0.138049
   21  C  2  Z   -0.276763  -0.120733  -0.119209   0.225878  -0.717884
   22  C  2  X    0.292787   2.090402  -1.946762  -0.330747  -0.206894
   23  C  2  Y   -0.212721   0.743362  -0.692394   1.104007   0.149404
   24  C  2  Z   -1.104130   0.414046  -0.386109  -0.301737   0.776171
   25  C  2 XX    0.010984  -0.004046  -0.010960   0.001247  -0.110146
   26  C  2 YY   -0.005475   0.001145   0.002737   0.002897  -0.021635
   27  C  2 ZZ   -0.021675   0.003076   0.008064  -0.004071  -0.071790
   28  C  2 XY    0.008912   0.000887   0.002253  -0.002788  -0.037115
   29  C  2 XZ    0.009121   0.008498   0.022251  -0.001943  -0.003941
   30  C  2 YZ   -0.001758   0.003510   0.009274   0.008103  -0.021679
   31  H  3  S    0.058769   0.090605  -0.041589   0.000080  -0.301314
   32  H  3  S    1.652850   0.947524  -2.119770   0.001875  -0.716552
   33  H  3  X   -0.008268   0.031640   0.014493   0.003625  -0.016756
   34  H  3  Y   -0.005600   0.005468  -0.002343  -0.011935  -0.001437
   35  H  3  Z   -0.011405  -0.015003  -0.024613   0.003240   0.013325
   36  H  4  S    0.058834  -0.090477   0.041114  -0.000067  -0.301463
   37  H  4  S    1.656985  -0.945651   2.116171  -0.001342  -0.717977
   38  H  4  X    0.013220   0.020895   0.000487   0.003617   0.008255
   39  H  4  Y    0.002052   0.013245   0.007686  -0.011933   0.007466
   40  H  4  Z   -0.007118   0.025388   0.027667   0.003226   0.018266

                     16         17         18         19
                    0.6658     0.7426     0.7673     0.8384
                     A          A          A          A   
    1  O  1  S   -0.016258  -0.046545   0.000063  -0.000015
    2  O  1  S   -0.031833   0.168554  -0.000503   0.000570
    3  O  1  S    0.354271  -0.072218   0.000970  -0.001337
    4  O  1  X    0.166245  -0.128584  -0.242544  -0.624095
    5  O  1  Y   -0.119382   0.094020   0.803889  -0.222237
    6  O  1  Z   -0.621586   0.479097  -0.220485  -0.123868
    7  O  1  X   -0.326473  -0.053683   0.389168   1.434358
    8  O  1  Y    0.234243   0.035301  -1.288885   0.510976
    9  O  1  Z    1.219465   0.199973   0.351759   0.285443
   10  O  1 XX   -0.003288   0.050103   0.002150   0.033076
   11  O  1 YY    0.001263   0.071680   0.005397  -0.008213
   12  O  1 ZZ    0.054533  -0.138984  -0.007755  -0.024469
   13  O  1 XY   -0.006287   0.006558  -0.005486  -0.006886
   14  O  1 XZ   -0.018610   0.064495  -0.003987  -0.067044
   15  O  1 YZ    0.011503  -0.050150   0.016048  -0.028028
   16  C  2  S   -0.068623   0.060301  -0.000104   0.000101
   17  C  2  S   -0.588872  -0.966486   0.002179  -0.001051
   18  C  2  S    0.356043   1.137677  -0.003397   0.002789
   19  C  2  X   -0.006166  -0.201415   0.001125  -0.230676
   20  C  2  Y    0.004392   0.144611  -0.002737  -0.082042
   21  C  2  Z    0.023011   0.752720  -0.000711  -0.045600
   22  C  2  X   -0.060065   0.080664  -0.163078  -1.142355
   23  C  2  Y    0.043845  -0.055826   0.540063  -0.407145
   24  C  2  Z    0.226651  -0.298630  -0.146730  -0.227806
   25  C  2 XX   -0.077476  -0.220217  -0.006079  -0.087956
   26  C  2 YY    0.011306  -0.117945  -0.015419   0.022265
   27  C  2 ZZ   -0.253545   0.075921   0.022097   0.065532
   28  C  2 XY   -0.020346  -0.062657   0.015478   0.018264
   29  C  2 XZ    0.066844  -0.087650   0.010898   0.179259
   30  C  2 YZ   -0.070248   0.031765  -0.044545   0.074818
   31  H  3  S   -0.199016  -0.189243   0.000589  -0.323164
   32  H  3  S   -0.091411  -0.132805   0.000445  -0.339475
   33  H  3  X    0.011045   0.033405  -0.004600   0.037381
   34  H  3  Y   -0.007408   0.024756   0.014927   0.003666
   35  H  3  Z   -0.039330   0.053594  -0.004198  -0.028049
   36  H  4  S   -0.198923  -0.190042   0.000503   0.323422
   37  H  4  S   -0.092745  -0.133140   0.000367   0.337765
   38  H  4  X    0.010114  -0.057318  -0.004393   0.019342
   39  H  4  Y   -0.007753  -0.007583   0.014983   0.016573
   40  H  4  Z   -0.039541   0.035452  -0.004172   0.039473

     ------------------------------------------
     PROPERTIES FOR THE BHHLYP   DFT FUNCTIONAL
      USING THE RELAXED DENSITY OF EXCITED STATE    1
     ------------------------------------------

          ---------------------------------------
          MULLIKEN AND LOWDIN POPULATION ANALYSES
          ---------------------------------------

     ATOMIC MULLIKEN POPULATION IN EACH MOLECULAR ORBITAL

                      1          2          3          4          5

                  2.000000   2.000000   2.000000   2.000000   2.000000

    1             2.000375  -0.000370   1.436209   0.585363   1.186611
    2            -0.000371   2.000232   0.559163   0.951983   0.536519
    3            -0.000002   0.000069   0.002298   0.231056   0.138653
    4            -0.000002   0.000069   0.002330   0.231597   0.138217

                      6          7          8          9

                  2.000000   2.000000   1.000000   1.000000

    1             0.320014   1.550595   0.786857   0.190783
    2             1.028894   0.447851   0.049261   0.799353
    3             0.325170   0.000777   0.081921   0.004932
    4             0.325922   0.000777   0.081961   0.004932

     ATOMIC SPIN POPULATION (ALPHA MINUS BETA)
       ATOM         MULL.POP.                    LOW.POP.
    1 O            -0.146135                    -0.132015
    2 C             0.139368                     0.118817
    3 H             0.003377                     0.006621
    4 H             0.003390                     0.006577

               ----- POPULATIONS IN EACH AO -----
                             MULLIKEN      LOWDIN
              1  O  1  S      1.99856     1.97481
              2  O  1  S      0.94896     0.70205
              3  O  1  S      0.80613     0.46401
              4  O  1  X      1.32312     1.24259
              5  O  1  Y      0.96532     0.88738
              6  O  1  Z      1.11840     1.02808
              7  O  1  X      0.46457     0.54744
              8  O  1  Y      0.38385     0.44959
              9  O  1  Z      0.27009     0.40449
             10  O  1 XX     -0.00341     0.17107
             11  O  1 YY     -0.00132     0.17199
             12  O  1 ZZ      0.01338     0.19638
             13  O  1 XY      0.00120     0.00167
             14  O  1 XZ      0.00739     0.01627
             15  O  1 YZ      0.01028     0.01486
             16  C  2  S      1.99610     1.97309
             17  C  2  S      0.75845     0.39140
             18  C  2  S      0.47434     0.31648
             19  C  2  X      0.91669     0.75671
             20  C  2  Y      0.60723     0.52609
             21  C  2  Z      0.85597     0.72231
             22  C  2  X      0.09813     0.25151
             23  C  2  Y      0.12805     0.20318
             24  C  2  Z      0.04256     0.17618
             25  C  2 XX      0.01147     0.16580
             26  C  2 YY     -0.01072     0.11241
             27  C  2 ZZ      0.02711     0.20908
             28  C  2 XY      0.00323     0.00549
             29  C  2 XZ      0.03975     0.09027
             30  C  2 YZ      0.01794     0.03712
             31  H  3  S      0.51490     0.49378
             32  H  3  S      0.33500     0.36097
             33  H  3  X      0.00975     0.02786
             34  H  3  Y      0.00161     0.00597
             35  H  3  Z      0.00219     0.00816
             36  H  4  S      0.51487     0.49129
             37  H  4  S      0.33533     0.36059
             38  H  4  X      0.00537     0.01675
             39  H  4  Y      0.00272     0.00860
             40  H  4  Z      0.00545     0.01623

          ----- MULLIKEN ATOMIC OVERLAP POPULATIONS -----
          (OFF-DIAGONAL ELEMENTS NEED TO BE MULTIPLIED BY 2)

             1           2           3           4

    1    7.7334757
    2    0.6999942   4.5724706
    3   -0.0634903   0.3470197   0.6693932
    4   -0.0634782   0.3468153  -0.0894713   0.6698819

          TOTAL MULLIKEN AND LOWDIN ATOMIC POPULATIONS
       ATOM         MULL.POP.    CHARGE          LOW.POP.     CHARGE
    1 O             8.306501   -0.306501         8.272697   -0.272697
    2 C             5.966300    0.033700         5.937111    0.062889
    3 H             0.863451    0.136549         0.896729    0.103271
    4 H             0.863748    0.136252         0.893462    0.106538

          -------------------------------
          BOND ORDER AND VALENCE ANALYSIS     BOND ORDER THRESHOLD=0.050
          -------------------------------

                   BOND                       BOND                       BOND
  ATOM PAIR DIST  ORDER      ATOM PAIR DIST  ORDER      ATOM PAIR DIST  ORDER
    1   2  1.194  2.166        2   3  1.102  0.881        2   4  1.102  0.880

                       TOTAL       BONDED        FREE
      ATOM            VALENCE     VALENCE     VALENCE
    1 O                 2.113       2.200      -0.087
    2 C                 3.931       3.927       0.004
    3 H                 0.921       0.890       0.031
    4 H                 0.921       0.890       0.031

          -----------------------------------------
          ATOMIC SPIN DENSITY AT THE NUCLEUS (A.U.)
          -----------------------------------------
                            SPIN DENS    ALPHA DENS     BETA DENS
    1  O            8.0    -0.0005719     147.51766     147.51823
    2  C            6.0    -0.0000263      59.69687      59.69690
    3  H            1.0     0.0045097       0.21167       0.20716
    4  H            1.0     0.0045623       0.21169       0.20712

    **** A SOLVENT MODEL IS IN USE IN THIS RUN ****
 ELECTRICAL PROPERTIES (MOMENTS, DENSITY, FIELD/GRADIENT, AND/OR POTENTIAL)
 ARE COMPUTED USING THE SOLVATED SYSTEM'S DENSITY MATRIX, BUT
 ONLY WITH AO INTEGRAL CONTRIBUTIONS FROM THE QUANTUM SOLUTE.
 THE ONE EXCEPTION IS THE DIPOLE, WHICH IS ALSO PRINTED FOR THE TOTAL SYSTEM.

          ----------------------------
          SOLUTE ELECTROSTATIC MOMENTS
          ----------------------------

 POINT   1           X           Y           Z (BOHR)    CHARGE
                 3.501411   -2.070262   -1.231603        0.00 (A.U.)
         DX          DY          DZ         /D/  (DEBYE)
    -0.791824    0.567444    2.946035    3.102918

          ----------------------------
          SYSTEM ELECTROSTATIC MOMENTS
          ----------------------------

 POINT   1           X           Y           Z (BOHR)    CHARGE
                 3.501411   -2.070262   -1.231603        0.00 (A.U.)
         DX          DY          DZ         /D/  (DEBYE)
    -0.791824    0.567444    2.946035    3.102918
 INCLUDING PCM SURFACE CHARGES, TOTAL CHARGE=   -0.009360, AND TOTAL DIPOLE IS
         DX          DY          DZ         /D/  (DEBYE)
    -0.378411    0.257126    1.382407    1.456144
 ...... END OF PROPERTY EVALUATION ......
 STEP CPU TIME =     0.00 TOTAL CPU TIME =       98.9 (    1.6 MIN)
 TOTAL WALL CLOCK TIME=      103.0 SECONDS, CPU UTILIZATION IS  95.94%
  $VIB   
          IVIB=   0 IATOM=   0 ICOORD=   0 E=     -114.4565235665
  1.790145060E-05-1.137444576E-06-3.588488934E-05-2.267315261E-05-7.281252501E-06
  3.428940388E-05 2.860722457E-06 5.407546871E-06 4.654610108E-06 1.910979551E-06
  3.011150206E-06-3.059124649E-06
 -7.918244875E-01 5.674440175E-01 2.946035314E+00
 ......END OF GEOMETRY SEARCH......
 STEP CPU TIME =     0.00 TOTAL CPU TIME =       98.9 (    1.6 MIN)
 TOTAL WALL CLOCK TIME=      103.0 SECONDS, CPU UTILIZATION IS  95.94%

             ----------------------------------------------
             -------   RESULTS OF PCM CALCULATION   -------
             ----------------------------------------------

                     COMPUTED FOR THE GROUND STATE         

 FREE ENERGY IN SOLVENT = <PSI| H(0)+V/2 |PSI>       =     -114.3405860495 A.U.
 INTERNAL ENERGY IN SOLVENT = <PSI| H(0) |PSI>       =     -114.3367665913 A.U.
 DELTA INTERNAL ENERGY =  <D-PSI| H(0) |D-PSI>       =        0.0000000000 A.U.
 ELECTROSTATIC INTERACTION                           =       -0.0038194582 A.U.
 PIEROTTI CAVITATION ENERGY                          =        0.0000000000 A.U.
 DISPERSION FREE ENERGY                              =        0.0000000000 A.U.
 REPULSION FREE ENERGY                               =        0.0000000000 A.U.
 TOTAL INTERACTION (DELTA + ES + CAV + DISP + REP)   =       -0.0038194582 A.U.
 TOTAL FREE ENERGY IN SOLVENT                        =     -114.3405860495 A.U.

 FREE ENERGY IN SOLVENT       =      -71749.81 KCAL/MOL
 INTERNAL ENERGY IN SOLVENT   =      -71747.41 KCAL/MOL
 DELTA INTERNAL ENERGY        =           0.00 KCAL/MOL
 ELECTROSTATIC INTERACTION    =          -2.40 KCAL/MOL
 PIEROTTI CAVITATION ENERGY   =           0.00 KCAL/MOL
 DISPERSION FREE ENERGY       =           0.00 KCAL/MOL
 REPULSION FREE ENERGY        =           0.00 KCAL/MOL
 TOTAL INTERACTION            =          -2.40 KCAL/MOL
 TOTAL FREE ENERGY IN SOLVENT =      -71749.81 KCAL/MOL

 -INTERNAL ENERGY IN SOLVENT-
    OMITS ES,CAV,DISP,REP (USES SOLVATED ORBITALS IN THE GAS PHASE HAMILTONIAN)
 -FREE ENERGY IN SOLVENT-
    INCLUDES ES+DISP+REP WHICH ARE IN THE SELF-CONSISTENT WAVEFUNCTION.
 -TOTAL FREE ENERGY IN SOLVENT-
    INCLUDES ES+DISP+REP+CAV, MEANING CAVITATION IS NOT IN THE SCF ENERGY.

 .... DONE PRINTING PCM SOLVENT SUMMARY ....
 STEP CPU TIME =     0.00 TOTAL CPU TIME =       98.9 (    1.6 MIN)
 TOTAL WALL CLOCK TIME=      103.0 SECONDS, CPU UTILIZATION IS  95.94%
              2063542  WORDS OF DYNAMIC MEMORY USED
 EXECUTION OF GAMESS TERMINATED NORMALLY Tue Nov 29 02:44:47 2016
 DDI: 263640 bytes (0.3 MB / 0 MWords) used by master data server.

 ----------------------------------------
 CPU timing information for all processes
 ========================================
 0: 98.490 + 0.388 = 98.878
 ----------------------------------------
 ddikick.x: exited gracefully.
unset echo
----- accounting info -----
Files used on the master node compute-3-0 were:
-rw-rw-r-- 1 sarom sarom  100543 Nov 29  2016 .//sf-ro-pcm.dat
-rw-rw-r-- 1 sarom sarom   27993 Nov 29  2016 .//sf-ro-pcm.F05
-rw-rw-r-- 1 sarom sarom 3960352 Nov 29  2016 .//sf-ro-pcm.F08
-rw-rw-r-- 1 sarom sarom 2388560 Nov 29  2016 .//sf-ro-pcm.F10
-rw-rw-r-- 1 sarom sarom 1311040 Nov 29  2016 .//sf-ro-pcm.F22
-rw-rw-r-- 1 sarom sarom       8 Nov 29  2016 .//sf-ro-pcm.F26
-rw-rw-r-- 1 sarom sarom       0 Nov 29  2016 .//sf-ro-pcm.F27
-rw-rw-r-- 1 sarom sarom   27993 Nov 28 17:27 .//sf-ro-pcm.inp
-rw-rw-r-- 1 sarom sarom  169914 Nov 29  2016 .//sf-ro-pcm.log
Tue Nov 29 02:44:50 CST 2016
0.208u 0.570s 1:46.92 0.7%	0+0k 0+184io 0pf+0w
