-catch_rsh /opt/gridengine/default/spool/compute-0-7/active_jobs/23827.1/pe_hostfile
compute-0-7
The primary node assigned by SGE to this run is compute-0-7
Warning: no access to tty (Bad file descriptor).
Thus no job control in this shell.
Deleting shmid=2523136.
Deleting shmid=2555905.
Deleting shmid=2785282.
source /home/sarom/gamess.github.2017-05-31.14.06/install.info
setenv GMS_PATH /home/sarom/gamess.github.2017-05-31.14.06
setenv GMS_BUILD_DIR /home/sarom/gamess.github.2017-05-31.14.06
setenv GMS_TARGET linux64
setenv GMS_FORTRAN gfortran
setenv GMS_GFORTRAN_VERNO 4.4
setenv GMS_MATHLIB mkl-so
setenv GMS_MATHLIB_PATH /share/apps/intel/compilers_and_libraries_2017.1.132/linux/mkl/lib/intel64
setenv GMS_MKL_VERNO 12
setenv GMS_DDI_COMM sockets
setenv GMS_LIBCCHEM false
setenv GMS_EIGEN_PATH
setenv GMS_PHI false
setenv GMS_SHMTYPE sysv
setenv GMS_OPENMP false
unset echo
sf-u-efp-opt
tests/tddft
----- GAMESS execution script 'rungms' -----
This job is running on host compute-0-7.local
under operating system Linux at Fri Jun 2 03:14:42 CDT 2017
Available scratch disk space (Kbyte units) at beginning of the job is
Filesystem           1K-blocks      Used Available Use% Mounted on
/dev/sda1             16126920   3867340  11440380  26% /
GAMESS temporary binary files will be written to /scratch
GAMESS supplementary output files will be written to /home/sarom/restart
Copying input file sf-u-efp-opt.inp to your run's scratch directory...
cp tests/tddft/sf-u-efp-opt.inp /scratch/sf-u-efp-opt.F05
unset echo
The generated host list is
compute-0-7.local
/home/sarom/gamess.github.2017-05-31.14.06/ddikick.x /home/sarom/gamess.github.2017-05-31.14.06/gamess.00.x sf-u-efp-opt -ddi 1 1 compute-0-7.local -scr /scratch

 Distributed Data Interface kickoff program.
 Initiating 1 compute processes on 1 nodes to run the following command:
 /home/sarom/gamess.github.2017-05-31.14.06/gamess.00.x sf-u-efp-opt 

          ******************************************************
          *         GAMESS VERSION = 20 APR 2017 (R1)          *
          *             FROM IOWA STATE UNIVERSITY             *
          * M.W.SCHMIDT, K.K.BALDRIDGE, J.A.BOATZ, S.T.ELBERT, *
          *   M.S.GORDON, J.H.JENSEN, S.KOSEKI, N.MATSUNAGA,   *
          *          K.A.NGUYEN, S.J.SU, T.L.WINDUS,           *
          *       TOGETHER WITH M.DUPUIS, J.A.MONTGOMERY       *
          *         J.COMPUT.CHEM.  14, 1347-1363(1993)        *
          **************** 64 BIT LINUX VERSION ****************

  SINCE 1993, STUDENTS AND POSTDOCS WORKING AT IOWA STATE UNIVERSITY
  AND ALSO IN THEIR VARIOUS JOBS AFTER LEAVING ISU HAVE MADE IMPORTANT
  CONTRIBUTIONS TO THE CODE:
     IVANA ADAMOVIC, CHRISTINE AIKENS, YURI ALEXEEV, POOJA ARORA,
     ANDREY ASADCHEV, ROB BELL, PRADIPTA BANDYOPADHYAY, JONATHAN BENTZ,
     BRETT BODE, KURT BRORSEN, CALEB CARLIN, GALINA CHABAN, WEI CHEN,
     CHEOL HO CHOI, PAUL DAY, ALBERT DEFUSCO, NUWAN DESILVA, TIM DUDLEY,
     DMITRI FEDOROV, GRAHAM FLETCHER, MARK FREITAG, KURT GLAESEMANN,
     DAN KEMP, GRANT MERRILL, NORIYUKI MINEZAWA, JONATHAN MULLIN,
     TAKESHI NAGATA, SEAN NEDD, HEATHER NETZLOFF, BOSILJKA NJEGIC, RYAN OLSON,
     MIKE PAK, SPENCER PRUITT, LUKE ROSKOP, JIM SHOEMAKER, LYUDMILA SLIPCHENKO,
     TONY SMITH, SAROM SOK LEANG, JIE SONG, TETSUYA TAKETSUGU, SIMON WEBB,
     PENG XU, SOOHAENG YOO, FEDERICO ZAHARIEV

  ADDITIONAL CODE HAS BEEN PROVIDED BY COLLABORATORS IN OTHER GROUPS:
     IOWA STATE UNIVERSITY:
          JOE IVANIC, AARON WEST, LAIMUTIS BYTAUTAS, KLAUS RUEDENBERG
     UNIVERSITY OF TOKYO: KIMIHIKO HIRAO, TAKAHITO NAKAJIMA,
          TAKAO TSUNEDA, MUNEAKI KAMIYA, SUSUMU YANAGISAWA,
          KIYOSHI YAGI, MAHITO CHIBA, SEIKEN TOKURA, NAOAKI KAWAKAMI
     UNIVERSITY OF AARHUS: FRANK JENSEN
     UNIVERSITY OF IOWA: VISVALDAS KAIRYS, HUI LI
     NATIONAL INST. OF STANDARDS AND TECHNOLOGY: WALT STEVENS, DAVID GARMER
     UNIVERSITY OF PISA: BENEDETTA MENNUCCI, JACOPO TOMASI
     UNIVERSITY OF MEMPHIS: HENRY KURTZ, PRAKASHAN KORAMBATH
     UNIVERSITY OF ALBERTA: TOBY ZENG, MARIUSZ KLOBUKOWSKI
     UNIVERSITY OF NEW ENGLAND: MARK SPACKMAN
     MIE UNIVERSITY: HIROAKI UMEDA
     NAT. INST. OF ADVANCED INDUSTRIAL SCIENCE AND TECHNOLOGY: KAZUO KITAURA
     MICHIGAN STATE UNIVERSITY:
          KAROL KOWALSKI, MARTA WLOCH, JEFFREY GOUR, JESSE LUTZ,
          WEI LI, PIOTR PIECUCH
     UNIVERSITY OF SILESIA: MONIKA MUSIAL, STANISLAW KUCHARSKI
     FACULTES UNIVERSITAIRES NOTRE-DAME DE LA PAIX:
          OLIVIER QUINET, BENOIT CHAMPAGNE
     UNIVERSITY OF CALIFORNIA - SANTA BARBARA: BERNARD KIRTMAN
     INSTITUTE FOR MOLECULAR SCIENCE:
          KAZUYA ISHIMURA, MICHIO KATOUDA, AND SHIGERU NAGASE
     UNIVERSITY OF NOTRE DAME: ANNA POMOGAEVA, DAN CHIPMAN
     KYUSHU UNIVERSITY:
          HARUYUKI NAKANO,
          FENG LONG GU, JACEK KORCHOWIEC, MARCIN MAKOWSKI, AND YURIKO AOKI,
          HIROTOSHI MORI AND EISAKU MIYOSHI
     PENNSYLVANIA STATE UNIVERSITY:
          TZVETELIN IORDANOV, CHET SWALINA, JONATHAN SKONE,
          SHARON HAMMES-SCHIFFER
     WASEDA UNIVERSITY:
          MASATO KOBAYASHI, TOMOKO AKAMA, TSUGUKI TOUMA,
          TAKESHI YOSHIKAWA, YASUHIRO IKABATA, JUNJI SEINO,
          YUYA NAKAJIMA, HIROMI NAKAI
     NANJING UNIVERSITY: SHUHUA LI
     UNIVERSITY OF NEBRASKA:
          PEIFENG SU, DEJUN SI, NANDUN THELLAMUREGE, YALI WANG, HUI LI
     UNIVERSITY OF ZURICH: ROBERTO PEVERATI, KIM BALDRIDGE
     N. COPERNICUS UNIVERSITY AND JACKSON STATE UNIVERSITY:
          MARIA BARYSZ
     UNIVERSITY OF COPENHAGEN: Jimmy Kromann, CASPER STEINMANN
     TOKYO INSTITUTE OF TECHNOLOGY: HIROYA NAKATA
     NAGOYA UNIVERSITY: YOSHIO NISHIMOTO, STEPHAN IRLE
     MOSCOW STATE UNIVERSITY: VLADIMIR MIRONOV

 EXECUTION OF GAMESS BEGUN Fri Jun  2 03:14:42 2017

            ECHO OF THE FIRST FEW INPUT CARDS -
 INPUT CARD>!   unrestricted reference geom.opt. with spin-flip TDDFT                       
 INPUT CARD>!   H2CO plus 4 EFP water...test from Noriyuki...August 2012                    
 INPUT CARD>!                                                                               
 INPUT CARD>!   NSERCH:   0  E=     -114.5109488405  R.M.S.=  0.0001215                     
 INPUT CARD>!   NSERCH:   1  E=     -114.5109217688  R.M.S.=  0.0004138                     
 INPUT CARD>!   NSERCH:   2  E=     -114.5109342560  R.M.S.=  0.0003444                     
 INPUT CARD>!       ...                                                                     
 INPUT CARD>!   NSERCH:  17  E=     -114.5109371922  R.M.S.=  0.0002765                     
 INPUT CARD>!   NSERCH:  18  E=     -114.5109517662  R.M.S.=  0.0000809                     
 INPUT CARD>!   NSERCH:  19  E=     -114.5109492449  R.M.S.=  0.0001377                     
 INPUT CARD>!   NSERCH:  20  E=     -114.5109522223  R.M.S.=  0.0000279                     
 INPUT CARD>!                                                                               
 INPUT CARD>!   This run takes 513 seconds on 2.66 GHz Cloverton (22 Jul 2014)              
 INPUT CARD>!                                                                               
 INPUT CARD>!-----------------------------------------------------------------------        
 INPUT CARD>! H2CO                                                                          
 INPUT CARD>!-----------------------------------------------------------------------        
 INPUT CARD> $CONTRL RUNTYP=OPTIMIZE SCFTYP=UHF DFTTYP=BHHLYP TDDFT=SPNFLP MULT=3           
 INPUT CARD>         MAXIT=100 $END                                                         
 INPUT CARD> $SYSTEM MWORDS=20 $END                                                         
 INPUT CARD>!-----------------------------------------------------------------------        
 INPUT CARD>! Wave function                                                                 
 INPUT CARD>!-----------------------------------------------------------------------        
 INPUT CARD> $GUESS GUESS=MOREAD $END                                                       
 INPUT CARD> $BASIS GBASIS=DH NDFUNC=1 NPFUNC=1 $END                                        
 INPUT CARD> $SCF DIRSCF=.T. $END                                                           
 INPUT CARD> $TDDFT NSTATE=5 IROOT=1 MULT=1 TAMMD=.T. $END                                  
 INPUT CARD>!-----------------------------------------------------------------------        
 INPUT CARD>! Geometry                                                                      
 INPUT CARD>!-----------------------------------------------------------------------        
 INPUT CARD> $DATA                                                                          
 INPUT CARD>H2CO+4EFP SF-BHHLYP/DZP S0                                                      
 INPUT CARD>C1                                                                              
 INPUT CARD> O           8.0   2.0065177031  -1.2031129862  -1.2169950460                   
 INPUT CARD> C           6.0   1.6980755869  -0.9875281118  -0.0808327687                   
 INPUT CARD> H           1.0   0.6926337598  -1.1837470950   0.3070746434                   
 INPUT CARD> H           1.0   2.4085937003  -0.5732667969   0.6457050638                   
 INPUT CARD> $END                                                                           
 INPUT CARD> $EFRAG                                                                         
 INPUT CARD>                                                                                
 INPUT CARD> FRAGNAME=H2ODFT                                                                
 INPUT CARD> O1               -0.2607558609  -1.2192926828  -2.8464034949                   
 INPUT CARD> H2                0.5798699552  -1.4061847697  -2.4600124504                   
 INPUT CARD> H3               -0.1088336171  -1.0653933575  -3.7651597649                   
 INPUT CARD> FRAGNAME=H2ODFT                                                                
 INPUT CARD> O1               -1.2258944512   0.6375267225  -1.1452541210                   
 INPUT CARD> H2               -1.7100302701   0.1762400402  -0.4791418483                   
 INPUT CARD> H3               -1.0191509795   0.0067132591  -1.8162309949                   
 INPUT CARD> FRAGNAME=H2ODFT                                                                
 INPUT CARD> O1               -1.4822435061  -0.0932740441   1.5185526334                   
   20000000 WORDS OF MEMORY AVAILABLE

     BASIS OPTIONS
     -------------
     GBASIS=DH           IGAUSS=       0      POLAR=DUNNING 
     NDFUNC=       1     NFFUNC=       0     DIFFSP=       F
     NPFUNC=       1      DIFFS=       F     BASNAM=        


     RUN TITLE
     ---------
 H2CO+4EFP SF-BHHLYP/DZP S0                                                      

 THE POINT GROUP OF THE MOLECULE IS C1      
 THE ORDER OF THE PRINCIPAL AXIS IS     0

 ATOM      ATOMIC                      COORDINATES (BOHR)
           CHARGE         X                   Y                   Z
 O           8.0     3.7917686484       -2.2735538762       -2.2997871654
 C           6.0     3.2088975657       -1.8661575365       -0.1527517837
 H           1.0     1.3088880159       -2.2369576483        0.5802869338
 H           1.0     4.5515821093       -1.0833171640        1.2202056395

          INTERNUCLEAR DISTANCES (ANGS.)
          ------------------------------

                1 O          2 C          3 H          4 H     

   1 O       0.0000000    1.1968618 *  2.0123256 *  2.0069935 *
   2 C       1.1968618 *  0.0000000    1.0953937 *  1.0974086 *
   3 H       2.0123256 *  1.0953937 *  0.0000000    1.8525321 *
   4 H       2.0069935 *  1.0974086 *  1.8525321 *  0.0000000  

  * ... LESS THAN  3.000


     ATOMIC BASIS SET
     ----------------
 THE CONTRACTED PRIMITIVE FUNCTIONS HAVE BEEN UNNORMALIZED
 THE CONTRACTED BASIS FUNCTIONS ARE NOW NORMALIZED TO UNITY

  SHELL TYPE  PRIMITIVE        EXPONENT          CONTRACTION COEFFICIENT(S)

 O         

      1   S       1          7817.0000000    0.001176000331
      1   S       2          1176.0000000    0.008968002523
      1   S       3           273.2000000    0.042868012059
      1   S       4            81.1700000    0.143930040487
      1   S       5            27.1800000    0.355630100037
      1   S       6             9.5320000    0.461248129747
      1   S       7             3.4140000    0.140206039439

      2   S       8             9.5320000   -0.154153073905
      2   S       9             0.9398000    1.056914506712

      3   S      10             0.2846000    1.000000000000

      4   P      11            35.1800000    0.019580000501
      4   P      12             7.9040000    0.124200003180
      4   P      13             2.3050000    0.394714010108
      4   P      14             0.7171000    0.627376016066

      5   P      15             0.2137000    1.000000000000

      6   D      16             0.8500000    1.000000000000

 C         

      7   S      17          4233.0000000    0.001219999687
      7   S      18           634.9000000    0.009341997607
      7   S      19           146.1000000    0.045451988358
      7   S      20            42.5000000    0.154656960385
      7   S      21            14.1900000    0.358865908077
      7   S      22             5.1480000    0.438631887645
      7   S      23             1.9670000    0.145917962623

      8   S      24             5.1480000   -0.168366956056
      8   S      25             0.4962000    1.060090723318

      9   S      26             0.1533000    1.000000000000

     10   P      27            18.1600000    0.018538999809
     10   P      28             3.9860000    0.115435998814
     10   P      29             1.1430000    0.386187996031
     10   P      30             0.3594000    0.640113993421

     11   P      31             0.1146000    1.000000000000

     12   D      32             0.7500000    1.000000000000

 H         

     13   S      33            19.2384000    0.032827991019
     13   S      34             2.8987200    0.231203936751
     13   S      35             0.6534720    0.817225776436

     14   S      36             0.1630642    1.000000000000

     15   P      37             1.0000000    1.000000000000

 H         

     16   S      38            19.2384000    0.032827991019
     16   S      39             2.8987200    0.231203936751
     16   S      40             0.6534720    0.817225776436

     17   S      41             0.1630642    1.000000000000

     18   P      42             1.0000000    1.000000000000

 TOTAL NUMBER OF BASIS SET SHELLS             =   18
 NUMBER OF CARTESIAN GAUSSIAN BASIS FUNCTIONS =   40
 NUMBER OF ELECTRONS                          =   16
 CHARGE OF MOLECULE                           =    0
 SPIN MULTIPLICITY                            =    3
 NUMBER OF OCCUPIED ORBITALS (ALPHA)          =    9
 NUMBER OF OCCUPIED ORBITALS (BETA )          =    7
 TOTAL NUMBER OF ATOMS                        =    4
 THE NUCLEAR REPULSION ENERGY IS       31.5131155874

     LEBEDEV GRID-BASED DFT OPTIONS
     ------------------------------
     DFTTYP=BHHLYP  
     NRAD  =      96     NLEB  =     302
     NRAD0 =      24     NLEB0 =     110
     SWOFF =    5.00E-03 (PURE SCF -> DFT)
     SWITCH=    3.00E-04 (COARSE -> TIGHT GRID)
     THRESH=    0.00E+00 GTHRE=    1.00E+00

 GRIMME'S EMPIRICAL DISPERSION CORRECTION= F

     $CONTRL OPTIONS
     ---------------
 SCFTYP=UHF          RUNTYP=OPTIMIZE     EXETYP=RUN     
 MPLEVL=       0     CITYP =NONE         CCTYP =NONE         VBTYP =NONE    
 DFTTYP=BHHLYP       TDDFT =SPNFLP  
 MULT  =       3     ICHARG=       0     NZVAR =       0     COORD =UNIQUE  
 PP    =NONE         RELWFN=NONE         LOCAL =NONE         NUMGRD=       F
 ISPHER=      -1     NOSYM =       0     MAXIT =     100     UNITS =ANGS    
 PLTORB=       F     MOLPLT=       F     AIMPAC=       F     FRIEND=        
 NPRINT=       7     IREST =       0     GEOM  =INPUT   
 NORMF =       0     NORMP =       0     ITOL  =      20     ICUT  =       9
 INTTYP=BEST         GRDTYP=BEST         QMTTOL= 1.0E-06

     $SYSTEM OPTIONS
     ---------------
  REPLICATED MEMORY=    20000000 WORDS (ON EVERY NODE).
 DISTRIBUTED MEMDDI=           0 MILLION WORDS IN AGGREGATE,
 MEMDDI DISTRIBUTED OVER   1 PROCESSORS IS           0 WORDS/PROCESSOR.
 TOTAL MEMORY REQUESTED ON EACH PROCESSOR=    20000000 WORDS.
 TIMLIM=      525600.00 MINUTES, OR     365.0 DAYS.
 PARALL= F  BALTYP=  DLB     KDIAG=    0  COREFL= F
 MXSEQ2=     300 MXSEQ3=     150  mem10=         0

 READING $EFRAG GROUP
 COORD=CART      POSITION=OPTIMIZE  POLMETHD=FRGSCF   NBUFFMO=0
 READING COORDINATES OF FRAGMENT   1 NAMED   H2ODFT
 READING COORDINATES OF FRAGMENT   2 NAMED   H2ODFT
 READING COORDINATES OF FRAGMENT   3 NAMED   H2ODFT
 READING COORDINATES OF FRAGMENT   4 NAMED   H2ODFT
 FINISHED READING $EFRAG GROUP,   4 FRAGMENTS WILL BE USED.



     SUMMARY OF THE EFFECTIVE FRAGMENT POTENTIAL MODEL CHOSEN
     --------------------------------------------------------
 TOTAL NUMBER OF MULTIPOLE POINTS   =        20  (EFP1/EFP2 ELECTROSTATICS)
 TOTAL NUMBER OF POLARIZABLE POINTS =        20  (EFP1/EFP2 INDUCTION)
 TOTAL NUMBER OF L-J POINTS         =         0  (REPULSION AND DISPERSION)
 TOTAL NUMBER OF REPULSIVE POINTS   =        12  (EFP1 REPULSION/ETC.)

 THIS IS A -EFP1- TYPE RUN, WITH PAULI REPULSION, CHARGE TRANSFER, AND
 HIGHER ORDER EFFECTS COLLECTED IN A FITTED REPULSIVE POTENTIAL.

 OPTIONS FOR EFP SCREENING:
     ELECTROSTATIC AB INITIO-EFP GAUSSIAN SCREENING IS ON
     ELECTROSTATIC EFP-EFP SCREENING CHOICE IS EXPONENTIAL, FOR CHARGE/CHARGE
     POLARIZATION EFP-EFP SCREENING IS OFF

     $EWALD OPTIONS
     -----------

     IFEWLD   =        F         TINFOIL        =        T
     BETA    =    0.200         ELECTRIC CONST =     1.00
     EPSILON =     1.00         CUT_OFF        = 0.10E+04
     CUTLIST =  1000.00         LEVEL          =    1
     KMAX    =       10         EWLDPL         =        F

            MULTIPOLE COORDINATES, ELECTRONIC AND NUCLEAR CHARGES

                  X              Y              Z           ELEC.   NUC.
 O1        -0.4927571268  -2.3041290693  -5.3789226559   -8.22458    8.0
 H2         1.0957953238  -2.6573039028  -4.6487494577   -0.57906    1.0
 H3        -0.2056657146  -2.0133015148  -7.1151202556   -0.57906    1.0
 B12        0.3015186581  -2.4807164714  -5.0138358205   -0.30866    0.0
 B13       -0.3492118611  -2.1587152774  -6.2470212195   -0.30866    0.0
 O1        -2.3166046026   1.2047508154  -2.1642164750   -8.22458    8.0
 H2        -3.2314886411   0.3330453841  -0.9054468027   -0.57906    1.0
 H3        -1.9259160913   0.0126862202  -3.4321789108   -0.57906    1.0
 B12       -2.7740464988   0.7688985844  -1.5348316367   -0.30866    0.0
 B13       -2.1212602239   0.6087190024  -2.7981976908   -0.30866    0.0
 O1        -2.8010340736  -0.1762623851   2.8696483751   -8.22458    8.0
 H2        -3.8376232152   0.0662879668   4.3007446433   -0.57906    1.0
 H3        -1.5255970302   1.0683964358   2.9436011876   -0.57906    1.0
 B12       -3.3193287005  -0.0549875584   3.5851961558   -0.30866    0.0
 B13       -2.1633156080   0.4460666761   2.9066244279   -0.30866    0.0
 O1         0.9346428364   2.8611014088   1.1400627524   -8.22458    8.0
 H2         1.4998672290   4.5527054261   1.1595944035   -0.57906    1.0
 H3         0.0178579563   2.6443799231  -0.3745069990   -0.57906    1.0
 B12        1.2172551153   3.7069030711   1.1498289291   -0.30866    0.0
 B13        0.4762504789   2.7527403196   0.3827782278   -0.30866    0.0

   CHARGE SCREENING PARAMETERS (COEF AND ZETA)
   ICHGP=   5 AI-FRAGMENT SCREENING= 1   FRAGMENT-FRAGMENT SCREENING= 2

             GAUSSIAN DAMPING    EXPONENTIAL DAMPING
 O1         0.18612   0.54910      1.00000   1.96018
 H2         0.11218   0.38954      1.00000   2.38351
 H3         0.11218   0.38954      1.00000   2.38351
 B12       -0.71758   0.96214      1.00000   9.99991
 B13       -0.71758   0.96214      1.00000   9.99991
 O1         0.18612   0.54910      1.00000   1.96018
 H2         0.11218   0.38954      1.00000   2.38351
 H3         0.11218   0.38954      1.00000   2.38351
 B12       -0.71758   0.96214      1.00000   9.99991
 B13       -0.71758   0.96214      1.00000   9.99991
 O1         0.18612   0.54910      1.00000   1.96018
 H2         0.11218   0.38954      1.00000   2.38351
 H3         0.11218   0.38954      1.00000   2.38351
 B12       -0.71758   0.96214      1.00000   9.99991
 B13       -0.71758   0.96214      1.00000   9.99991
 O1         0.18612   0.54910      1.00000   1.96018
 H2         0.11218   0.38954      1.00000   2.38351
 H3         0.11218   0.38954      1.00000   2.38351
 B12       -0.71758   0.96214      1.00000   9.99991
 B13       -0.71758   0.96214      1.00000   9.99991

   SCREENING FOR POLARIZATION WITH EXPONENTIAL FORMULA  OFF

   SCREENING FOR POLARIZATION WITH TANG-TOENNIS FORMULA  OFF

                  DIPOLE MOMENTS AND THE SECOND MOMENT TENSOR

                  X        Y        Z           XX/XY    YY/XZ    ZZ/YZ
 O1            0.38702 -0.01286 -0.20758     -3.93264 -4.47942 -3.68578
                                             -0.11376  0.17445 -0.18377
 H2            0.03787 -0.01071  0.02948     -0.30014 -0.31306 -0.31013
                                             -0.00222  0.00217 -0.00094
 H3           -0.00308  0.00955 -0.04813     -0.30904 -0.31320 -0.30108
                                              0.00013 -0.00388 -0.00184
 B12          -0.17112  0.03743 -0.07540     -0.09574 -0.12876 -0.10938
                                             -0.00659  0.00987 -0.00538
 B13          -0.03360 -0.03062  0.18520     -0.11443 -0.12906 -0.09038
                                             -0.00166 -0.00283 -0.00727
 O1           -0.10816 -0.42584 -0.00190     -4.29419 -4.04085 -3.76280
                                              0.07079 -0.39570  0.09935
 H2           -0.02540 -0.01410  0.03967     -0.31008 -0.30578 -0.30747
                                              0.00415 -0.00434 -0.00394
 H3            0.01568 -0.02418 -0.03984     -0.31258 -0.30337 -0.30738
                                             -0.00045 -0.00195  0.00557
 B12           0.09758  0.09570 -0.13299     -0.11947 -0.11038 -0.10402
                                              0.00877 -0.01630 -0.00650
 B13          -0.04037  0.12955  0.13399     -0.12471 -0.10532 -0.10384
                                             -0.00090 -0.01128  0.01348
 O1            0.04928  0.30687  0.31055     -3.88121 -4.16160 -4.05502
                                              0.31803 -0.33667  0.08705
 H2           -0.03416 -0.00198  0.03531     -0.30931 -0.31069 -0.30333
                                             -0.00039 -0.00513  0.00382
 H3            0.03859  0.02956 -0.00740     -0.30729 -0.30525 -0.31078
                                              0.00631  0.00062  0.00289
 B12           0.10911 -0.02822 -0.15383     -0.11010 -0.12054 -0.10323
                                              0.00453 -0.01729  0.00705
 B13          -0.13518 -0.13410 -0.01044     -0.10587 -0.10913 -0.11887
                                              0.01861 -0.00521  0.00509
 O1           -0.07254  0.30433 -0.30849     -4.25202 -3.84888 -3.99692
                                              0.28170  0.33189  0.10496
 H2            0.02006  0.04370  0.01027     -0.31212 -0.30039 -0.31081
                                              0.00301  0.00076 -0.00232
 H3           -0.02658 -0.01635 -0.03800     -0.31023 -0.31065 -0.30245
                                              0.00025  0.00578 -0.00125
 B12          -0.05911 -0.18131  0.00054     -0.12282 -0.09321 -0.11785
                                              0.01202  0.00701 -0.00046
 B13           0.09748  0.02033  0.16264     -0.11883 -0.11476 -0.10028
                                              0.00622  0.01756  0.00180

                  THE THIRD MOMENT TENSOR

               XXX/XYY  YYY/YYZ  ZZZ/XZZ  XXY/YZZ  XXZ/XYZ
 O1            0.92165 -0.03144 -0.46047 -0.00162 -0.19551
               0.31503 -0.16966  0.30265 -0.01810  0.00622
 H2            0.02582 -0.01263  0.03651 -0.00126  0.00752
               0.01290  0.01248  0.01054 -0.00350  0.00128
 H3           -0.00975  0.01163 -0.03790  0.00372 -0.01688
              -0.00300 -0.01798 -0.00620  0.00102  0.00040
 B12          -0.50824  0.11360 -0.24640  0.03801 -0.08024
              -0.16982 -0.07888 -0.16835  0.03970 -0.00005
 B13          -0.08168 -0.09368  0.55962 -0.03294  0.18854
              -0.02990  0.18611 -0.02783 -0.03191 -0.00083
 O1           -0.25879 -1.03953 -0.00419 -0.34053 -0.01084
              -0.09157  0.00749 -0.07985 -0.31367 -0.01723
 H2           -0.02670 -0.00746  0.04115 -0.00127  0.01250
              -0.00682  0.01249 -0.00492  0.00045 -0.00323
 H3            0.02010 -0.01603 -0.04117 -0.00727 -0.01525
               0.00534 -0.00987  0.00453 -0.00178 -0.00176
 B12           0.29412  0.27338 -0.40982  0.09249 -0.13570
               0.09844 -0.13836  0.09980  0.08947  0.00102
 B13          -0.12763  0.37841  0.41269  0.12584  0.13814
              -0.04396  0.13788 -0.04527  0.12511  0.00168
 O1            0.11092  0.74052  0.73914  0.22719  0.23698
               0.02079  0.25907  0.06432  0.25284  0.00366
 H2           -0.03800 -0.00692  0.02806 -0.00272  0.00783
              -0.01356  0.01183 -0.00710 -0.00461  0.00113
 H3            0.03903  0.02450 -0.01333  0.00392 -0.00457
               0.00866 -0.00551  0.01483  0.00986 -0.00062
 B12           0.33826 -0.07241 -0.45867 -0.02160 -0.15344
               0.11507 -0.15202  0.11188 -0.02464  0.00019
 B13          -0.41307 -0.39852 -0.01622 -0.13314 -0.00426
              -0.13702 -0.00642 -0.14065 -0.13135 -0.00032
 O1           -0.17220  0.70294 -0.72807  0.24609 -0.23970
              -0.07798 -0.25920 -0.03834  0.26140  0.00456
 H2            0.02451  0.03204  0.01667  0.01444  0.00532
               0.00326  0.00612  0.00823  0.01545 -0.00025
 H3           -0.02859 -0.02368 -0.02956 -0.00732 -0.00971
              -0.00982 -0.01300 -0.00326 -0.00710  0.00077
 B12          -0.18369 -0.54307 -0.01488 -0.18158 -0.00506
              -0.06151 -0.00385 -0.06494 -0.18127 -0.00062
 B13           0.29518  0.08095  0.48568  0.02494  0.16231
               0.10128  0.16158  0.09846  0.02485  0.00056

                  POLARIZABLE POINTS AND THE POLARIZABILITY TENSOR

              X       Y       Z       XX/YZ    YY/YX    ZZ/ZX    XY/ZY     XZ
 LMO1     -0.4924 -2.3041 -5.3791   0.00291  0.00448  0.00309  0.00019  0.00015
                                    0.00026  0.00019  0.00015  0.00026
 LMO2     -0.3013 -2.1493 -6.3307   0.75742  0.88549  2.85776  0.05375 -0.22784
                                   -0.35320  0.12391 -0.59740 -0.30329
 LMO3      0.3971 -2.4949 -5.0072   2.55871  0.91512  1.02685 -0.35169  0.62632
                                   -0.12098 -0.42185  0.99588 -0.17090
 LMO4     -0.8087 -2.7751 -5.3352   1.34570  0.75141  1.34163 -0.01828  0.08694
                                   -0.50552  0.57792  0.24261 -0.19091
 LMO5     -0.6793 -1.8165 -5.1532   1.14409  0.80103  1.49362 -0.16507  0.15499
                                    0.21411 -0.76127 -0.00068 -0.10050
 LMO1     -2.3167  1.2044 -2.1642   0.00415  0.00291  0.00342 -0.00034  0.00058
                                   -0.00015 -0.00034  0.00058 -0.00015
 LMO2     -2.1174  0.5239 -2.8448   0.89150  1.77234  1.83683 -0.44822 -0.31185
                                    0.92919 -0.26999 -0.22863  1.25369
 LMO3     -2.8180  0.6958 -1.4889   1.39650  1.28448  1.81969  0.66215 -0.71288
                                   -0.67133  0.48393 -0.79610 -0.99583
 LMO4     -2.6673  1.5891 -2.3941   0.74311  1.35070  1.34493 -0.57582 -0.32816
                                    0.03947  0.03497 -0.40560 -0.27613
 LMO5     -1.8255  1.3733 -1.9318   1.10941  0.98087  1.34846  0.70908 -0.30180
                                    0.11908  0.09829 -0.22436  0.43468
 LMO1     -2.8010 -0.1760  2.8699   0.00358  0.00353  0.00336 -0.00055  0.00042
                                   -0.00061 -0.00055  0.00042 -0.00061
 LMO2     -2.1119  0.5213  2.9394   1.87947  1.89295  0.72826  1.19494  0.26964
                                    0.16007  0.99575  0.03279 -0.05951
 LMO3     -3.3525 -0.0164  3.6676   1.47198  0.79322  2.23548 -0.36119 -1.13146
                                    0.12870 -0.16200 -0.89461  0.34828
 LMO4     -2.5482 -0.6827  2.9264   1.19650  1.42947  0.81278 -0.05282 -0.58927
                                    0.40243  0.27525 -0.34703 -0.15646
 LMO5     -3.1178 -0.0683  2.4097   1.30944  0.67095  1.45836  0.56595  0.06003
                                   -0.22130  0.23789 -0.18221  0.33759
 LMO1      0.9346  2.8614  1.1398   0.00412  0.00308  0.00328 -0.00030 -0.00060
                                    0.00032 -0.00030 -0.00060  0.00032
 LMO2      0.4357  2.7743  0.2975   1.38869  0.70910  2.40288 -0.01093  0.99764
                                    0.37292  0.16694  0.89327  0.05440
 LMO3      1.2309  3.7983  1.1207   1.00423  2.78597  0.71047  0.72586 -0.12319
                                   -0.16343  0.54799 -0.01882  0.15509
 LMO4      1.3949  2.5282  1.1096   1.07896  1.46457  0.89521 -0.23875  0.72257
                                   -0.05928  0.13209  0.26127  0.29897
 LMO5      0.5686  2.7989  1.5710   0.83782  1.13307  1.46786  0.67743 -0.18414
                                    0.18452  0.30658  0.27716 -0.17373

                    --------------                     ------------------
                      REP POINTS                         REP PARAMETERS  
                    --------------                     ------------------

                X         Y         Z               COEF       N          ZETA

  O1        -0.49276  -2.30413  -5.37892        -0.00125       0       0.07615
                                                17.16050       0       1.00000
  H2         1.09580  -2.65730  -4.64875        -0.00025       0       0.09500
                                                 0.10634       0       0.60000
  H3        -0.20567  -2.01330  -7.11512        -0.00025       0       0.09500
                                                 0.10634       0       0.60000
  O1        -2.31660   1.20475  -2.16422        -0.00125       0       0.07615
                                                17.16050       0       1.00000
  H2        -3.23149   0.33305  -0.90545        -0.00025       0       0.09500
                                                 0.10634       0       0.60000
  H3        -1.92592   0.01269  -3.43218        -0.00025       0       0.09500
                                                 0.10634       0       0.60000
  O1        -2.80103  -0.17626   2.86965        -0.00125       0       0.07615
                                                17.16050       0       1.00000
  H2        -3.83762   0.06629   4.30074        -0.00025       0       0.09500
                                                 0.10634       0       0.60000
  H3        -1.52560   1.06840   2.94360        -0.00025       0       0.09500
                                                 0.10634       0       0.60000
  O1         0.93464   2.86110   1.14006        -0.00125       0       0.07615
                                                17.16050       0       1.00000
  H2         1.49987   4.55271   1.15959        -0.00025       0       0.09500
                                                 0.10634       0       0.60000
  H3         0.01786   2.64438  -0.37451        -0.00025       0       0.09500
                                                 0.10634       0       0.60000

 THERE ARE   1 FRAGMENT TYPES, AND   1 FRAGMENT-FRAGMENT INTERACTIONS.

 REPULSIVE FIT FOR FRAGMENT PAIR H2ODFT-H2ODFT (COEF,EXPONENT)
 O1      -O1         -47.20425500    1.50233300
 O1      -H2          44.18476900    2.73135500
 O1      -H3          44.18476900    2.73135500
 O1      -CENTER      31.73261600    1.51840900
 H2      -O1          44.18476900    2.73135500
 H2      -H2           0.12069900    1.31532100
 H2      -H3           0.12069900    1.31532100
 H2      -CENTER      -0.06170800    0.80230100
 H3      -O1          44.18476900    2.73135500
 H3      -H2           0.12069900    1.31532100
 H3      -H3           0.12069900    1.31532100
 H3      -CENTER      -0.06170800    0.80230100
 CENTER  -O1          31.73261600    1.51840900
 CENTER  -H2          -0.06170800    0.80230100
 CENTER  -H3          -0.06170800    0.80230100
 CENTER  -CENTER     146.76346400    2.08394700

          ----------------
          PROPERTIES INPUT
          ----------------

     MOMENTS            FIELD           POTENTIAL          DENSITY
 IEMOM =       1   IEFLD =       0   IEPOT =       0   IEDEN =       0
 WHERE =COMASS     WHERE =NUCLEI     WHERE =NUCLEI     WHERE =NUCLEI  
 OUTPUT=BOTH       OUTPUT=BOTH       OUTPUT=BOTH       OUTPUT=BOTH    
 IEMINT=       0   IEFINT=       0                     IEDINT=       0
                                                       MORB  =       0
          EXTRAPOLATION IN EFFECT
          DIIS IN EFFECT
          DIIS or SOSCF will be reset if energy rises
 ORBITAL PRINTING OPTION: NPREO=     1    40     2     1

     -------------------------------
     INTEGRAL TRANSFORMATION OPTIONS
     -------------------------------
     NWORD  =            0
     CUTOFF = 1.0E-09     MPTRAN =       0
     DIRTRF =       T     AOINTS =DUP     

          ----------------------
          INTEGRAL INPUT OPTIONS
          ----------------------
 NOPK  =       1 NORDER=       0 SCHWRZ=       T

          ----------------------
          TDDFT INPUT PARAMETERS
          ----------------------
 NSTATE=       5  IROOT=       1   MULT=       1
 MAXVEC=      50 NTRIAL=       5 CNVTOL=  1.00E-07
 TDPRP =       F  TAMMD=       T    TPA=       F
 ALPHA =       F   BETA=       F  PFREQ=    0.00    0.00
   NRAD=      48   NLEB=     110

     ------------------------------------------
     THE POINT GROUP IS C1 , NAXIS= 0, ORDER= 1
     ------------------------------------------

     DIMENSIONS OF THE SYMMETRY SUBSPACES ARE
 A   =   40

 ..... DONE SETTING UP THE RUN .....
 STEP CPU TIME =     0.02 TOTAL CPU TIME =        0.0 (    0.0 MIN)
 TOTAL WALL CLOCK TIME=        0.0 SECONDS, CPU UTILIZATION IS  50.00%


          -----------------------------
          STATIONARY POINT LOCATION RUN
          -----------------------------

 OBTAINING INITIAL HESSIAN, HESS=GUESS   
 CARTESIAN COORDINATE OPTIMIZATION USING BADGER'S RULE FORCE CONSTANT GUESS
 DIAGONAL GUESS HESSIAN FOR FRAGMENTS(TRANS)=  0.0300
 DIAGONAL GUESS HESSIAN FOR FRAGMENTS(ROT)  =  0.0100

          PARAMETERS CONTROLLING GEOMETRY SEARCH ARE
          METHOD =QA                  UPHESS =BFGS    
          NNEG   =         0          NFRZ   =         0
          NSTEP  =        50          IFOLOW =         1
          HESS   =GUESS               RESTAR =         F
          IHREP  =         0          HSSEND =         F
          NPRT   =         0          NPUN   =         0
          OPTTOL = 1.000E-04          RMIN   = 1.500E-03
          RMAX   = 1.000E-01          RLIM   = 7.000E-02
          DXMAX  = 3.000E-01          PURIFY =         F
          MOVIE  =         F          TRUPD  =         T
          TRMAX  = 5.000E-01          TRMIN  = 5.000E-02
          ITBMAT =         5          STPT   =         F
          STSTEP = 1.000E-02          PROJCT=          T

 BEGINNING GEOMETRY SEARCH POINT NSERCH=   0 ...

 COORDINATES OF ALL ATOMS ARE (ANGS)
   ATOM   CHARGE       X              Y              Z
 ------------------------------------------------------------
 O           8.0   2.0065177031  -1.2031129862  -1.2169950460
 C           6.0   1.6980755869  -0.9875281118  -0.0808327687
 H           1.0   0.6926337598  -1.1837470950   0.3070746434
 H           1.0   2.4085937003  -0.5732667969   0.6457050638
 COORDINATES OF FRAGMENT MULTIPOLE CENTERS (ANGS)
 MULTIPOLE NAME        X              Y              Z
 ------------------------------------------------------------
 FRAGNAME=H2ODFT
 O1               -0.2607558609  -1.2192926828  -2.8464034949
 H2                0.5798699552  -1.4061847697  -2.4600124504
 H3               -0.1088336171  -1.0653933575  -3.7651597649
 FRAGNAME=H2ODFT
 O1               -1.2258944512   0.6375267225  -1.1452541210
 H2               -1.7100302701   0.1762400402  -0.4791418484
 H3               -1.0191509795   0.0067132591  -1.8162309949
 FRAGNAME=H2ODFT
 O1               -1.4822435061  -0.0932740441   1.5185526334
 H2               -2.0307828966   0.0350780839   2.2758562200
 H3               -0.8073112399   0.5653710870   1.5576867793
 FRAGNAME=H2ODFT
 O1                0.4945917252   1.5140297733   0.6032952713
 H2                0.7936956145   2.4091881340   0.6136309767
 H3                0.0094500242   1.3993456936  -0.1981805835

          ********************
          1 ELECTRON INTEGRALS
          ********************
 TIME TO DO ORDINARY INTEGRALS=      0.00
 TIME TO DO FRAGMENT INTEGRALS=      0.05
 ...... END OF ONE-ELECTRON INTEGRALS ......
 STEP CPU TIME =     0.05 TOTAL CPU TIME =        0.1 (    0.0 MIN)
 TOTAL WALL CLOCK TIME=        0.1 SECONDS, CPU UTILIZATION IS  77.78%

          -------------
          GUESS OPTIONS
          -------------
          GUESS =MOREAD            NORB  =       0          NORDER=       0
          MIX   =       F          PRTMO =       F          PUNMO =       F
          TOLZ  = 1.0E-08          TOLE  = 1.0E-05
          SYMDEN=       F          PURIFY=       F

 INITIAL GUESS ORBITALS GENERATED BY MOREAD   ROUTINE.

 SYMMETRIES FOR INITIAL GUESS ORBITALS FOLLOW.  ALPHA SET(S).
     9 ORBITALS ARE OCCUPIED (    2 CORE ORBITALS).
     3=A        4=A        5=A        6=A        7=A        8=A        9=A   
    10=A       11=A       12=A       13=A       14=A       15=A       16=A   
    17=A       18=A       19=A   

 SYMMETRIES FOR INITIAL GUESS ORBITALS FOLLOW.   BETA SET(S).
     7 ORBITALS ARE OCCUPIED (    2 CORE ORBITALS).
     3=A        4=A        5=A        6=A        7=A        8=A        9=A   
    10=A       11=A       12=A       13=A       14=A       15=A       16=A   
    17=A   
 ...... END OF INITIAL ORBITAL SELECTION ......
 STEP CPU TIME =     0.00 TOTAL CPU TIME =        0.1 (    0.0 MIN)
 TOTAL WALL CLOCK TIME=        0.1 SECONDS, CPU UTILIZATION IS  77.78%

                    ----------------------
                    AO INTEGRAL TECHNOLOGY
                    ----------------------
     S,P,L SHELL ROTATED AXIS INTEGRALS, REPROGRAMMED BY
        KAZUYA ISHIMURA (IMS) AND JOSE SIERRA (SYNSTAR).
     S,P,D,L SHELL ROTATED AXIS INTEGRALS PROGRAMMED BY
        KAZUYA ISHIMURA (INSTITUTE FOR MOLECULAR SCIENCE).
     S,P,D,F,G SHELL TO TOTAL QUARTET ANGULAR MOMENTUM SUM 5,
        ERIC PROGRAM BY GRAHAM FLETCHER (ELORET AND NASA ADVANCED
        SUPERCOMPUTING DIVISION, AMES RESEARCH CENTER).
     S,P,D,F,G,L SHELL GENERAL RYS QUADRATURE PROGRAMMED BY
        MICHEL DUPUIS (PACIFIC NORTHWEST NATIONAL LABORATORY).

          --------------------
          2 ELECTRON INTEGRALS
          --------------------

 DIRECT SCF METHOD SKIPS INTEGRAL STORAGE ON DISK.
 DIRECT TRANSFORMATION SKIPS AO INTEGRAL STORAGE ON DISK.
  ...... END OF TWO-ELECTRON INTEGRALS .....
 STEP CPU TIME =     0.02 TOTAL CPU TIME =        0.1 (    0.0 MIN)
 TOTAL WALL CLOCK TIME=        0.1 SECONDS, CPU UTILIZATION IS  81.82%

 EFP ADDITIVE CONTRIBUTIONS TO THE "NUCLEAR ENERGY":
   -- NUCLEAR CHARGE - NUCLEAR CHARGE   =       31.5131155874
   -- NUCLEAR CHARGE - EFP CHARGE       =       -0.0035239292
   -- NUCLEAR CHARGE - EFP DIPOLE       =       -0.0175172642
   -- NUCLEAR CHARGE - EFP QUADRUPOLE   =        0.0197530161
   -- NUCLEAR CHARGE - EFP OCTUPOLE     =       -0.0007339646
   -- EFP CHARGE     - EFP CHARGE       =       -0.0357766438
   -- EFP CHARGE     - EFP DIPOLE       =       -0.0112812772
   -- EFP CHARGE     - EFP QUADRUPOLE   =       -0.0115357480
   -- EFP CHARGE     - EFP OCTUPOLE     =       -0.0000374006
   -- EFP DIPOLE     - EFP DIPOLE       =       -0.0017077880
   -- EFP DIPOLE     - EFP QUADRUPOLE   =       -0.0015842851
   -- EFP QUADRUPOLE - EFP QUADRUPOLE   =       -0.0021510217
   -- EFP-EFP EXCHANGE REPULSION ENERGY =        0.0309196881
   -- EFP-EFP DISPERSION ENERGY (C6)    =        0.0000000000
   -- EFP-EFP DISPERSION ENERGY (C8)    =        0.0000000000
   -- TOTAL INTERFRAGMENT INTERACTION   =       -0.0331544762
 THE TOTAL NUCLEAR CHARGE/EFP ENERGY    =       31.4779389692

          ---------------------------
             U-BHHLYP SCF CALCULATION
          ---------------------------

     NUCLEAR ENERGY =        31.4779389692
     MAXIT =100     NPUNCH=  2     MULT=  3
     EXTRAP=T  DAMP=F  SHIFT=F  RSTRCT=F  DIIS=T  SOSCF=F
         DENSITY MATRIX CONVERGENCE THRESHOLD=  2.00E-06
     COARSE -> FINE DFT GRID SWITCH THRESHOLD=  3.00E-04 (SWITCH IN $DFT)
                   HF -> DFT SWITCH THRESHOLD=  0.00E+00 (SWOFF IN $DFT)
     MEMORY REQUIRED FOR UHF/ROHF ITERS=    237567 WORDS.

 DIRECT SCF CALCULATION, SCHWRZ=T   FDIFF=T
 SCHWARZ INEQUALITY OVERHEAD:       820 INTEGRALS, T=        0.00

 DFT CODE IS SWITCHING FROM THE FINE GRID NRAD= 96,  NLEB=  302
                      TO THE COARSE GRID NRAD0= 24, NLEB0=  110

     EXCHANGE FUNCTIONAL   =B88&HFX   
     CORRELATION FUNCTIONAL=LYP88     
     DFT THRESHOLD         =.345E-07
     GRID CHANGE THRESHOLD =.300E-03
 FOR AN EULER-MACLAURIN QUADRATURE USING  96 RADIAL POINTS:
 SMALLEST GAUSSIAN PRIMITIVE EXPONENT=        0.1146000000 OF TYPE -P-
 ON ATOM NUMBER   2 HAS RADIAL NORMALIZATION=  1.000000
  LARGEST GAUSSIAN PRIMITIVE EXPONENT=     7817.0000000000 OF TYPE -S-
 ON ATOM NUMBER   1 HAS RADIAL NORMALIZATION=  1.000000

                                                                                NONZERO     BLOCKS
 ITER EX      TOTAL ENERGY        E CHANGE  DENSITY CHANGE    DIIS ERROR      INTEGRALS    SKIPPED
          * * *   INITIATING DIIS PROCEDURE   * * *
   1  0     -114.3888216700  -114.3888216700   0.001413344   0.001297702         324240          0
   2  1     -114.3888250151    -0.0000033452   0.000631706   0.000290802         323436         91
   3  2     -114.3888251378    -0.0000001227   0.000281653   0.000224349         322285        189
 DFT CODE IS SWITCHING BACK TO THE FINE GRID
          * * *   INITIATING DIIS PROCEDURE   * * *
   4  3     -114.3874006322     0.0014245057   0.001383734   0.001274290         324240          0
   5  4     -114.3874038153    -0.0000031831   0.000621406   0.000287722         323394         97
   6  5     -114.3874039235    -0.0000001082   0.000277400   0.000221749         322268        190
   7  6     -114.3874040998    -0.0000001763   0.000054349   0.000025979         321451        268
   8  7     -114.3874041035    -0.0000000038   0.000020317   0.000009206         319024        510
   9  8     -114.3874041041    -0.0000000006   0.000010008   0.000003628         316526        681
  10  9     -114.3874041042    -0.0000000001   0.000004907   0.000001321         314946        865
  11 10     -114.3874041042    -0.0000000000   0.000000945   0.000000240         311809       1034
  12 11     -114.3874041041     0.0000000000   0.000000388   0.000000107         303461       1443

          -----------------
          DENSITY CONVERGED
          -----------------
     TIME TO FORM FOCK OPERATORS=       5.1 SECONDS (       0.4 SEC/ITER)
     FOCK TIME ON FIRST ITERATION=       0.1, LAST ITERATION=       0.5
     TIME TO SOLVE SCF EQUATIONS=       0.0 SECONDS (       0.0 SEC/ITER)

 FINAL U-BHHLYP ENERGY IS     -114.3874041041 AFTER  12 ITERATIONS
 DFT EXCHANGE + CORRELATION ENERGY =        -7.6268072482
 TOTAL ELECTRON NUMBER             =        15.9999985873

          --------------------
          SPIN SZ   =    1.000
          S-SQUARED =    2.010
          --------------------

          INDUCED DIPOLE     ATOMIC UNITS          DEBYE
                X(IND)            0.06237          0.15853
                Y(IND)           -0.14207         -0.36110
                Z(IND)           -0.26645         -0.67726

  ----- ALPHA SET ----- 

          ------------
          EIGENVECTORS
          ------------

                      1          2          3          4          5
                  -19.7749   -10.6151    -1.2702    -0.7442    -0.6207
                     A          A          A          A          A   
    1  O  1  S    0.998321  -0.000256  -0.222193   0.097893  -0.000464
    2  O  1  S    0.004239   0.000650   0.498054  -0.214823   0.005818
    3  O  1  S    0.005367  -0.001283   0.322917  -0.289763  -0.008886
    4  O  1  X   -0.000330  -0.000152  -0.042090  -0.065023   0.524480
    5  O  1  Y    0.000244   0.000108   0.029047   0.045843   0.188769
    6  O  1  Z    0.001250   0.000552   0.149251   0.260375   0.116894
    7  O  1  X   -0.000081   0.000171  -0.000837  -0.018876   0.182814
    8  O  1  Y    0.000048  -0.000113  -0.002847   0.022491   0.064469
    9  O  1  Z    0.000272  -0.000660  -0.016016   0.090336   0.042558
   10  O  1 XX   -0.002123   0.000101   0.007383  -0.003061  -0.011160
   11  O  1 YY   -0.002248   0.000014  -0.006162   0.000991   0.004510
   12  O  1 ZZ   -0.002005   0.000087   0.011034   0.027383   0.010037
   13  O  1 XY    0.000039   0.000032   0.004795  -0.004065   0.001588
   14  O  1 XZ   -0.000060  -0.000011  -0.002429  -0.010580   0.020484
   15  O  1 YZ    0.000069   0.000037   0.005231   0.005718   0.008930
   16  C  2  S   -0.000064   0.996287  -0.105392  -0.176417   0.001682
   17  C  2  S    0.000272   0.019741   0.195563   0.372293  -0.002354
   18  C  2  S   -0.001208   0.000709   0.092336   0.250676  -0.009873
   19  C  2  X   -0.000070   0.000443   0.048071  -0.033467   0.351614
   20  C  2  Y    0.000052  -0.000317  -0.033772   0.022939   0.119989
   21  C  2  Z    0.000272  -0.001479  -0.177074   0.124873   0.059118
   22  C  2  X   -0.000219  -0.000028  -0.000406  -0.008805   0.043391
   23  C  2  Y    0.000152   0.000023   0.001988  -0.008883   0.017103
   24  C  2  Z    0.000804   0.000099   0.015762   0.027273   0.008337
   25  C  2 XX   -0.000192  -0.006088  -0.014765   0.012145   0.003511
   26  C  2 YY   -0.000088  -0.005153  -0.012211   0.004900  -0.000993
   27  C  2 ZZ   -0.000497  -0.005449   0.023945  -0.008559  -0.002410
   28  C  2 XY   -0.000015  -0.000425  -0.004199   0.004167  -0.000954
   29  C  2 XZ    0.000114  -0.000120  -0.012758   0.006223  -0.007741
   30  C  2 YZ   -0.000102  -0.000158   0.007884  -0.002257  -0.003153
   31  H  3  S    0.000121   0.000774   0.026204   0.167185  -0.134109
   32  H  3  S   -0.000088  -0.000078  -0.002766   0.057112  -0.070790
   33  H  3  X    0.000054   0.000518   0.005548   0.013255  -0.006666
   34  H  3  Y    0.000012   0.000104   0.001048   0.002825  -0.000543
   35  H  3  Z   -0.000015  -0.000203  -0.002548  -0.004597   0.004859
   36  H  4  S    0.000116   0.000751   0.026326   0.167062   0.126737
   37  H  4  S   -0.000083  -0.000088  -0.006258   0.069007   0.072600
   38  H  4  X   -0.000039  -0.000356  -0.003816  -0.009431  -0.002916
   39  H  4  Y   -0.000020  -0.000202  -0.002285  -0.005441  -0.003059
   40  H  4  Z   -0.000031  -0.000363  -0.004322  -0.008919  -0.006307

                      6          7          8          9         10
                   -0.5769    -0.5467    -0.4135    -0.1914     0.1911
                     A          A          A          A          A   
    1  O  1  S    0.053175   0.001645  -0.001258   0.002116   0.034403
    2  O  1  S   -0.107433  -0.004539   0.008429   0.002262  -0.012794
    3  O  1  S   -0.251051  -0.002581  -0.007987  -0.034437  -0.525488
    4  O  1  X   -0.156943  -0.187767   0.496874   0.122917   0.020458
    5  O  1  Y    0.090740   0.624638   0.175303  -0.406601  -0.025526
    6  O  1  Z    0.543917  -0.159184   0.094693   0.105878  -0.110530
    7  O  1  X   -0.036498  -0.073785   0.246718   0.079849   0.073977
    8  O  1  Y    0.024089   0.232947   0.087605  -0.297927  -0.060377
    9  O  1  Z    0.165205  -0.058274   0.050589   0.093437  -0.299393
   10  O  1 XX   -0.005491   0.003099  -0.002016   0.004636   0.016199
   11  O  1 YY   -0.003037   0.006551   0.002912   0.006770   0.031015
   12  O  1 ZZ    0.035092  -0.009975   0.003127  -0.002726   0.020170
   13  O  1 XY   -0.004462  -0.008374   0.000049  -0.003319  -0.005274
   14  O  1 XZ   -0.015255  -0.004862   0.003818  -0.003546   0.002587
   15  O  1 YZ    0.007731   0.021099   0.001729   0.011835  -0.003381
   16  C  2  S    0.009647  -0.001002  -0.000771   0.000100  -0.131172
   17  C  2  S   -0.014906   0.006576   0.000396   0.022548   0.269971
   18  C  2  S   -0.069168  -0.017669   0.018129  -0.104680   2.435238
   19  C  2  X    0.100111  -0.093491  -0.337564  -0.213024  -0.011766
   20  C  2  Y   -0.084087   0.311932  -0.117302   0.682723   0.065300
   21  C  2  Z   -0.404290  -0.086053  -0.063980  -0.170640   0.246819
   22  C  2  X   -0.016430  -0.006822  -0.041503  -0.060320  -0.055120
   23  C  2  Y    0.009006   0.050992  -0.015987   0.360611   0.069845
   24  C  2  Z    0.013240  -0.019284  -0.006544  -0.184991   0.294676
   25  C  2 XX   -0.019769  -0.002235   0.018163   0.008342  -0.003833
   26  C  2 YY   -0.008929  -0.007008  -0.004678   0.010854   0.021740
   27  C  2 ZZ    0.011888   0.010859  -0.013557  -0.007695   0.002119
   28  C  2 XY   -0.006600   0.007283  -0.003540  -0.006842  -0.010389
   29  C  2 XZ   -0.009204   0.004927  -0.036721  -0.004645   0.001043
   30  C  2 YZ    0.004306  -0.020725  -0.015125   0.021463  -0.007618
   31  H  3  S   -0.120033   0.001077   0.230184   0.009803  -0.094501
   32  H  3  S   -0.106502   0.010210   0.232649   0.075423  -1.409166
   33  H  3  X   -0.005764  -0.001289   0.006080  -0.005594   0.007772
   34  H  3  Y   -0.001900   0.004864  -0.000117   0.022215   0.004355
   35  H  3  Z   -0.000407  -0.001404  -0.005811  -0.005922   0.004935
   36  H  4  S   -0.127520   0.001798  -0.229735   0.009688  -0.076136
   37  H  4  S   -0.106080   0.001542  -0.255511   0.042689  -1.554822
   38  H  4  X    0.005573  -0.001623   0.002298  -0.007558  -0.010611
   39  H  4  Y    0.002335   0.004785   0.003520   0.021644  -0.002779
   40  H  4  Z    0.001759  -0.001353   0.007416  -0.005835  -0.001563

                     11         12         13         14         15
                    0.2167     0.3198     0.3336     0.4032     0.5760
                     A          A          A          A          A   
    1  O  1  S   -0.103070  -0.001990  -0.008820  -0.025578   0.058408
    2  O  1  S    0.097228   0.011036   0.031796   0.062676  -0.228506
    3  O  1  S    1.407431   0.012207   0.073609   0.294315  -0.474033
    4  O  1  X   -0.002099   0.026449  -0.304017   0.060376   0.028248
    5  O  1  Y   -0.011367   0.008006  -0.109599  -0.059528  -0.082494
    6  O  1  Z    0.065113   0.000085  -0.041315   0.029926   0.176931
    7  O  1  X   -0.034867  -0.100942  -0.449864  -0.015282   0.217499
    8  O  1  Y    0.117261  -0.044581  -0.158667   0.014973  -0.098234
    9  O  1  Z    0.322200  -0.016899  -0.060141   0.269870  -1.201934
   10  O  1 XX   -0.058647   0.017554  -0.001842  -0.003609  -0.054699
   11  O  1 YY   -0.053265  -0.002311   0.003303  -0.013773  -0.028798
   12  O  1 ZZ   -0.047731  -0.009291   0.007706   0.017924  -0.017303
   13  O  1 XY   -0.004189  -0.003236   0.001942   0.012937  -0.010262
   14  O  1 XZ   -0.005564  -0.034094   0.010933   0.008918  -0.003572
   15  O  1 YZ    0.007732  -0.016954   0.000670  -0.031572  -0.009492
   16  C  2  S    0.007823  -0.006673   0.005751   0.008126  -0.020994
   17  C  2  S    0.029754   0.032216   0.009308   0.141150  -0.286649
   18  C  2  S   -0.253747   0.067640  -0.122377  -0.780835   2.588704
   19  C  2  X   -0.084031  -0.796632   0.290500   0.206905   0.236615
   20  C  2  Y    0.169063  -0.340386   0.023857  -0.704209  -0.272055
   21  C  2  Z    0.130273  -0.122438   0.098190   0.391239  -0.642965
   22  C  2  X   -0.643196   0.890857   2.508138  -0.640673  -0.232845
   23  C  2  Y    0.056806   0.417375   1.033794   0.925400   0.341704
   24  C  2  Z    1.601962   0.222290   0.568695  -0.356815   0.774268
   25  C  2 XX   -0.017236  -0.008718   0.009337   0.026958  -0.091592
   26  C  2 YY   -0.004608   0.006580  -0.003052   0.019961   0.004444
   27  C  2 ZZ    0.038983   0.010272   0.002440   0.025022  -0.033259
   28  C  2 XY   -0.009515  -0.000243  -0.003022  -0.001640  -0.047421
   29  C  2 XZ   -0.017231   0.016697  -0.022546  -0.006356  -0.021061
   30  C  2 YZ    0.010823   0.007075  -0.004422   0.020047  -0.007117
   31  H  3  S    0.017067   0.055506   0.097648   0.057372  -0.276089
   32  H  3  S   -0.842565  -0.232884   2.223051  -0.099119  -0.596287
   33  H  3  X    0.004725   0.038608   0.000773   0.004120  -0.014278
   34  H  3  Y    0.010299   0.004942   0.004831  -0.002352   0.004410
   35  H  3  Z    0.018065  -0.022478   0.022363   0.003816   0.021508
   36  H  4  S    0.021046  -0.070505  -0.077692   0.086430  -0.285622
   37  H  4  S   -0.444882   0.072159  -2.216361   0.333499  -0.631926
   38  H  4  X   -0.017999   0.018609   0.006443  -0.009575  -0.002703
   39  H  4  Y    0.001555   0.013898  -0.002556  -0.006643   0.008405
   40  H  4  Z    0.011730   0.035462  -0.014555   0.002271   0.023146

                     16         17         18         19         20
                    0.6628     0.7370     0.7741     0.8108     0.9783
                     A          A          A          A          A   
    1  O  1  S   -0.006845  -0.042245  -0.002170   0.002465   0.008377
    2  O  1  S   -0.051183   0.145274   0.011660   0.026634   0.220996
    3  O  1  S    0.272573  -0.073984   0.018440  -0.118246  -0.878116
    4  O  1  X    0.148151  -0.080605   0.208525  -0.664544   0.026282
    5  O  1  Y   -0.190674   0.045603  -0.782902  -0.194122   0.048292
    6  O  1  Z   -0.625033   0.464649   0.206931  -0.090177   0.021864
    7  O  1  X   -0.241525  -0.132572  -0.343616   1.543810   0.013771
    8  O  1  Y    0.307918   0.097655   1.309684   0.469013  -0.145874
    9  O  1  Z    1.066338   0.191674  -0.297129   0.209176  -0.315948
   10  O  1 XX   -0.006086   0.052554   0.004201   0.039300   0.068140
   11  O  1 YY   -0.001964   0.065233  -0.007967   0.005270   0.084955
   12  O  1 ZZ    0.063866  -0.142058   0.006570  -0.022071   0.047827
   13  O  1 XY   -0.007528   0.010689   0.005337  -0.007588  -0.005501
   14  O  1 XZ   -0.025494   0.067331   0.001941  -0.065527   0.005548
   15  O  1 YZ    0.010561  -0.048308  -0.012054  -0.030623  -0.011741
   16  C  2  S   -0.074063   0.054128   0.006242   0.006646   0.065849
   17  C  2  S   -0.550652  -0.991012   0.083089  -0.043861  -1.083132
   18  C  2  S    0.533700   1.240465  -0.274670   0.218683   3.496959
   19  C  2  X    0.032040  -0.194624  -0.038048  -0.206724   0.090361
   20  C  2  Y   -0.054260   0.136759   0.061778  -0.090643  -0.097653
   21  C  2  Z   -0.084951   0.741439   0.008809  -0.045968  -0.375696
   22  C  2  X   -0.143529   0.122654   0.179982  -1.391693  -0.030427
   23  C  2  Y    0.069079  -0.056005  -0.658842  -0.452535   0.247005
   24  C  2  Z    0.301141  -0.265620   0.059367  -0.289958   0.697510
   25  C  2 XX   -0.089393  -0.216584   0.039313  -0.085995   0.122375
   26  C  2 YY    0.029282  -0.118313   0.002227   0.012303  -0.163243
   27  C  2 ZZ   -0.255563   0.058716  -0.004664   0.071789  -0.061317
   28  C  2 XY   -0.031632  -0.061533   0.009808   0.016856   0.126825
   29  C  2 XZ    0.072413  -0.087243   0.003380   0.154768   0.040996
   30  C  2 YZ   -0.069282   0.028225   0.042785   0.072011   0.063700
   31  H  3  S   -0.246066  -0.205869   0.076862  -0.273158   0.635305
   32  H  3  S   -0.126583  -0.141167   0.015896  -0.626289  -1.614808
   33  H  3  X    0.012351   0.034470   0.001246   0.030861  -0.118826
   34  H  3  Y   -0.005386   0.023484  -0.024613   0.004933  -0.029490
   35  H  3  Z   -0.037143   0.050615  -0.002903  -0.020406   0.007715
   36  H  4  S   -0.234634  -0.215162   0.097791   0.288499   0.711882
   37  H  4  S   -0.092975  -0.173076   0.043610   0.513932  -1.911351
   38  H  4  X    0.009059  -0.057202   0.017836   0.017233   0.103996
   39  H  4  Y   -0.006541  -0.009082  -0.017645   0.018393   0.051335
   40  H  4  Z   -0.038285   0.032492   0.002705   0.041064   0.059142

                     21         22         23         24         25
                    1.0507     1.3673     1.4444     1.5185     1.7462
                     A          A          A          A          A   
    1  O  1  S   -0.000857   0.000189  -0.049681   0.001413   0.003449
    2  O  1  S    0.004139   0.006633  -1.812929   0.067987   0.472431
    3  O  1  S    0.026144  -0.017102   4.535395  -0.161265  -1.033310
    4  O  1  X    0.449488   0.001039  -0.025941  -0.040333  -0.027182
    5  O  1  Y    0.156503  -0.000665   0.023428   0.136266   0.020781
    6  O  1  Z    0.082172  -0.000190   0.059350  -0.036581   0.093980
    7  O  1  X   -0.890808  -0.003055  -0.222231  -0.049141   0.103327
    8  O  1  Y   -0.305151  -0.001464   0.161387   0.171117  -0.078157
    9  O  1  Z   -0.146708  -0.004353   0.880406  -0.075565  -0.361652
   10  O  1 XX    0.036589  -0.089321  -0.300616  -0.038398   0.494377
   11  O  1 YY   -0.010725   0.108441  -0.416170  -0.100975  -0.333592
   12  O  1 ZZ   -0.024630  -0.014427  -0.589585   0.185019   0.096417
   13  O  1 XY   -0.006671   0.152935   0.068305   0.112858   0.351323
   14  O  1 XZ   -0.072790  -0.057090   0.088859   0.077689   0.053733
   15  O  1 YZ   -0.028300   0.019736  -0.038651  -0.328956   0.200440
   16  C  2  S   -0.003857  -0.000058  -0.014372  -0.000214  -0.018473
   17  C  2  S    0.066729   0.000604  -0.109312   0.015860  -0.126322
   18  C  2  S   -0.230467   0.008048  -1.835122   0.032943   1.212799
   19  C  2  X   -0.283763  -0.000153  -0.081701  -0.017439  -0.006641
   20  C  2  Y   -0.088998  -0.000554   0.045623   0.054579  -0.004025
   21  C  2  Z   -0.038346  -0.001266   0.277132  -0.016530   0.028327
   22  C  2  X    2.211754   0.006033  -0.289073   0.090805  -0.026539
   23  C  2  Y    0.763168   0.000747   0.219131  -0.236059   0.033295
   24  C  2  Z    0.397251  -0.002895   1.100723   0.010081   0.083182
   25  C  2 XX   -0.127108  -0.307644   0.209889   0.076456   0.327269
   26  C  2 YY    0.039509   0.362841  -0.050231   0.197442  -0.412349
   27  C  2 ZZ    0.093054  -0.055553  -0.107273  -0.281298  -0.064304
   28  C  2 XY    0.018476   0.524412   0.123256  -0.197360   0.316914
   29  C  2 XZ    0.241232  -0.197946   0.072683  -0.140799   0.059030
   30  C  2 YZ    0.097312   0.059470   0.045224   0.569086   0.160964
   31  H  3  S   -0.781148  -0.001155   0.074391  -0.008799  -0.358117
   32  H  3  S    2.464031   0.003061  -0.102094   0.026967  -0.175676
   33  H  3  X    0.057089   0.091086   0.015304  -0.062226   0.049029
   34  H  3  Y    0.001000  -0.300761   0.007643   0.211636  -0.037058
   35  H  3  Z   -0.055616   0.083928  -0.018562  -0.059996  -0.201411
   36  H  4  S    0.702868   0.000741   0.089618  -0.005168  -0.357689
   37  H  4  S   -2.233099  -0.003061  -0.135364   0.014289  -0.174550
   38  H  4  X    0.009983  -0.090434  -0.007191  -0.062407   0.051198
   39  H  4  Y    0.020413   0.303267   0.001932   0.211077  -0.035988
   40  H  4  Z    0.068424  -0.084108  -0.028349  -0.060510  -0.199343

                     26         27         28         29         30
                    1.8355     1.9056     1.9576     1.9824     2.1421
                     A          A          A          A          A   
    1  O  1  S    0.000500  -0.000330   0.034044   0.003954   0.000987
    2  O  1  S   -0.005296  -0.003621  -0.334297  -0.038016   0.179625
    3  O  1  S   -0.007208   0.012849  -0.229193  -0.012715   0.060996
    4  O  1  X    0.108631  -0.001133   0.135333  -0.058397  -0.074964
    5  O  1  Y    0.035806  -0.000527  -0.090852  -0.033883   0.051945
    6  O  1  Z    0.011994   0.001673  -0.479194  -0.059751   0.281644
    7  O  1  X   -0.119468  -0.002021  -0.062435   0.023211   0.035181
    8  O  1  Y   -0.039942   0.003501   0.053216   0.017037  -0.019868
    9  O  1  Z   -0.021814   0.000071   0.242193   0.036633  -0.133910
   10  O  1 XX    0.157500  -0.412834   0.264096  -0.223325   0.534640
   11  O  1 YY   -0.035689   0.485875  -0.351978   0.032055  -0.277409
   12  O  1 ZZ   -0.125333  -0.076845   0.001192   0.187356  -0.074284
   13  O  1 XY   -0.021014   0.697209   0.244870   0.079522   0.358419
   14  O  1 XZ   -0.332329  -0.259894  -0.024542   0.501123   0.112419
   15  O  1 YZ   -0.137836   0.084306   0.127433   0.223247   0.141808
   16  C  2  S   -0.000242   0.000093  -0.038749  -0.003556   0.064654
   17  C  2  S   -0.002100  -0.000557   0.069944   0.008439   0.052910
   18  C  2  S    0.010676  -0.005652   0.147064  -0.002692  -0.432465
   19  C  2  X    0.237247  -0.001908   0.104848  -0.105804  -0.050700
   20  C  2  Y    0.083393  -0.001038  -0.058272  -0.045298   0.038665
   21  C  2  Z    0.037045   0.001864  -0.361313  -0.056939   0.202806
   22  C  2  X    0.093409  -0.001614   0.046656   0.409108  -0.019196
   23  C  2  Y    0.028623  -0.000416  -0.092117   0.134293   0.003866
   24  C  2  Z    0.012672   0.003306  -0.354863   0.044944   0.066920
   25  C  2 XX   -0.177038  -0.011251  -0.207260   0.003592  -0.068444
   26  C  2 YY    0.038274   0.018029  -0.243585  -0.023009   0.754244
   27  C  2 ZZ    0.139394  -0.006524   0.427675   0.019195  -0.251774
   28  C  2 XY    0.039651   0.025433  -0.036463  -0.009689  -0.301299
   29  C  2 XZ    0.353159  -0.013416  -0.214207  -0.070701   0.144255
   30  C  2 YZ    0.155686   0.002079   0.159025  -0.008618  -0.322328
   31  H  3  S    0.523774  -0.006288   0.136305  -0.135574   0.199407
   32  H  3  S   -0.343569   0.004839  -0.061304   0.424324  -0.069668
   33  H  3  X   -0.311212  -0.075094   0.067642  -0.105951  -0.229177
   34  H  3  Y   -0.151346   0.270397   0.152397  -0.162386  -0.057067
   35  H  3  Z   -0.219046  -0.068227   0.505917  -0.479833   0.011409
   36  H  4  S   -0.515714   0.005006   0.115754   0.163509   0.191307
   37  H  4  S    0.336085  -0.003927   0.025803  -0.421408  -0.058825
   38  H  4  X   -0.401145   0.090256  -0.225013  -0.392645   0.194103
   39  H  4  Y   -0.098664  -0.268533   0.017745   0.007658   0.092460
   40  H  4  Z    0.091492   0.068852   0.344397   0.477927   0.092462

                     31         32         33         34         35
                    2.2109     2.5148     2.7105     2.7677     2.7811
                     A          A          A          A          A   
    1  O  1  S    0.000014   0.000060  -0.000207  -0.020025   0.000821
    2  O  1  S   -0.006270   0.000477   0.016762  -0.830386   0.009486
    3  O  1  S    0.000457  -0.001410  -0.034432   2.061557  -0.041984
    4  O  1  X    0.025492  -0.000343  -0.034272  -0.013781  -0.023378
    5  O  1  Y   -0.075243   0.000574   0.112641   0.013439  -0.011759
    6  O  1  Z    0.009875  -0.000193  -0.030864   0.052244  -0.014846
    7  O  1  X   -0.074969   0.000723  -0.093687  -0.246415  -0.485685
    8  O  1  Y    0.234726   0.005362   0.309322   0.165799  -0.180244
    9  O  1  Z   -0.055206  -0.000886  -0.100052   0.870096  -0.116239
   10  O  1 XX    0.050259   0.171352   0.130537  -0.378291   0.316396
   11  O  1 YY    0.135217  -0.195618   0.298700  -0.507357  -0.067678
   12  O  1 ZZ   -0.191781   0.025100  -0.428845   0.659157  -0.247403
   13  O  1 XY   -0.135053  -0.294045  -0.286604  -0.039683  -0.058499
   14  O  1 XZ   -0.093177   0.105918  -0.200017  -0.373478  -0.605119
   15  O  1 YZ    0.383517  -0.020085   0.830680   0.289574  -0.270733
   16  C  2  S   -0.001444  -0.000081   0.000742  -0.083458  -0.000806
   17  C  2  S    0.013120   0.000426   0.012896  -0.441840   0.023208
   18  C  2  S   -0.025751   0.000303  -0.000579  -0.218797   0.012807
   19  C  2  X    0.102933  -0.001105   0.083869  -0.249842   0.856550
   20  C  2  Y   -0.339094  -0.006197  -0.250754   0.188080   0.300595
   21  C  2  Z    0.088457   0.000914   0.053510   0.986345   0.145901
   22  C  2  X    0.079980  -0.003673   0.031754  -0.085656   0.889807
   23  C  2  Y   -0.233225  -0.002403  -0.079537   0.083500   0.315292
   24  C  2  Z    0.046692  -0.000724   0.012668   0.397082   0.172528
   25  C  2 XX   -0.022762  -0.379595   0.132829  -0.317581   0.134461
   26  C  2 YY   -0.056813   0.452961   0.283280  -0.189963  -0.041580
   27  C  2 ZZ    0.071736  -0.074079  -0.416423   0.131816  -0.096257
   28  C  2 XY    0.040663   0.644871  -0.296104  -0.088638  -0.017794
   29  C  2 XZ    0.025678  -0.244281  -0.195328  -0.139502  -0.275287
   30  C  2 YZ   -0.118157   0.086122   0.824185   0.076411  -0.114871
   31  H  3  S    0.002662   0.001604  -0.000193   0.010399   0.020282
   32  H  3  S    0.015970  -0.004844   0.013439  -0.312953   0.990090
   33  H  3  X   -0.189840  -0.176897   0.083054  -0.361642   0.470645
   34  H  3  Y    0.638455   0.580795  -0.243763  -0.198266   0.013228
   35  H  3  Z   -0.170368  -0.157117   0.069553  -0.305782  -0.485122
   36  H  4  S    0.002685  -0.001566  -0.000071   0.006642  -0.029204
   37  H  4  S    0.008699   0.004941   0.002753  -0.353210  -0.981585
   38  H  4  X   -0.197683   0.176287   0.060663   0.487450   0.177108
   39  H  4  Y    0.636953  -0.586031  -0.226590   0.110873   0.220980
   40  H  4  Z   -0.169999   0.156959   0.067013  -0.114349   0.614472

                     36         37         38         39         40
                    2.9823     3.2288     3.4976     4.0109     4.2525
                     A          A          A          A          A   
    1  O  1  S   -0.057614  -0.011162   0.001289   0.050905  -0.543230
    2  O  1  S   -0.024910   0.451232  -0.001327   0.050309  -0.076332
    3  O  1  S    1.569737  -0.503504  -0.002078  -0.175654   4.881420
    4  O  1  X   -0.172999  -0.061084   0.140193  -0.091441   0.066564
    5  O  1  Y    0.118664   0.042816   0.051417   0.066740  -0.047253
    6  O  1  Z    0.634539   0.224586   0.033133   0.345386  -0.251180
    7  O  1  X   -0.226740   0.046116   0.234434  -0.048104  -0.171811
    8  O  1  Y    0.151413  -0.028864   0.083793   0.034377   0.123215
    9  O  1  Z    0.793699  -0.153497   0.048325   0.193486   0.656273
   10  O  1 XX   -0.431640  -0.125675  -0.248194   0.209425  -1.733874
   11  O  1 YY   -0.493361   0.110481   0.065570   0.105226  -1.783297
   12  O  1 ZZ    0.871164   0.083142   0.196834   0.387816  -1.757262
   13  O  1 XY   -0.085465  -0.105732   0.049495   0.028932   0.022499
   14  O  1 XZ   -0.456453  -0.039946   0.506447  -0.061834   0.007549
   15  O  1 YZ    0.306203  -0.031992   0.214195   0.076367   0.011659
   16  C  2  S    0.028707  -0.119435   0.006371  -0.482484  -0.067391
   17  C  2  S   -1.087956   0.835477  -0.044905   2.526844   0.276111
   18  C  2  S   -1.275409   1.163800  -0.028608   0.963620  -1.271541
   19  C  2  X   -0.224804  -0.175586   0.853077  -0.005492   0.056749
   20  C  2  Y    0.163086   0.137998   0.300938   0.008362  -0.038527
   21  C  2  Z    0.849000   0.696986   0.159616   0.045312  -0.202351
   22  C  2  X    0.055373  -0.005419  -0.183714  -0.027887  -0.215217
   23  C  2  Y   -0.027066   0.001404  -0.066026   0.020643   0.149136
   24  C  2  Z   -0.135510   0.002050  -0.040594   0.085766   0.775676
   25  C  2 XX    0.344224   0.686404  -0.621992  -1.965043  -0.377804
   26  C  2 YY    0.445897  -0.504009   0.187781  -1.458584  -0.164327
   27  C  2 ZZ   -0.940642  -0.562990   0.481728  -2.000504   0.153596
   28  C  2 XY    0.059053   0.563337   0.126479  -0.185405  -0.121844
   29  C  2 XZ    0.424990   0.314734   1.287543   0.081655  -0.148894
   30  C  2 YZ   -0.327595   0.133988   0.532304  -0.176769   0.046447
   31  H  3  S    0.076233  -0.548981   0.789555   0.444366   0.204379
   32  H  3  S    0.408277  -0.478111   0.043620  -0.240503  -0.099061
   33  H  3  X    0.396271  -0.738573   0.877282   0.394391   0.044550
   34  H  3  Y    0.189078  -0.073648   0.223679   0.079543  -0.015561
   35  H  3  Z    0.248651   0.542364  -0.144742  -0.139720  -0.104740
   36  H  4  S    0.080864  -0.572254  -0.771145   0.425924   0.200062
   37  H  4  S    0.376123  -0.470074  -0.020053  -0.236645  -0.095341
   38  H  4  X   -0.483710   0.412477   0.699224  -0.270771   0.014957
   39  H  4  Y   -0.121725   0.336244   0.331800  -0.155859  -0.024619
   40  H  4  Z    0.083538   0.771929   0.438144  -0.266974  -0.104948

  ----- BETA SET ----- 

          ------------
          EIGENVECTORS
          ------------

                      1          2          3          4          5
                  -19.7410   -10.6012    -1.1860    -0.6691    -0.5364
                     A          A          A          A          A   
    1  O  1  S    0.999063  -0.000286  -0.210634   0.104593   0.057295
    2  O  1  S    0.002243   0.000549   0.455807  -0.230649  -0.106204
    3  O  1  S    0.003473  -0.001467   0.309132  -0.283845  -0.268408
    4  O  1  X   -0.000375  -0.000091  -0.050394  -0.058926  -0.105320
    5  O  1  Y    0.000255   0.000070   0.031908   0.049531   0.108322
    6  O  1  Z    0.001361   0.000364   0.173466   0.266117   0.529239
    7  O  1  X   -0.000060   0.000202  -0.002142  -0.022268  -0.020340
    8  O  1  Y    0.000045  -0.000142  -0.002159   0.028245   0.033375
    9  O  1  Z    0.000227  -0.000758  -0.012357   0.117892   0.176739
   10  O  1 XX   -0.001575   0.000065  -0.007674   0.002422   0.000606
   11  O  1 YY   -0.001294   0.000104  -0.003773  -0.001628   0.000026
   12  O  1 ZZ   -0.000593   0.000007   0.025259   0.015030   0.031419
   13  O  1 XY   -0.000189  -0.000012  -0.004536   0.000657  -0.001562
   14  O  1 XZ   -0.000277   0.000023  -0.009644  -0.005962  -0.010126
   15  O  1 YZ    0.000126  -0.000022   0.005870   0.004357   0.007674
   16  C  2  S   -0.000075   0.996910  -0.114315  -0.165643   0.016654
   17  C  2  S    0.000031   0.016523   0.208474   0.346968  -0.023622
   18  C  2  S   -0.000740   0.001017   0.109619   0.192690  -0.078979
   19  C  2  X   -0.000132   0.000513   0.053294  -0.031148   0.147978
   20  C  2  Y    0.000091  -0.000368  -0.037921   0.023723  -0.061153
   21  C  2  Z    0.000480  -0.001720  -0.197223   0.135179  -0.393382
   22  C  2  X   -0.000128  -0.000031   0.001089  -0.011524  -0.008469
   23  C  2  Y    0.000082   0.000034   0.000944  -0.008359   0.014558
   24  C  2  Z    0.000448   0.000100   0.010833   0.033020   0.019570
   25  C  2 XX   -0.000131  -0.004696  -0.010939   0.018331  -0.019818
   26  C  2 YY   -0.000057  -0.005107  -0.017131  -0.009849  -0.004328
   27  C  2 ZZ   -0.000587  -0.003852   0.028966   0.001394   0.009423
   28  C  2 XY    0.000012   0.000104  -0.000841   0.012198  -0.008946
   29  C  2 XZ    0.000168  -0.000304  -0.013978   0.002783  -0.009584
   30  C  2 YZ   -0.000124   0.000326   0.011101   0.005591   0.001400
   31  H  3  S    0.000080   0.000532   0.028852   0.160762  -0.137628
   32  H  3  S   -0.000039  -0.000181  -0.000605   0.075739  -0.127022
   33  H  3  X    0.000056   0.000355   0.005320   0.012407  -0.007503
   34  H  3  Y    0.000017   0.000073   0.000893   0.002487  -0.001960
   35  H  3  Z   -0.000002  -0.000139  -0.002659  -0.003672   0.000109
   36  H  4  S    0.000073   0.000510   0.028902   0.163843  -0.106662
   37  H  4  S   -0.000027  -0.000193  -0.004242   0.091997  -0.105269
   38  H  4  X   -0.000044  -0.000241  -0.003526  -0.009239   0.005766
   39  H  4  Y   -0.000019  -0.000135  -0.002235  -0.005349   0.002150
   40  H  4  Z   -0.000021  -0.000242  -0.004334  -0.008000   0.000519

                      6          7          8          9         10
                   -0.5094    -0.4506    -0.1009     0.0864     0.2197
                     A          A          A          A          A   
    1  O  1  S   -0.008018   0.001211  -0.003211   0.009051  -0.008816
    2  O  1  S    0.018184  -0.004274   0.015900   0.002140   0.027821
    3  O  1  S    0.028237  -0.000286  -0.012115  -0.135825   0.052472
    4  O  1  X    0.260651  -0.183088   0.548107   0.106014   0.015879
    5  O  1  Y    0.066431   0.594654   0.196366  -0.361509  -0.039348
    6  O  1  Z   -0.000307  -0.158124   0.094392   0.089492  -0.060161
    7  O  1  X    0.100117  -0.091727   0.376694   0.087749   0.057414
    8  O  1  Y    0.024430   0.281903   0.134593  -0.372642  -0.032028
    9  O  1  Z    0.002727  -0.074588   0.068791   0.104121  -0.149410
   10  O  1 XX   -0.010282   0.004717  -0.005967   0.010975  -0.006121
   11  O  1 YY    0.003673   0.008772   0.006356   0.012875   0.009352
   12  O  1 ZZ    0.005594  -0.014327   0.007931   0.000826  -0.001319
   13  O  1 XY    0.001861  -0.011403   0.000106  -0.003170  -0.006093
   14  O  1 XZ    0.020427  -0.006206   0.012288  -0.004152   0.001342
   15  O  1 YZ    0.006869   0.028699   0.005514   0.012989  -0.000457
   16  C  2  S    0.001883  -0.001315  -0.000080   0.000996  -0.116756
   17  C  2  S   -0.003714   0.006347  -0.001296   0.030179   0.255038
   18  C  2  S   -0.008006  -0.015722   0.026111  -0.168099   2.170107
   19  C  2  X    0.461395  -0.072002  -0.116186  -0.172730  -0.043359
   20  C  2  Y    0.169763   0.272619  -0.032142   0.527701   0.133205
   21  C  2  Z    0.129514  -0.068931  -0.014073  -0.127870   0.293853
   22  C  2  X    0.110019  -0.005480   0.125782  -0.045029  -0.312619
   23  C  2  Y    0.039175   0.061841   0.046986   0.564269   0.135674
   24  C  2  Z    0.017168  -0.021355   0.020242  -0.380001   0.865583
   25  C  2 XX    0.004485  -0.003659   0.021755   0.010502   0.001791
   26  C  2 YY    0.000009  -0.010176  -0.005518   0.011478   0.003518
   27  C  2 ZZ   -0.002696   0.015877  -0.015889  -0.003355   0.028867
   28  C  2 XY   -0.000713   0.010583  -0.003704  -0.004202  -0.002908
   29  C  2 XZ   -0.003825   0.007499  -0.043376  -0.002008  -0.008500
   30  C  2 YZ   -0.001929  -0.029762  -0.018342   0.015109   0.006660
   31  H  3  S   -0.184954  -0.002264   0.167196   0.015145  -0.048143
   32  H  3  S   -0.097217   0.009763   0.381829   0.181583  -1.650744
   33  H  3  X   -0.009489  -0.001266   0.001562  -0.005705   0.005440
   34  H  3  Y    0.000071   0.004530  -0.000159   0.024128   0.008447
   35  H  3  Z    0.008704  -0.001097  -0.000631  -0.007256   0.012397
   36  H  4  S    0.203036   0.007843  -0.164472   0.013774  -0.026924
   37  H  4  S    0.131615   0.005789  -0.405802   0.096120  -1.637879
   38  H  4  X   -0.004674  -0.001703   0.000743  -0.008019  -0.014892
   39  H  4  Y   -0.005414   0.004307   0.001607   0.023805   0.000371
   40  H  4  Z   -0.011042  -0.001427   0.001545  -0.006347   0.004793

                     11         12         13         14         15
                    0.2281     0.3283     0.3751     0.4546     0.5981
                     A          A          A          A          A   
    1  O  1  S   -0.110234  -0.002810  -0.005497   0.025059   0.065041
    2  O  1  S    0.082087   0.015624   0.021396  -0.062226  -0.220327
    3  O  1  S    1.538184   0.012960   0.047258  -0.282742  -0.586278
    4  O  1  X    0.005706  -0.043832  -0.340403  -0.049786   0.006537
    5  O  1  Y   -0.032122  -0.010046  -0.118353   0.040562  -0.056194
    6  O  1  Z    0.090242  -0.011076  -0.048657  -0.011898   0.260995
    7  O  1  X   -0.045529  -0.229711  -0.585791   0.041619   0.267177
    8  O  1  Y    0.093475  -0.083350  -0.202447  -0.098472  -0.136729
    9  O  1  Z    0.410304  -0.050950  -0.102374  -0.267934  -1.341060
   10  O  1 XX   -0.065834   0.016638  -0.003813   0.004198  -0.045379
   11  O  1 YY   -0.062480  -0.000813   0.002537   0.016163  -0.028296
   12  O  1 ZZ   -0.046226  -0.007114   0.008682  -0.027135  -0.030355
   13  O  1 XY   -0.004447  -0.002865   0.002683  -0.015839  -0.004083
   14  O  1 XZ   -0.009202  -0.030208   0.015148  -0.010222   0.003714
   15  O  1 YZ    0.010919  -0.015729   0.002945   0.042246  -0.014627
   16  C  2  S    0.055570  -0.006104   0.006301  -0.009664  -0.014648
   17  C  2  S   -0.060396   0.029417   0.000648  -0.140181  -0.231435
   18  C  2  S   -1.192043   0.083424  -0.114929   0.857790   2.659250
   19  C  2  X   -0.069868  -0.705268   0.481327  -0.222116   0.235174
   20  C  2  Y    0.146993  -0.308925   0.105917   0.821576  -0.289464
   21  C  2  Z   -0.008640  -0.105528   0.113817  -0.413832  -0.620998
   22  C  2  X   -0.575336   1.546363   2.382167   0.520240  -0.236985
   23  C  2  Y    0.126923   0.629370   0.930698  -0.851797   0.329356
   24  C  2  Z    1.370800   0.377824   0.520019   0.369800   0.702314
   25  C  2 XX   -0.018319  -0.008306   0.006478  -0.028298  -0.078508
   26  C  2 YY   -0.000016   0.004787  -0.002851  -0.023687  -0.009054
   27  C  2 ZZ    0.027559   0.011410   0.000892  -0.019314  -0.003854
   28  C  2 XY   -0.011721   0.000455  -0.003350   0.003225  -0.039203
   29  C  2 XZ   -0.015157   0.014385  -0.017899   0.006129  -0.030425
   30  C  2 YZ    0.007669   0.007163  -0.003774  -0.021163   0.007691
   31  H  3  S    0.040485   0.081965   0.045566  -0.061463  -0.238199
   32  H  3  S   -0.198752   0.349319   2.323051   0.004253  -0.654123
   33  H  3  X    0.001327   0.036530  -0.007805  -0.007687  -0.015679
   34  H  3  Y    0.010328   0.004825   0.002563   0.011466   0.003488
   35  H  3  Z    0.012690  -0.016796   0.025405  -0.004559   0.024849
   36  H  4  S    0.030591  -0.093548  -0.031705  -0.078608  -0.246061
   37  H  4  S    0.173179  -0.533434  -2.265253  -0.346958  -0.656207
   38  H  4  X   -0.013207   0.019361   0.002168   0.004791  -0.002386
   39  H  4  Y    0.004715   0.012244  -0.006189   0.015147   0.008223
   40  H  4  Z    0.008705   0.031118  -0.021300  -0.003849   0.027494

                     16         17         18         19         20
                    0.6853     0.7660     0.8136     0.8670     1.0165
                     A          A          A          A          A   
    1  O  1  S   -0.002390  -0.049952  -0.003593   0.002256   0.004427
    2  O  1  S   -0.079752   0.152094   0.015272   0.033432   0.238499
    3  O  1  S    0.199359   0.000567   0.023525  -0.125375  -0.852741
    4  O  1  X    0.146521  -0.104248   0.233127  -0.671023   0.021254
    5  O  1  Y   -0.193280   0.082989  -0.815606  -0.218888   0.056408
    6  O  1  Z   -0.558244   0.510237   0.233514  -0.095198   0.057376
    7  O  1  X   -0.233425  -0.098118  -0.381078   1.380794   0.012509
    8  O  1  Y    0.287717   0.047741   1.275008   0.449370  -0.140214
    9  O  1  Z    0.909522   0.160753  -0.295419   0.184446  -0.313472
   10  O  1 XX   -0.012703   0.037892   0.003585   0.042217   0.070649
   11  O  1 YY   -0.000429   0.066600  -0.006127   0.005713   0.088619
   12  O  1 ZZ    0.047539  -0.147702   0.003403  -0.020832   0.045037
   13  O  1 XY   -0.009121   0.003070   0.006029  -0.007595  -0.004929
   14  O  1 XZ   -0.019424   0.065114   0.004928  -0.068552   0.009752
   15  O  1 YZ    0.004090  -0.051770  -0.013052  -0.031654  -0.013004
   16  C  2  S   -0.074400   0.061559   0.007905   0.006617   0.075038
   17  C  2  S   -0.703784  -0.911147   0.059824  -0.041328  -1.075389
   18  C  2  S    1.161914   0.990802  -0.263258   0.200463   3.330342
   19  C  2  X    0.043141  -0.202575  -0.052234  -0.211473   0.087135
   20  C  2  Y   -0.071800   0.143883   0.116144  -0.090692  -0.090795
   21  C  2  Z   -0.095509   0.763820   0.015174  -0.051518  -0.341902
   22  C  2  X   -0.146607   0.111560   0.229200  -1.022278  -0.044182
   23  C  2  Y    0.114598  -0.055033  -0.653483  -0.342012   0.224244
[...]
    5  O  1  Y    0.065202  -0.594973  -0.193779   0.361834   0.039154
    6  O  1  Z    0.000567   0.160628  -0.096704  -0.091119   0.058103
    7  O  1  X    0.100230   0.089757  -0.377157  -0.085828  -0.057076
    8  O  1  Y    0.023953  -0.281741  -0.132901   0.374424   0.030151
    9  O  1  Z    0.003079   0.075848  -0.070362  -0.105058   0.140133
   10  O  1 XX   -0.010447  -0.004704   0.006078  -0.010751   0.007766
   11  O  1 YY    0.003692  -0.009031  -0.006394  -0.012750  -0.007916
   12  O  1 ZZ    0.005735   0.014509  -0.008054  -0.000627   0.002294
   13  O  1 XY    0.001957   0.011541  -0.000174   0.003201   0.006055
   14  O  1 XZ    0.020381   0.005926  -0.012257   0.003991  -0.001184
   15  O  1 YZ    0.006787  -0.028619  -0.005462  -0.012784   0.000407
   16  C  2  S    0.001914   0.001314   0.000118  -0.000786   0.115431
   17  C  2  S   -0.003789  -0.006218   0.001187  -0.029245  -0.253104
   18  C  2  S   -0.008056   0.014894  -0.026310   0.158293  -2.144804
   19  C  2  X    0.461774   0.070505   0.116448   0.168851   0.043506
   20  C  2  Y    0.167859  -0.273080   0.031676  -0.526102  -0.134289
   21  C  2  Z    0.131455   0.070165   0.014539   0.129845  -0.293641
   22  C  2  X    0.109882   0.005212  -0.125612   0.042953   0.331185
   23  C  2  Y    0.038693  -0.062386  -0.046136  -0.568572  -0.143040
   24  C  2  Z    0.017573   0.021320  -0.020617   0.374001  -0.895523
   25  C  2 XX    0.004534   0.003653  -0.022104  -0.010187  -0.001190
   26  C  2 YY    0.000005   0.010452   0.005563  -0.011252  -0.003444
   27  C  2 ZZ   -0.002737  -0.016063   0.016174   0.003561  -0.029260
   28  C  2 XY   -0.000735  -0.010733   0.003893   0.004244   0.003250
   29  C  2 XZ   -0.003793  -0.007207   0.043265   0.001897   0.008958
   30  C  2 YZ   -0.001940   0.029691   0.018172  -0.015053  -0.006851
   31  H  3  S   -0.184893   0.002226  -0.167201  -0.014755   0.047689
   32  H  3  S   -0.097035  -0.009528  -0.381186  -0.174952   1.656116
   33  H  3  X   -0.009543   0.001246  -0.001566   0.005579  -0.005439
   34  H  3  Y    0.000142  -0.004523   0.000173  -0.023999  -0.008541
   35  H  3  Z    0.008666   0.001118   0.000628   0.007279  -0.012765
   36  H  4  S    0.203041  -0.007717   0.164518  -0.013207   0.026546
   37  H  4  S    0.131643  -0.005317   0.405572  -0.089063   1.634007
   38  H  4  X   -0.004665   0.001661  -0.000760   0.007793   0.015185
   39  H  4  Y   -0.005407  -0.004316  -0.001596  -0.023745  -0.000407
   40  H  4  Z   -0.011061   0.001436  -0.001546   0.006356  -0.004920

                     11         12         13         14         15
                    0.2280     0.3282     0.3754     0.4529     0.5964
                     A          A          A          A          A   
    1  O  1  S   -0.109955  -0.002721   0.005548   0.024152  -0.065399
    2  O  1  S    0.081610   0.015616  -0.021767  -0.059774   0.221036
    3  O  1  S    1.535460   0.011510  -0.047154  -0.272821   0.592141
    4  O  1  X    0.004433  -0.042813   0.341242  -0.049948  -0.004143
    5  O  1  Y   -0.029841  -0.009183   0.116708   0.037586   0.050974
    6  O  1  Z    0.091582  -0.011251   0.050014  -0.012685  -0.254565
    7  O  1  X   -0.047950  -0.227324   0.586370   0.036732  -0.274154
    8  O  1  Y    0.095576  -0.081623   0.199544  -0.095266   0.147261
    9  O  1  Z    0.411707  -0.051977   0.104307  -0.256377   1.332069
   10  O  1 XX   -0.065551   0.016925   0.003825   0.004367   0.045093
   11  O  1 YY   -0.062537  -0.000810  -0.002558   0.016577   0.027720
   12  O  1 ZZ   -0.046197  -0.007200  -0.008915  -0.027240   0.030119
   13  O  1 XY   -0.004319  -0.002951  -0.002792  -0.015992   0.004124
   14  O  1 XZ   -0.009227  -0.030149  -0.015027  -0.009869  -0.003389
   15  O  1 YZ    0.010828  -0.015734  -0.002717   0.042246   0.014258
   16  C  2  S    0.058213  -0.006278  -0.006372  -0.009468   0.015295
   17  C  2  S   -0.067163   0.029627  -0.000639  -0.133169   0.243453
   18  C  2  S   -1.236849   0.087127   0.117601   0.820977  -2.689456
   19  C  2  X   -0.067420  -0.707023  -0.479746  -0.219373  -0.235724
   20  C  2  Y    0.140395  -0.308258  -0.099874   0.826647   0.286242
   21  C  2  Z   -0.016130  -0.107748  -0.116504  -0.409503   0.623928
   22  C  2  X   -0.575218   1.538170  -2.388586   0.526850   0.237131
   23  C  2  Y    0.131601   0.621015  -0.924142  -0.854252  -0.326409
   24  C  2  Z    1.348736   0.381286  -0.528710   0.371159  -0.705341
   25  C  2 XX   -0.018508  -0.008502  -0.006553  -0.027061   0.080445
   26  C  2 YY   -0.000209   0.004817   0.002829  -0.022895   0.009963
   27  C  2 ZZ    0.026699   0.011484  -0.000792  -0.018135   0.007039
   28  C  2 XY   -0.011585   0.000522   0.003460   0.003456   0.038801
   29  C  2 XZ   -0.015174   0.014352   0.017972   0.005916   0.029977
   30  C  2 YZ    0.007590   0.007103   0.003674  -0.020761  -0.006426
   31  H  3  S    0.041473   0.081540  -0.046144  -0.058230   0.241262
   32  H  3  S   -0.163277   0.339127  -2.325474   0.019332   0.660446
   33  H  3  X    0.001179   0.036661   0.007789  -0.007258   0.015873
   34  H  3  Y    0.009998   0.004526  -0.002619   0.011830  -0.003402
   35  H  3  Z    0.012413  -0.016650  -0.025399  -0.004662  -0.024385
   36  H  4  S    0.030698  -0.093568   0.032240  -0.075871   0.249297
   37  H  4  S    0.210478  -0.526768   2.265113  -0.347004   0.663259
   38  H  4  X   -0.012787   0.019277  -0.002271   0.004630   0.002155
   39  H  4  Y    0.004688   0.012154   0.006310   0.015202  -0.008219
   40  H  4  Z    0.008604   0.031218   0.021236  -0.004067  -0.027120

                     16         17         18         19
                    0.6848     0.7657     0.8124     0.8669
                     A          A          A          A   
    1  O  1  S   -0.002968  -0.050010  -0.003549  -0.002215
    2  O  1  S   -0.077377   0.152551   0.013571  -0.033797
    3  O  1  S    0.202683   0.000606   0.025476   0.125943
    4  O  1  X    0.146552  -0.106974   0.228477   0.671485
    5  O  1  Y   -0.190272   0.088589  -0.817786   0.215560
    6  O  1  Z   -0.559994   0.509125   0.237415   0.097335
    7  O  1  X   -0.236927  -0.098122  -0.373714  -1.382377
    8  O  1  Y    0.286314   0.043426   1.277362  -0.442892
    9  O  1  Z    0.921509   0.161858  -0.301693  -0.189946
   10  O  1 XX   -0.011990   0.037469   0.003041  -0.042850
   11  O  1 YY    0.000199   0.066427  -0.006469  -0.005747
   12  O  1 ZZ    0.047343  -0.146881   0.003007   0.021330
   13  O  1 XY   -0.009111   0.003694   0.005988   0.007851
   14  O  1 XZ   -0.019661   0.065944   0.004962   0.068259
   15  O  1 YZ    0.004491  -0.052647  -0.013373   0.031464
   16  C  2  S   -0.074130   0.061640   0.007457  -0.006742
   17  C  2  S   -0.704801  -0.909983   0.055260   0.042535
   18  C  2  S    1.144537   0.986001  -0.250769  -0.203139
   19  C  2  X    0.040515  -0.205743  -0.050658   0.211982
   20  C  2  Y   -0.067905   0.147278   0.112803   0.089609
   21  C  2  Z   -0.089556   0.763353   0.015731   0.051941
   22  C  2  X   -0.145270   0.112916   0.223183   1.024136
   23  C  2  Y    0.113102  -0.055168  -0.648461   0.337788
   24  C  2  Z    0.401815  -0.304510   0.071644   0.218708
   25  C  2 XX   -0.112341  -0.222312   0.032972   0.103575
   26  C  2 YY    0.001336  -0.110761   0.007533  -0.017306
   27  C  2 ZZ   -0.256638   0.082137  -0.011955  -0.084519
   28  C  2 XY   -0.031228  -0.068792  -0.000766  -0.021517
   29  C  2 XZ    0.062970  -0.097305  -0.005310  -0.191098
   30  C  2 YZ   -0.061457   0.029539   0.054135  -0.086796
   31  H  3  S   -0.272236  -0.183662   0.065019   0.343562
   32  H  3  S   -0.304530  -0.079630   0.049680   0.280872
   33  H  3  X    0.011961   0.036653   0.000844  -0.037360
   34  H  3  Y   -0.003445   0.025951  -0.018699  -0.004710
   35  H  3  Z   -0.029973   0.054891  -0.001618   0.025091
   36  H  4  S   -0.262943  -0.196007   0.075176  -0.372177
   37  H  4  S   -0.305307  -0.086551   0.029291  -0.169501
   38  H  4  X    0.005730  -0.062299   0.013201  -0.022299
   39  H  4  Y   -0.005767  -0.008815  -0.013727  -0.020693
   40  H  4  Z   -0.031918   0.035143   0.001817  -0.047924

     ------------------------------------------
     PROPERTIES FOR THE BHHLYP   DFT FUNCTIONAL
      USING THE RELAXED DENSITY OF EXCITED STATE    1
     ------------------------------------------

          -----------------
          ENERGY COMPONENTS
          -----------------

         WAVEFUNCTION NORMALIZATION =       1.0000000000

                ONE ELECTRON ENERGY =    -218.0712927687
                TWO ELECTRON ENERGY =      72.0506009735
           NUCLEAR REPULSION ENERGY =      31.5169024513
          EFFECTIVE FRAGMENT ENERGY =      -0.0071628783
                                      ------------------
                       TOTAL ENERGY =    -114.5109522223

 ELECTRON-ELECTRON POTENTIAL ENERGY =      72.0506009735
  NUCLEUS-ELECTRON POTENTIAL ENERGY =    -331.7676790601
   NUCLEUS-NUCLEUS POTENTIAL ENERGY =      31.5169024513
 ELECTRON-FRAGMENT MULTIPOLE ENERGY =      -0.0231319987
 ELECTRON-FRAGMENT REMAINDER ENERGY =       0.0047751504
        STATIC INTERFRAGMENT ENERGY =      -0.0331334100
            FRAGMENT-NUCLEAR ENERGY =      -0.0011358503
    TOTAL FRAGMENT INDUCTION ENERGY =      -0.0122568604
 ELECTRON-FRAGMENT EXCHANGE REPULSION =      0.0000000000
                                      ------------------
             TOTAL POTENTIAL ENERGY =    -228.2650586042
                                      ------------------
            SOLUTE POTENTIAL ENERGY =    -228.2001756353
              SOLUTE KINETIC ENERGY =     113.7541063819
                 VIRIAL RATIO (V/T) =       2.0060829705

          ---------------------------------------
          MULLIKEN AND LOWDIN POPULATION ANALYSES
          ---------------------------------------

     ATOMIC MULLIKEN POPULATION IN EACH MOLECULAR ORBITAL
        ALPHA ORBITALS

                      1          2          3          4          5

                  1.000000   1.000000   1.000000   1.000000   1.000000

    1             1.000196  -0.000162   0.747641   0.294386   0.567775
    2            -0.000194   1.000058   0.249653   0.476085   0.298176
    3            -0.000001   0.000054   0.001777   0.111116   0.069871
    4            -0.000001   0.000050   0.000929   0.118414   0.064178

                      6          7          8          9

                  1.000000   1.000000   1.000000   1.000000

    1             0.574756   0.773387   0.386681   0.199514
    2             0.276120   0.225713   0.223363   0.789479
    3             0.071311   0.000445   0.190534   0.005415
    4             0.077812   0.000456   0.199421   0.005592

     ATOMIC MULLIKEN POPULATION IN EACH MOLECULAR ORBITAL
         BETA ORBITALS

                      1          2          3          4          5

                  1.000000   1.000000   1.000000   1.000000   1.000000

    1             1.000166  -0.000212   0.700529   0.342253   0.556973
    2            -0.000165   1.000167   0.294717   0.412969   0.278752
    3            -0.000000   0.000024   0.002855   0.115809   0.100007
    4            -0.000000   0.000020   0.001899   0.128969   0.064267

                      6          7

                  1.000000   1.000000

    1             0.180595   0.796330
    2             0.531202   0.202726
    3             0.124779   0.000359
    4             0.163424   0.000585

     ATOMIC SPIN POPULATION (ALPHA MINUS BETA)
       ATOM         MULL.POP.                    LOW.POP.
    1 O            -0.117193                    -0.103988
    2 C             0.129013                     0.106540
    3 H            -0.005649                    -0.001052
    4 H            -0.006172                    -0.001499


          ********* ALL ELECTRONS ********

               ----- POPULATIONS IN EACH AO -----
                             MULLIKEN      LOWDIN
              1  O  1  S      1.99856     1.97482
              2  O  1  S      0.94618     0.70143
              3  O  1  S      0.81502     0.46579
              4  O  1  X      1.31474     1.23823
              5  O  1  Y      0.98055     0.90374
              6  O  1  Z      1.11578     1.02701
              7  O  1  X      0.47863     0.54938
              8  O  1  Y      0.39905     0.45722
              9  O  1  Z      0.27542     0.40907
             10  O  1 XX     -0.00342     0.17154
             11  O  1 YY     -0.00300     0.17153
             12  O  1 ZZ      0.01315     0.19681
             13  O  1 XY      0.00132     0.00172
             14  O  1 XZ      0.00732     0.01642
             15  O  1 YZ      0.00980     0.01396
             16  C  2  S      1.99612     1.97317
             17  C  2  S      0.76542     0.39330
             18  C  2  S      0.44946     0.31231
             19  C  2  X      0.93043     0.76657
             20  C  2  Y      0.58400     0.50354
             21  C  2  Z      0.85569     0.72215
             22  C  2  X      0.07849     0.24420
             23  C  2  Y      0.11264     0.19306
             24  C  2  Z      0.03664     0.17584
             25  C  2 XX      0.01266     0.16796
             26  C  2 YY     -0.01058     0.11178
             27  C  2 ZZ      0.02755     0.20865
             28  C  2 XY      0.00343     0.00608
             29  C  2 XZ      0.03887     0.08863
             30  C  2 YZ      0.01797     0.03744
             31  H  3  S      0.52028     0.49787
             32  H  3  S      0.32639     0.35294
             33  H  3  X      0.01003     0.02886
             34  H  3  Y      0.00150     0.00554
             35  H  3  Z      0.00220     0.00831
             36  H  4  S      0.52137     0.49807
             37  H  4  S      0.35692     0.36422
             38  H  4  X      0.00535     0.01645
             39  H  4  Y      0.00284     0.00862
             40  H  4  Z      0.00523     0.01580

          ----- MULLIKEN ATOMIC OVERLAP POPULATIONS -----
          (OFF-DIAGONAL ELEMENTS NEED TO BE MULTIPLIED BY 2)

             1           2           3           4

    1    7.8099894
    2    0.6621013   4.5153153
    3   -0.0598551   0.3667727   0.6351642
    4   -0.0631360   0.3546025  -0.0816804   0.6819213

          TOTAL MULLIKEN AND LOWDIN ATOMIC POPULATIONS
       ATOM         MULL.POP.    CHARGE          LOW.POP.     CHARGE
    1 O             8.349100   -0.349100         8.298654   -0.298654
    2 C             5.898792    0.101208         5.904674    0.095326
    3 H             0.860401    0.139599         0.893516    0.106484
    4 H             0.891707    0.108293         0.903156    0.096844

          -------------------------------
          BOND ORDER AND VALENCE ANALYSIS     BOND ORDER THRESHOLD=0.050
          -------------------------------

                   BOND                       BOND                       BOND
  ATOM PAIR DIST  ORDER      ATOM PAIR DIST  ORDER      ATOM PAIR DIST  ORDER
    1   2  1.197  2.102        2   3  1.095  0.903        2   4  1.097  0.907

                       TOTAL       BONDED        FREE
      ATOM            VALENCE     VALENCE     VALENCE
    1 O                 2.075       2.136      -0.061
    2 C                 3.904       3.912      -0.008
    3 H                 0.927       0.912       0.015
    4 H                 0.931       0.916       0.015

          -----------------------------------------
          ATOMIC SPIN DENSITY AT THE NUCLEUS (A.U.)
          -----------------------------------------
                            SPIN DENS    ALPHA DENS     BETA DENS
    1  O            8.0     0.0083124     147.52388     147.51557
    2  C            6.0     0.0201262      59.71095      59.69082
    3  H            1.0    -0.0009855       0.21154       0.21253
    4  H            1.0    -0.0010731       0.21188       0.21295

          ----------------------------
          SOLUTE ELECTROSTATIC MOMENTS
          ----------------------------

 POINT   1           X           Y           Z (BOHR)    CHARGE
                 3.508287   -2.078873   -1.228646       -0.00 (A.U.)
         DX          DY          DZ         /D/  (DEBYE)
    -0.871788    0.697091    3.056194    3.253655

          ----------------------------------------
          EFFECTIVE FRAGMENT ELECTROSTATIC MOMENTS
          ----------------------------------------

 FRAGMENT   1  H2ODFT
          X           Y           Z (BOHR)    CHARGE
    -0.384766   -2.306832   -5.428013       -0.00 (A.U.)
         DX          DY          DZ         /D/  (DEBYE)
     2.093364   -0.220112   -1.104734    2.377196

 FRAGMENT   2  H2ODFT
          X           Y           Z (BOHR)    CHARGE
    -2.350642    1.087587   -2.157953       -0.00 (A.U.)
         DX          DY          DZ         /D/  (DEBYE)
    -0.705034   -2.477533   -0.195444    2.583301

 FRAGMENT   3  H2ODFT
          X           Y           Z (BOHR)    CHARGE
    -2.785144   -0.089437    2.951639       -0.00 (A.U.)
         DX          DY          DZ         /D/  (DEBYE)
     0.452150    1.670593    1.600154    2.357077

 FRAGMENT   4  H2ODFT
          X           Y           Z (BOHR)    CHARGE
     0.899946    2.962200    1.062746       -0.00 (A.U.)
         DX          DY          DZ         /D/  (DEBYE)
    -0.481737    1.463322   -1.948229    2.483743


          ----------------------------
          SYSTEM ELECTROSTATIC MOMENTS
          ----------------------------

 POINT   1           X           Y           Z (BOHR)    CHARGE
                 3.508287   -2.078873   -1.228646       -0.00 (A.U.)
         DX          DY          DZ         /D/  (DEBYE)
     0.545887    1.133202    1.456397    1.924378
 ...... END OF PROPERTY EVALUATION ......
 STEP CPU TIME =     0.01 TOTAL CPU TIME =      342.6 (    5.7 MIN)
 TOTAL WALL CLOCK TIME=      343.9 SECONDS, CPU UTILIZATION IS  99.62%
  $VIB   
          IVIB=   0 IATOM=   0 ICOORD=   0 E=     -114.5109522223
  4.539561294E-05 3.082286689E-06-3.963440087E-05-3.578170563E-05-1.414063028E-05
  3.783475721E-05 2.714129755E-05 7.239122131E-06-3.456879487E-06-1.222344559E-05
  1.348863900E-05 7.216697283E-06
-1.068063133E-05-9.136656892E-06-1.175724651E-05
 1.386967801E-05-4.949746866E-06-4.452946106E-05
-1.960730403E-05-1.031095717E-05 2.640665056E-05
 1.417019155E-06-3.531496889E-06-1.050033109E-05
-2.170583411E-05 1.433318496E-05-1.773123590E-05
-3.615119049E-05 4.988223801E-05 7.116185087E-05
 2.746201019E-05-4.554988436E-06 1.121657705E-06
 6.543419128E-05-1.654336765E-05-3.450003966E-05
  5.458874870E-01 1.133201935E+00 1.456397170E+00
 ......END OF GEOMETRY SEARCH......
 STEP CPU TIME =     0.00 TOTAL CPU TIME =      342.6 (    5.7 MIN)
 TOTAL WALL CLOCK TIME=      343.9 SECONDS, CPU UTILIZATION IS  99.62%
              2030515  WORDS OF DYNAMIC MEMORY USED
 EXECUTION OF GAMESS TERMINATED NORMALLY Fri Jun  2 03:20:26 2017
 DDI: 263640 bytes (0.3 MB / 0 MWords) used by master data server.

 ----------------------------------------
 CPU timing information for all processes
 ========================================
 0: 342.345 + 0.259 = 342.605
 ----------------------------------------
 ddikick.x: exited gracefully.
unset echo
----- accounting info -----
Files used on the master node compute-0-7.local were:
-rw-rw-r-- 1 sarom sarom   13073 Jun  2 03:14 /scratch/sf-u-efp-opt.F05
-rw-rw-r-- 1 sarom sarom 2486720 Jun  2 03:20 /scratch/sf-u-efp-opt.F10
-rw-rw-r-- 1 sarom sarom 1311040 Jun  2 03:20 /scratch/sf-u-efp-opt.F22
-rw-rw-r-- 1 sarom sarom  394080 Jun  2 03:20 /scratch/sf-u-efp-opt.F25
rm: cannot remove `/scratch/sarom': Is a directory
rm: cannot remove `/scratch/tmp': Is a directory
ls: No match.
ls: No match.
ls: No match.
Fri Jun  2 03:20:29 CDT 2017
0.234u 0.246s 5:47.52 0.1%	0+0k 32+400io 0pf+0w
Deleting shmid=2523136.
Deleting shmid=2555905.
Deleting shmid=2785282.
/opt/gridengine/default/spool/compute-0-7/active_jobs/23827.1/pe_hostfile compute-0-7.local
