----- GAMESS execution script 'rungms' -----
This job is running on host compute-3-0
under operating system Linux at Tue Nov 29 02:43:04 CST 2016
Available scratch disk space (Kbyte units) at beginning of the job is
Filesystem            1K-blocks       Used  Available Use% Mounted on
bolt.local:/export/home/sarom
                     9590469632 1553479680 7549821952  18% /home/sarom
Copying input file sf-u-opt.inp to your run's scratch directory...
cp sf-u-opt.inp .//sf-u-opt.F05
unset echo
/home/sarom/gamessGH/ddikick.x /home/sarom/gamessGH/gamess.00.x sf-u-opt -ddi 1 1 localhost -scr ./

 Distributed Data Interface kickoff program.
 Initiating 1 compute processes on 1 nodes to run the following command:
 /home/sarom/gamessGH/gamess.00.x sf-u-opt 

          ******************************************************
          *         GAMESS VERSION = 18 AUG 2016 (R1)          *
          *             FROM IOWA STATE UNIVERSITY             *
          * M.W.SCHMIDT, K.K.BALDRIDGE, J.A.BOATZ, S.T.ELBERT, *
          *   M.S.GORDON, J.H.JENSEN, S.KOSEKI, N.MATSUNAGA,   *
          *          K.A.NGUYEN, S.J.SU, T.L.WINDUS,           *
          *       TOGETHER WITH M.DUPUIS, J.A.MONTGOMERY       *
          *         J.COMPUT.CHEM.  14, 1347-1363(1993)        *
          **************** 64 BIT LINUX VERSION ****************

  SINCE 1993, STUDENTS AND POSTDOCS WORKING AT IOWA STATE UNIVERSITY
  AND ALSO IN THEIR VARIOUS JOBS AFTER LEAVING ISU HAVE MADE IMPORTANT
  CONTRIBUTIONS TO THE CODE:
     IVANA ADAMOVIC, CHRISTINE AIKENS, YURI ALEXEEV, POOJA ARORA,
     ANDREY ASADCHEV, ROB BELL, PRADIPTA BANDYOPADHYAY, JONATHAN BENTZ,
     BRETT BODE, KURT BRORSEN, CALEB CARLIN, GALINA CHABAN, WEI CHEN,
     CHEOL HO CHOI, PAUL DAY, ALBERT DEFUSCO, NUWAN DESILVA, TIM DUDLEY,
     DMITRI FEDOROV, GRAHAM FLETCHER, MARK FREITAG, KURT GLAESEMANN,
     DAN KEMP, GRANT MERRILL, NORIYUKI MINEZAWA, JONATHAN MULLIN,
     TAKESHI NAGATA, SEAN NEDD, HEATHER NETZLOFF, BOSILJKA NJEGIC, RYAN OLSON,
     MIKE PAK, SPENCER PRUITT, LUKE ROSKOP, JIM SHOEMAKER, LYUDMILA SLIPCHENKO,
     TONY SMITH, SAROM SOK LEANG, JIE SONG, TETSUYA TAKETSUGU, SIMON WEBB,
     PENG XU, SOOHAENG YOO, FEDERICO ZAHARIEV

  ADDITIONAL CODE HAS BEEN PROVIDED BY COLLABORATORS IN OTHER GROUPS:
     IOWA STATE UNIVERSITY:
          JOE IVANIC, AARON WEST, LAIMUTIS BYTAUTAS, KLAUS RUEDENBERG
     UNIVERSITY OF TOKYO: KIMIHIKO HIRAO, TAKAHITO NAKAJIMA,
          TAKAO TSUNEDA, MUNEAKI KAMIYA, SUSUMU YANAGISAWA,
          KIYOSHI YAGI, MAHITO CHIBA, SEIKEN TOKURA, NAOAKI KAWAKAMI
     UNIVERSITY OF AARHUS: FRANK JENSEN
     UNIVERSITY OF IOWA: VISVALDAS KAIRYS, HUI LI
     NATIONAL INST. OF STANDARDS AND TECHNOLOGY: WALT STEVENS, DAVID GARMER
     UNIVERSITY OF PISA: BENEDETTA MENNUCCI, JACOPO TOMASI
     UNIVERSITY OF MEMPHIS: HENRY KURTZ, PRAKASHAN KORAMBATH
     UNIVERSITY OF ALBERTA: TOBY ZENG, MARIUSZ KLOBUKOWSKI
     UNIVERSITY OF NEW ENGLAND: MARK SPACKMAN
     MIE UNIVERSITY: HIROAKI UMEDA
     NAT. INST. OF ADVANCED INDUSTRIAL SCIENCE AND TECHNOLOGY: KAZUO KITAURA
     MICHIGAN STATE UNIVERSITY:
          KAROL KOWALSKI, MARTA WLOCH, JEFFREY GOUR, JESSE LUTZ,
          WEI LI, PIOTR PIECUCH
     UNIVERSITY OF SILESIA: MONIKA MUSIAL, STANISLAW KUCHARSKI
     FACULTES UNIVERSITAIRES NOTRE-DAME DE LA PAIX:
          OLIVIER QUINET, BENOIT CHAMPAGNE
     UNIVERSITY OF CALIFORNIA - SANTA BARBARA: BERNARD KIRTMAN
     INSTITUTE FOR MOLECULAR SCIENCE:
          KAZUYA ISHIMURA, MICHIO KATOUDA, AND SHIGERU NAGASE
     UNIVERSITY OF NOTRE DAME: ANNA POMOGAEVA, DAN CHIPMAN
     KYUSHU UNIVERSITY:
          HARUYUKI NAKANO,
          FENG LONG GU, JACEK KORCHOWIEC, MARCIN MAKOWSKI, AND YURIKO AOKI,
          HIROTOSHI MORI AND EISAKU MIYOSHI
     PENNSYLVANIA STATE UNIVERSITY:
          TZVETELIN IORDANOV, CHET SWALINA, JONATHAN SKONE,
          SHARON HAMMES-SCHIFFER
     WASEDA UNIVERSITY:
          MASATO KOBAYASHI, TOMOKO AKAMA, TSUGUKI TOUMA,
          TAKESHI YOSHIKAWA, YASUHIRO IKABATA, JUNJI SEINO,
          YUYA NAKAJIMA, HIROMI NAKAI
     NANJING UNIVERSITY: SHUHUA LI
     UNIVERSITY OF NEBRASKA:
          PEIFENG SU, DEJUN SI, NANDUN THELLAMUREGE, YALI WANG, HUI LI
     UNIVERSITY OF ZURICH: ROBERTO PEVERATI, KIM BALDRIDGE
     N. COPERNICUS UNIVERSITY AND JACKSON STATE UNIVERSITY:
          MARIA BARYSZ
     UNIVERSITY OF COPENHAGEN: Jimmy Kromann, CASPER STEINMANN
     TOKYO INSTITUTE OF TECHNOLOGY: HIROYA NAKATA
     NAGOYA UNIVERSITY: YOSHIO NISHIMOTO, STEPHAN IRLE
     MOSCOW STATE UNIVERSITY: VLADIMIR MIRONOV

 EXECUTION OF GAMESS BEGUN Tue Nov 29 02:43:04 2016

            ECHO OF THE FIRST FEW INPUT CARDS -
 INPUT CARD>!   Difluoroethene...test case from Noriyuki...April 2011                       
 INPUT CARD>!   spin-flip UHF reference TD-DFT with geometry optimization                   
 INPUT CARD>!                                                                               
 INPUT CARD>!   initial geom.'s spin-flip ref. state FINAL E= -276.7940202909, 16 iters     
 INPUT CARD>!   where the TD-DFT states are found at these energies:                        
 INPUT CARD>!              SUMMARY OF SPIN-FLIP RESULTS                                     
 INPUT CARD>!              ----------------------------                                     
 INPUT CARD>!       STATE             ENERGY     EXCITATION     S-SQUARED                   
 INPUT CARD>!     1 NEGATIVE ROOT(S) FOUND.                                                 
 INPUT CARD>!       1  A         -276.8741556219   -2.181        0.0164                     
 INPUT CARD>!       0  A         -276.7940202909    0.000     (REFERENCE STATE)             
 INPUT CARD>!       2  A         -276.7584416648    0.968        2.0214                     
 INPUT CARD>!       3  A         -276.6271357145    4.541        0.0370                     
 INPUT CARD>!       4  A         -276.6149505882    4.873        1.0131                     
 INPUT CARD>!       5  A         -276.5915489805    5.510        1.0171                     
 INPUT CARD>!   the geometry search should proceed like this:                               
 INPUT CARD>!        NSERCH:   0  E=     -276.8741556219  R.M.S.=  0.0504896                
 INPUT CARD>!        NSERCH:   1  E=     -276.9049168729  R.M.S.=  0.0087894                
 INPUT CARD>!        NSERCH:   2  E=     -276.9093726878  R.M.S.=  0.0146490                
 INPUT CARD>!        NSERCH:   3  E=     -276.9105478167  R.M.S.=  0.0042627                
 INPUT CARD>!        NSERCH:   4  E=     -276.9107174316  R.M.S.=  0.0005254                
 INPUT CARD>!        NSERCH:   5  E=     -276.9107320261  R.M.S.=  0.0003028                
 INPUT CARD>!        NSERCH:   6  E=     -276.9107332570  R.M.S.=  0.0000716                
 INPUT CARD>!        NSERCH:   7  E=     -276.9107328063  R.M.S.=  0.0001598                
 INPUT CARD>!        NSERCH:   8  E=     -276.9107333693  R.M.S.=  0.0000067                
 INPUT CARD>!        NSERCH:   9  E=     -276.9107333696  R.M.S.=  0.0000080                
 INPUT CARD>!        NSERCH:  10  E=     -276.9107333718  R.M.S.=  0.0000018                
 INPUT CARD>!                                                                               
 INPUT CARD>!   this run takes 482 seconds on 2.66 GHz Cloverton (27 April 2011)            
 INPUT CARD>!                                                                               
 INPUT CARD> $CONTRL RUNTYP=OPTIMIZE SCFTYP=UHF DFTTYP=BHHLYP TDDFT=SPNFLP MULT=3 $end      
 INPUT CARD> $SYSTEM MWORDS=3 $END                                                          
 INPUT CARD> $STATPT OPTTOL=0.00001 $END                                                    
 INPUT CARD>!-----------------------------------------------------------------------        
 INPUT CARD>! Wave function                                                                 
 INPUT CARD>!-----------------------------------------------------------------------        
 INPUT CARD> $GUESS GUESS=MOREAD $END                                                       
 INPUT CARD> $BASIS GBASIS=N31 NGAUSS=6 NDFUNC=1 $END                                       
 INPUT CARD> $TDDFT NSTATE=5 IROOT=1 MULT=1 $END                                            
 INPUT CARD>!-----------------------------------------------------------------------        
 INPUT CARD>! Geometry                                                                      
 INPUT CARD>!-----------------------------------------------------------------------        
 INPUT CARD> $DATA                                                                          
 INPUT CARD>cis-DFE Gas U-SF-BHHLYP/6-31G(d) S0 Geom. Opt.                                  
 INPUT CARD>C1                                                                              
 INPUT CARD>C   6.0   0.0000000000   0.7637318307   0.1764617591                            
 INPUT CARD>C   6.0   0.0000000000  -0.7637278136   0.1764642388                            
 INPUT CARD>F   9.0   0.0000000000   1.3252762811  -1.0217062609                            
 INPUT CARD>F   9.0   0.0000000000  -1.3252757203  -1.0217016788                            
 INPUT CARD>H   1.0   0.0000000000  -1.4077612268   1.0273697622                            
    3000000 WORDS OF MEMORY AVAILABLE

     BASIS OPTIONS
     -------------
     GBASIS=N31          IGAUSS=       6      POLAR=POPN31  
     NDFUNC=       1     NFFUNC=       0     DIFFSP=       F
     NPFUNC=       0      DIFFS=       F     BASNAM=        


     RUN TITLE
     ---------
 cis-DFE Gas U-SF-BHHLYP/6-31G(d) S0 Geom. Opt.                                  

 THE POINT GROUP OF THE MOLECULE IS C1      
 THE ORDER OF THE PRINCIPAL AXIS IS     0

 ATOM      ATOMIC                      COORDINATES (BOHR)
           CHARGE         X                   Y                   Z
 C           6.0     0.0000000000        1.4432438881        0.3334643720
 C           6.0     0.0000000000       -1.4432362969        0.3334690580
 F           9.0     0.0000000000        2.5044090293       -1.9307448730
 F           9.0     0.0000000000       -2.5044079695       -1.9307362141
 H           1.0     0.0000000000       -2.6602829748        1.9414473386
 H           1.0     0.0000000000        2.6602743242        1.9414519070

          INTERNUCLEAR DISTANCES (ANGS.)
          ------------------------------

                1 C          2 C          3 F          4 F          5 H     

   1 C       0.0000000    1.5274596 *  1.3232304 *  2.4082251 *  2.3322578 *
   2 C       1.5274596 *  0.0000000    2.4082256 *  1.3232300 *  1.0671547 *
   3 F       1.3232304 *  2.4082256 *  0.0000000    2.6505520 *  3.4158757  
   4 F       2.4082251 *  1.3232300 *  2.6505520 *  0.0000000    2.0507310 *
   5 H       2.3322578 *  1.0671547 *  3.4158757    2.0507310 *  0.0000000  
   6 H       1.0671535 *  2.3322498 *  2.0507378 *  3.4158703    2.8155179 *

                6 H     

   1 C       1.0671535 *
   2 C       2.3322498 *
   3 F       2.0507378 *
   4 F       3.4158703  
   5 H       2.8155179 *
   6 H       0.0000000  

  * ... LESS THAN  3.000


     ATOMIC BASIS SET
     ----------------
 THE CONTRACTED PRIMITIVE FUNCTIONS HAVE BEEN UNNORMALIZED
 THE CONTRACTED BASIS FUNCTIONS ARE NOW NORMALIZED TO UNITY

  SHELL TYPE  PRIMITIVE        EXPONENT          CONTRACTION COEFFICIENT(S)

 C         

      1   S       1          3047.5248800    0.001834737132
      1   S       2           457.3695180    0.014037322813
      1   S       3           103.9486850    0.068842622264
      1   S       4            29.2101553    0.232184443216
      1   S       5             9.2866630    0.467941348435
      1   S       6             3.1639270    0.362311985337

      2   L       7             7.8682723   -0.119332419775    0.068999066591
      2   L       8             1.8812885   -0.160854151696    0.316423960957
      2   L       9             0.5442493    1.143456437840    0.744308290898

      3   L      10             0.1687145    1.000000000000    1.000000000000

      4   D      11             0.8000000    1.000000000000

 C         

      5   S      12          3047.5248800    0.001834737132
      5   S      13           457.3695180    0.014037322813
      5   S      14           103.9486850    0.068842622264
      5   S      15            29.2101553    0.232184443216
      5   S      16             9.2866630    0.467941348435
      5   S      17             3.1639270    0.362311985337

      6   L      18             7.8682723   -0.119332419775    0.068999066591
      6   L      19             1.8812885   -0.160854151696    0.316423960957
      6   L      20             0.5442493    1.143456437840    0.744308290898

      7   L      21             0.1687145    1.000000000000    1.000000000000

      8   D      22             0.8000000    1.000000000000

 F         

      9   S      23          7001.7130900    0.001819616901
      9   S      24          1051.3660900    0.013916079607
      9   S      25           239.2856900    0.068405324535
      9   S      26            67.3974453    0.233185760119
      9   S      27            21.5199573    0.471267439240
      9   S      28             7.4031013    0.356618546182

     10   L      29            20.8479528   -0.108506975109    0.071628724237
     10   L      30             4.8083083   -0.146451658147    0.345912102697
     10   L      31             1.3440699    1.128688581135    0.722469956367

     11   L      32             0.3581514    1.000000000000    1.000000000000

     12   D      33             0.8000000    1.000000000000

 F         

     13   S      34          7001.7130900    0.001819616901
     13   S      35          1051.3660900    0.013916079607
     13   S      36           239.2856900    0.068405324535
     13   S      37            67.3974453    0.233185760119
     13   S      38            21.5199573    0.471267439240
     13   S      39             7.4031013    0.356618546182

     14   L      40            20.8479528   -0.108506975109    0.071628724237
     14   L      41             4.8083083   -0.146451658147    0.345912102697
     14   L      42             1.3440699    1.128688581135    0.722469956367

     15   L      43             0.3581514    1.000000000000    1.000000000000

     16   D      44             0.8000000    1.000000000000

 H         

     17   S      45            18.7311370    0.033494604338
     17   S      46             2.8253944    0.234726953484
     17   S      47             0.6401217    0.813757326146

     18   S      48             0.1612778    1.000000000000

 H         

     19   S      49            18.7311370    0.033494604338
     19   S      50             2.8253944    0.234726953484
     19   S      51             0.6401217    0.813757326146

     20   S      52             0.1612778    1.000000000000

 TOTAL NUMBER OF BASIS SET SHELLS             =   20
 NUMBER OF CARTESIAN GAUSSIAN BASIS FUNCTIONS =   64
 NUMBER OF ELECTRONS                          =   32
 CHARGE OF MOLECULE                           =    0
 SPIN MULTIPLICITY                            =    3
 NUMBER OF OCCUPIED ORBITALS (ALPHA)          =   17
 NUMBER OF OCCUPIED ORBITALS (BETA )          =   15
 TOTAL NUMBER OF ATOMS                        =    6
 THE NUCLEAR REPULSION ENERGY IS      111.8601867182

     LEBEDEV GRID-BASED DFT OPTIONS
     ------------------------------
     DFTTYP=BHHLYP  
     NRAD  =      96     NLEB  =     302
     NRAD0 =      24     NLEB0 =     110
     SWOFF =    5.00E-03 (PURE SCF -> DFT)
     SWITCH=    3.00E-04 (COARSE -> TIGHT GRID)
     THRESH=    0.00E+00 GTHRE=    1.00E+00

 GRIMME'S EMPIRICAL DISPERSION CORRECTION= F

     $CONTRL OPTIONS
     ---------------
 SCFTYP=UHF          RUNTYP=OPTIMIZE     EXETYP=RUN     
 MPLEVL=       0     CITYP =NONE         CCTYP =NONE         VBTYP =NONE    
 DFTTYP=BHHLYP       TDDFT =SPNFLP  
 MULT  =       3     ICHARG=       0     NZVAR =       0     COORD =UNIQUE  
 PP    =NONE         RELWFN=NONE         LOCAL =NONE         NUMGRD=       F
 ISPHER=      -1     NOSYM =       0     MAXIT =      30     UNITS =ANGS    
 PLTORB=       F     MOLPLT=       F     AIMPAC=       F     FRIEND=        
 NPRINT=       7     IREST =       0     GEOM  =INPUT   
 NORMF =       0     NORMP =       0     ITOL  =      20     ICUT  =       9
 INTTYP=BEST         GRDTYP=BEST         QMTTOL= 1.0E-06

     $SYSTEM OPTIONS
     ---------------
  REPLICATED MEMORY=     3000000 WORDS (ON EVERY NODE).
 DISTRIBUTED MEMDDI=           0 MILLION WORDS IN AGGREGATE,
 MEMDDI DISTRIBUTED OVER   1 PROCESSORS IS           0 WORDS/PROCESSOR.
 TOTAL MEMORY REQUESTED ON EACH PROCESSOR=     3000000 WORDS.
 TIMLIM=      525600.00 MINUTES, OR     365.0 DAYS.
 PARALL= F  BALTYP=  DLB     KDIAG=    0  COREFL= F
 MXSEQ2=     300 MXSEQ3=     150  mem10=         0

          ----------------
          PROPERTIES INPUT
          ----------------

     MOMENTS            FIELD           POTENTIAL          DENSITY
 IEMOM =       1   IEFLD =       0   IEPOT =       0   IEDEN =       0
 WHERE =COMASS     WHERE =NUCLEI     WHERE =NUCLEI     WHERE =NUCLEI  
 OUTPUT=BOTH       OUTPUT=BOTH       OUTPUT=BOTH       OUTPUT=BOTH    
 IEMINT=       0   IEFINT=       0                     IEDINT=       0
                                                       MORB  =       0
          EXTRAPOLATION IN EFFECT
          DIIS IN EFFECT
          DIIS or SOSCF will be reset if energy rises
 ORBITAL PRINTING OPTION: NPREO=     1    64     2     1

     -------------------------------
     INTEGRAL TRANSFORMATION OPTIONS
     -------------------------------
     NWORD  =            0
     CUTOFF = 1.0E-09     MPTRAN =       0
     DIRTRF =       F     AOINTS =DUP     

          ----------------------
          INTEGRAL INPUT OPTIONS
          ----------------------
 NOPK  =       1 NORDER=       0 SCHWRZ=       T

          ----------------------
          TDDFT INPUT PARAMETERS
          ----------------------
 NSTATE=       5  IROOT=       1   MULT=       1
 MAXVEC=      50 NTRIAL=       5 CNVTOL=  1.00E-07
 TDPRP =       F  TAMMD=       F    TPA=       F
 ALPHA =       F   BETA=       F  PFREQ=    0.00    0.00
   NRAD=      48   NLEB=     110

     ------------------------------------------
     THE POINT GROUP IS C1 , NAXIS= 0, ORDER= 1
     ------------------------------------------

     DIMENSIONS OF THE SYMMETRY SUBSPACES ARE
 A   =   64

 ..... DONE SETTING UP THE RUN .....
 STEP CPU TIME =     0.05 TOTAL CPU TIME =        0.0 (    0.0 MIN)
 TOTAL WALL CLOCK TIME=        0.1 SECONDS, CPU UTILIZATION IS  38.46%


          -----------------------------
          STATIONARY POINT LOCATION RUN
          -----------------------------

 OBTAINING INITIAL HESSIAN, HESS=GUESS   
 CARTESIAN COORDINATE OPTIMIZATION USING BADGER'S RULE FORCE CONSTANT GUESS

          PARAMETERS CONTROLLING GEOMETRY SEARCH ARE
          METHOD =QA                  UPHESS =BFGS    
          NNEG   =         0          NFRZ   =         0
          NSTEP  =        50          IFOLOW =         1
          HESS   =GUESS               RESTAR =         F
          IHREP  =         0          HSSEND =         F
          NPRT   =         0          NPUN   =         0
          OPTTOL = 1.000E-05          RMIN   = 1.500E-03
          RMAX   = 1.000E-01          RLIM   = 7.000E-02
          DXMAX  = 3.000E-01          PURIFY =         F
          MOVIE  =         F          TRUPD  =         T
          TRMAX  = 5.000E-01          TRMIN  = 5.000E-02
          ITBMAT =         5          STPT   =         F
          STSTEP = 1.000E-02          PROJCT=          T

 BEGINNING GEOMETRY SEARCH POINT NSERCH=   0 ...

 COORDINATES OF ALL ATOMS ARE (ANGS)
   ATOM   CHARGE       X              Y              Z
 ------------------------------------------------------------
 C           6.0   0.0000000000   0.7637318307   0.1764617591
 C           6.0   0.0000000000  -0.7637278136   0.1764642388
 F           9.0   0.0000000000   1.3252762811  -1.0217062609
 F           9.0   0.0000000000  -1.3252757203  -1.0217016788
 H           1.0   0.0000000000  -1.4077612268   1.0273697622
 H           1.0   0.0000000000   1.4077566491   1.0273721797

          ********************
          1 ELECTRON INTEGRALS
          ********************
 ...... END OF ONE-ELECTRON INTEGRALS ......
 STEP CPU TIME =     0.00 TOTAL CPU TIME =        0.0 (    0.0 MIN)
 TOTAL WALL CLOCK TIME=        0.1 SECONDS, CPU UTILIZATION IS  35.71%

          -------------
          GUESS OPTIONS
          -------------
          GUESS =MOREAD            NORB  =       0          NORDER=       0
          MIX   =       F          PRTMO =       F          PUNMO =       F
          TOLZ  = 1.0E-08          TOLE  = 1.0E-05
          SYMDEN=       F          PURIFY=       F

 INITIAL GUESS ORBITALS GENERATED BY MOREAD   ROUTINE.

 SYMMETRIES FOR INITIAL GUESS ORBITALS FOLLOW.  ALPHA SET(S).
    17 ORBITALS ARE OCCUPIED (    4 CORE ORBITALS).
     5=A        6=A        7=A        8=A        9=A       10=A       11=A   
    12=A       13=A       14=A       15=A       16=A       17=A       18=A   
    19=A       20=A       21=A       22=A       23=A       24=A       25=A   
    26=A       27=A   

 SYMMETRIES FOR INITIAL GUESS ORBITALS FOLLOW.   BETA SET(S).
    15 ORBITALS ARE OCCUPIED (    4 CORE ORBITALS).
     5=A        6=A        7=A        8=A        9=A       10=A       11=A   
    12=A       13=A       14=A       15=A       16=A       17=A       18=A   
    19=A       20=A       21=A       22=A       23=A       24=A       25=A   
 ...... END OF INITIAL ORBITAL SELECTION ......
 STEP CPU TIME =     0.02 TOTAL CPU TIME =        0.1 (    0.0 MIN)
 TOTAL WALL CLOCK TIME=        0.1 SECONDS, CPU UTILIZATION IS  50.00%

                    ----------------------
                    AO INTEGRAL TECHNOLOGY
                    ----------------------
     S,P,L SHELL ROTATED AXIS INTEGRALS, REPROGRAMMED BY
        KAZUYA ISHIMURA (IMS) AND JOSE SIERRA (SYNSTAR).
     S,P,D,L SHELL ROTATED AXIS INTEGRALS PROGRAMMED BY
        KAZUYA ISHIMURA (INSTITUTE FOR MOLECULAR SCIENCE).
     S,P,D,F,G SHELL TO TOTAL QUARTET ANGULAR MOMENTUM SUM 5,
        ERIC PROGRAM BY GRAHAM FLETCHER (ELORET AND NASA ADVANCED
        SUPERCOMPUTING DIVISION, AMES RESEARCH CENTER).
     S,P,D,F,G,L SHELL GENERAL RYS QUADRATURE PROGRAMMED BY
        MICHEL DUPUIS (PACIFIC NORTHWEST NATIONAL LABORATORY).

          --------------------
          2 ELECTRON INTEGRALS
          --------------------

 THE -PK- OPTION IS OFF, THE INTEGRALS ARE NOT IN SUPERMATRIX FORM.
 STORING   15000 INTEGRALS/RECORD ON DISK, USING 12 BYTES/INTEGRAL.
 TWO ELECTRON INTEGRAL EVALUATION REQUIRES   90606 WORDS OF MEMORY.
 SCHWARZ INEQUALITY OVERHEAD:      2077 INTEGRALS, T=        0.01
 II,JST,KST,LST =  1  1  1  1 NREC =         1 INTLOC =    1
 II,JST,KST,LST =  2  1  1  1 NREC =         1 INTLOC =    2
 II,JST,KST,LST =  3  1  1  1 NREC =         1 INTLOC =   34
 II,JST,KST,LST =  4  1  1  1 NREC =         1 INTLOC =  214
 II,JST,KST,LST =  5  1  1  1 NREC =         1 INTLOC = 1189
 II,JST,KST,LST =  6  1  1  1 NREC =         1 INTLOC = 2149
 II,JST,KST,LST =  7  1  1  1 NREC =         1 INTLOC = 8764
 II,JST,KST,LST =  8  1  1  1 NREC =         2 INTLOC = 5400
 II,JST,KST,LST =  9  1  1  1 NREC =         4 INTLOC = 4656
 II,JST,KST,LST = 10  1  1  1 NREC =         4 INTLOC =11872
 II,JST,KST,LST = 11  1  1  1 NREC =         7 INTLOC = 5378
 II,JST,KST,LST = 12  1  1  1 NREC =        11 INTLOC =  789
 II,JST,KST,LST = 13  1  1  1 NREC =        18 INTLOC =12494
 II,JST,KST,LST = 14  1  1  1 NREC =        19 INTLOC =14752
 II,JST,KST,LST = 15  1  1  1 NREC =        26 INTLOC =11311
 II,JST,KST,LST = 16  1  1  1 NREC =        36 INTLOC = 5613
 II,JST,KST,LST = 17  1  1  1 NREC =        54 INTLOC = 1748
 II,JST,KST,LST = 18  1  1  1 NREC =        57 INTLOC =11762
 II,JST,KST,LST = 19  1  1  1 NREC =        62 INTLOC = 1132
 II,JST,KST,LST = 20  1  1  1 NREC =        66 INTLOC = 2454
 SCHWARZ INEQUALITY TEST SKIPPED        2162 INTEGRAL BLOCKS.
 TOTAL NUMBER OF NONZERO TWO-ELECTRON INTEGRALS =             1048973
         70 INTEGRAL RECORDS WERE STORED ON DISK FILE  8.
  ...... END OF TWO-ELECTRON INTEGRALS .....
 STEP CPU TIME =     0.14 TOTAL CPU TIME =        0.2 (    0.0 MIN)
 TOTAL WALL CLOCK TIME=        0.4 SECONDS, CPU UTILIZATION IS  50.00%

          ---------------------------
             U-BHHLYP SCF CALCULATION
          ---------------------------

     NUCLEAR ENERGY =       111.8601867182
     MAXIT = 30     NPUNCH=  2     MULT=  3
     EXTRAP=T  DAMP=F  SHIFT=F  RSTRCT=F  DIIS=T  SOSCF=F
         DENSITY MATRIX CONVERGENCE THRESHOLD=  1.00E-06
     COARSE -> FINE DFT GRID SWITCH THRESHOLD=  3.00E-04 (SWITCH IN $DFT)
                   HF -> DFT SWITCH THRESHOLD=  0.00E+00 (SWOFF IN $DFT)
     MEMORY REQUIRED FOR UHF/ROHF ITERS=    301602 WORDS.

 DFT CODE IS SWITCHING FROM THE FINE GRID NRAD= 96,  NLEB=  302
                      TO THE COARSE GRID NRAD0= 24, NLEB0=  110

     EXCHANGE FUNCTIONAL   =B88&HFX   
     CORRELATION FUNCTIONAL=LYP88     
     DFT THRESHOLD         =.230E-07
     GRID CHANGE THRESHOLD =.300E-03
 FOR AN EULER-MACLAURIN QUADRATURE USING  96 RADIAL POINTS:
 SMALLEST GAUSSIAN PRIMITIVE EXPONENT=        0.1612777588 OF TYPE -S-
 ON ATOM NUMBER   5 HAS RADIAL NORMALIZATION=  1.000000
  LARGEST GAUSSIAN PRIMITIVE EXPONENT=     7001.7130900000 OF TYPE -S-
 ON ATOM NUMBER   3 HAS RADIAL NORMALIZATION=  1.000000

 ITER EX      TOTAL ENERGY        E CHANGE  DENSITY CHANGE    DIIS ERROR
          * * *   INITIATING DIIS PROCEDURE   * * *
   1  0     -276.7778589590  -276.7778589590   0.083938837   0.053845450
   2  1     -276.7867726121    -0.0089136530   0.019939284   0.012225765
   3  2     -276.7873226775    -0.0005500654   0.008143104   0.010371550
   4  3     -276.7877636027    -0.0004409252   0.002088637   0.002688227
   5  4     -276.7878050378    -0.0000414351   0.002366993   0.001061011
   6  5     -276.7878182771    -0.0000132393   0.000364605   0.000161551
   7  6     -276.7878186270    -0.0000003500   0.000050451   0.000043749
 DFT CODE IS SWITCHING BACK TO THE FINE GRID
          * * *   INITIATING DIIS PROCEDURE   * * *
   8  7     -276.7939990692    -0.0061804422   0.002367456   0.002854361
   9  8     -276.7940171479    -0.0000180787   0.001025588   0.000920635
  10  9     -276.7940187194    -0.0000015715   0.000481722   0.000684724
  11 10     -276.7940202382    -0.0000015188   0.000113741   0.000089798
  12 11     -276.7940202856    -0.0000000474   0.000041252   0.000027469
  13 12     -276.7940202905    -0.0000000049   0.000012752   0.000008143
  14 13     -276.7940202909    -0.0000000004   0.000004699   0.000001942
  15 14     -276.7940202909    -0.0000000000   0.000000687   0.000000496
  16 15     -276.7940202909    -0.0000000000   0.000000307   0.000000149

          -----------------
          DENSITY CONVERGED
          -----------------
     TIME TO FORM FOCK OPERATORS=      12.9 SECONDS (       0.8 SEC/ITER)
     TIME TO SOLVE SCF EQUATIONS=       0.0 SECONDS (       0.0 SEC/ITER)

 FINAL U-BHHLYP ENERGY IS     -276.7940202909 AFTER  16 ITERATIONS
 DFT EXCHANGE + CORRELATION ENERGY =       -16.7956028412
 TOTAL ELECTRON NUMBER             =        32.0001403874

          --------------------
          SPIN SZ   =    1.000
          S-SQUARED =    2.010
          --------------------

  ----- ALPHA SET ----- 

          ------------
          EIGENVECTORS
          ------------

                      1          2          3          4          5
                  -25.3382   -25.3382   -10.6807   -10.6804    -1.4020
                     A          A          A          A          A   
    1  C  1  S   -0.000010   0.000006   0.704790  -0.700452  -0.048819
    2  C  1  S    0.000260   0.000282   0.029555  -0.029491   0.087130
    3  C  1  X   -0.000000   0.000000   0.000000   0.000000   0.000000
    4  C  1  Y    0.000262   0.000154   0.000480  -0.000252   0.020933
    5  C  1  Z   -0.000552  -0.000331  -0.001029   0.001134  -0.068933
    6  C  1  S   -0.000019  -0.000301  -0.004164   0.008495   0.034277
    7  C  1  X   -0.000000   0.000000   0.000000   0.000000   0.000000
    8  C  1  Y   -0.000466   0.000047  -0.000155  -0.001960   0.000784
    9  C  1  Z    0.000135   0.000147  -0.000347   0.000794  -0.000543
   10  C  1 XX   -0.000083  -0.000022  -0.004807   0.004483  -0.006903
   11  C  1 YY    0.000078  -0.000038  -0.005395   0.004677  -0.000981
   12  C  1 ZZ    0.000250   0.000127  -0.004749   0.004358   0.011913
   13  C  1 XY   -0.000000   0.000000   0.000000   0.000000   0.000000
   14  C  1 XZ   -0.000000   0.000000   0.000000   0.000000   0.000000
   15  C  1 YZ   -0.000139  -0.000119  -0.000235   0.000199  -0.009462
   16  C  2  S    0.000012   0.000000   0.700244   0.704996  -0.048816
   17  C  2  S   -0.000072   0.000377   0.029363   0.029681   0.087125
   18  C  2  X   -0.000000   0.000000   0.000000   0.000000   0.000000
   19  C  2  Y    0.000141  -0.000269  -0.000478  -0.000255  -0.020930
   20  C  2  Z    0.000293  -0.000572  -0.001022  -0.001141  -0.068928
   21  C  2  S   -0.000143  -0.000265  -0.004108  -0.008522   0.034275
   22  C  2  X   -0.000000   0.000000   0.000000   0.000000   0.000000
   23  C  2  Y   -0.000420   0.000207   0.000169  -0.001959  -0.000781
   24  C  2  Z   -0.000037   0.000195  -0.000342  -0.000796  -0.000540
   25  C  2 XX    0.000059  -0.000063  -0.004778  -0.004514  -0.006903
   26  C  2 YY   -0.000086   0.000009  -0.005364  -0.004712  -0.000980
   27  C  2 ZZ   -0.000145   0.000240  -0.004721  -0.004389   0.011911
   28  C  2 XY   -0.000000   0.000000   0.000000   0.000000   0.000000
   29  C  2 XZ   -0.000000   0.000000   0.000000   0.000000   0.000000
   30  C  2 YZ   -0.000055   0.000174   0.000234   0.000201   0.009461
   31  F  3  S    0.868656   0.482324  -0.000067  -0.000006  -0.154469
   32  F  3  S    0.016631   0.009369   0.000122  -0.000560   0.356961
   33  F  3  X   -0.000000   0.000000   0.000000   0.000000   0.000000
   34  F  3  Y   -0.000309  -0.000203  -0.000027   0.000093  -0.028836
   35  F  3  Z    0.000688   0.000383   0.000146  -0.000180   0.056258
   36  F  3  S    0.010576   0.005480  -0.000206   0.001397   0.299564
   37  F  3  X   -0.000000   0.000000   0.000000   0.000000   0.000000
   38  F  3  Y    0.000233   0.000179   0.000376  -0.000499  -0.014544
   39  F  3  Z   -0.000467  -0.000288  -0.001018   0.001210   0.024836
   40  F  3 XX   -0.005720  -0.003028   0.000117  -0.000533   0.011036
   41  F  3 YY   -0.005812  -0.003132   0.000007  -0.000213   0.013403
   42  F  3 ZZ   -0.006119  -0.003287  -0.000543   0.000300   0.019419
   43  F  3 XY   -0.000000   0.000000   0.000000   0.000000   0.000000
   44  F  3 XZ   -0.000000   0.000000   0.000000   0.000000   0.000000
   45  F  3 YZ    0.000221   0.000119   0.000352  -0.000403  -0.005444
   46  F  4  S   -0.482281   0.868680  -0.000067   0.000006  -0.154459
   47  F  4  S   -0.009162   0.016747   0.000119   0.000561   0.356934
   48  F  4  X   -0.000000   0.000000   0.000000   0.000000   0.000000
   49  F  4  Y   -0.000155   0.000336   0.000026   0.000093   0.028834
   50  F  4  Z   -0.000381   0.000689   0.000145   0.000181   0.056254
   51  F  4  S   -0.006081   0.010241  -0.000197  -0.001398   0.299551
   52  F  4  X   -0.000000   0.000000   0.000000   0.000000   0.000000
   53  F  4  Y    0.000103  -0.000275  -0.000372  -0.000501   0.014544
   54  F  4  Z    0.000244  -0.000491  -0.001010  -0.001216   0.024835
   55  F  4 XX    0.003255  -0.005594   0.000114   0.000533   0.011034
   56  F  4 YY    0.003277  -0.005731   0.000006   0.000213   0.013400
   57  F  4 ZZ    0.003456  -0.006025  -0.000541  -0.000304   0.019416
   58  F  4 XY   -0.000000   0.000000   0.000000   0.000000   0.000000
   59  F  4 XZ   -0.000000   0.000000   0.000000   0.000000   0.000000
   60  F  4 YZ    0.000124  -0.000218  -0.000349  -0.000405   0.005443
   61  H  5  S    0.000003   0.000020  -0.000250  -0.000107   0.009934
   62  H  5  S   -0.000109  -0.000014   0.001326   0.001401  -0.002811
   63  H  6  S    0.000008   0.000019  -0.000251   0.000105   0.009935
   64  H  6  S    0.000085  -0.000070   0.001335  -0.001392  -0.002811

                      6          7          8          9         10
                   -1.3886    -0.8626    -0.7368    -0.6353    -0.6109
                     A          A          A          A          A   
    1  C  1  S    0.041109  -0.142336  -0.112878  -0.013218   0.014422
    2  C  1  S   -0.075420   0.296528   0.236944   0.025049  -0.026219
    3  C  1  X   -0.000000   0.000000   0.000000  -0.000000   0.000000
    4  C  1  Y   -0.040176  -0.091101   0.133099   0.160347   0.218142
    5  C  1  Z    0.066188   0.035042   0.013888   0.211405  -0.161753
    6  C  1  S   -0.018882   0.227481   0.224780   0.057297  -0.051029
    7  C  1  X   -0.000000   0.000000   0.000000  -0.000000   0.000000
    8  C  1  Y   -0.012802  -0.018022   0.026919   0.069938   0.073006
    9  C  1  Z   -0.015510   0.025842   0.051521   0.072164  -0.029280
   10  C  1 XX    0.006146  -0.003429  -0.003822   0.001927  -0.004204
   11  C  1 YY    0.008318   0.008524  -0.010634   0.004074  -0.005302
   12  C  1 ZZ   -0.012337  -0.006008   0.007004  -0.005355   0.015094
   13  C  1 XY   -0.000000   0.000000   0.000000  -0.000000   0.000000
   14  C  1 XZ   -0.000000   0.000000   0.000000  -0.000000   0.000000
   15  C  1 YZ    0.011453   0.007184   0.002537   0.003010  -0.015146
   16  C  2  S   -0.041112  -0.142336   0.112878  -0.013217   0.014422
   17  C  2  S    0.075426   0.296523  -0.236946   0.025049  -0.026215
   18  C  2  X   -0.000000   0.000000   0.000000  -0.000000   0.000000
   19  C  2  Y   -0.040177   0.091101   0.133097  -0.160347  -0.218145
   20  C  2  Z   -0.066193   0.035041  -0.013888   0.211399  -0.161743
   21  C  2  S    0.018888   0.227511  -0.224783   0.057289  -0.051035
   22  C  2  X   -0.000000   0.000000   0.000000  -0.000000   0.000000
   23  C  2  Y   -0.012804   0.018034   0.026920  -0.069945  -0.073004
   24  C  2  Z    0.015509   0.025834  -0.051521   0.072170  -0.029287
   25  C  2 XX   -0.006147  -0.003430   0.003822   0.001927  -0.004204
   26  C  2 YY   -0.008318   0.008524   0.010634   0.004074  -0.005302
   27  C  2 ZZ    0.012338  -0.006009  -0.007004  -0.005355   0.015094
   28  C  2 XY   -0.000000   0.000000   0.000000  -0.000000   0.000000
   29  C  2 XZ   -0.000000   0.000000   0.000000  -0.000000   0.000000
   30  C  2 YZ    0.011454  -0.007183   0.002537  -0.003010   0.015145
   31  F  3  S    0.158214   0.054030   0.050292  -0.015357   0.028353
   32  F  3  S   -0.363588  -0.115191  -0.108228   0.032120  -0.041268
   33  F  3  X   -0.000000   0.000000   0.000000  -0.000000   0.000000
   34  F  3  Y    0.024107  -0.077905  -0.060964   0.303764   0.011932
   35  F  3  Z   -0.055875   0.118574   0.255473  -0.012272   0.373730
   36  F  3  S   -0.318270  -0.180145  -0.177585   0.061530  -0.146666
   37  F  3  X   -0.000000   0.000000   0.000000  -0.000000   0.000000
   38  F  3  Y    0.012568  -0.043101  -0.039029   0.194900   0.014598
   39  F  3  Z   -0.027340   0.066369   0.149450  -0.004551   0.230673
   40  F  3 XX   -0.010926  -0.001229  -0.003262   0.001856   0.005545
   41  F  3 YY   -0.011212   0.003561  -0.000650  -0.011786   0.003143
   42  F  3 ZZ   -0.019125   0.010957   0.017324   0.004016   0.025974
   43  F  3 XY   -0.000000   0.000000   0.000000  -0.000000   0.000000
   44  F  3 XZ   -0.000000   0.000000   0.000000  -0.000000   0.000000
   45  F  3 YZ    0.005584  -0.007603  -0.006647   0.012152  -0.003224
   46  F  4  S   -0.158224   0.054031  -0.050293  -0.015357   0.028353
   47  F  4  S    0.363615  -0.115188   0.108227   0.032119  -0.041267
   48  F  4  X   -0.000000   0.000000   0.000000  -0.000000   0.000000
   49  F  4  Y    0.024109   0.077906  -0.060965  -0.303758  -0.011937
   50  F  4  Z    0.055879   0.118574  -0.255473  -0.012267   0.373723
   51  F  4  S    0.318284  -0.180159   0.177589   0.061531  -0.146663
   52  F  4  X   -0.000000   0.000000   0.000000  -0.000000   0.000000
   53  F  4  Y    0.012569   0.043098  -0.039029  -0.194895  -0.014601
   54  F  4  Z    0.027341   0.066365  -0.149449  -0.004547   0.230669
   55  F  4 XX    0.010929  -0.001228   0.003261   0.001856   0.005545
   56  F  4 YY    0.011215   0.003563   0.000649  -0.011786   0.003142
   57  F  4 ZZ    0.019127   0.010958  -0.017324   0.004016   0.025973
   58  F  4 XY   -0.000000   0.000000   0.000000  -0.000000   0.000000
   59  F  4 XZ   -0.000000   0.000000   0.000000  -0.000000   0.000000
   60  F  4 YZ    0.005584   0.007602  -0.006647  -0.012152   0.003223
   61  H  5  S    0.008541   0.089310  -0.125854   0.134254  -0.015740
   62  H  5  S   -0.010556   0.011506  -0.031607   0.068554  -0.017841
   63  H  6  S   -0.008540   0.089311   0.125855   0.134258  -0.015747
   64  H  6  S    0.010555   0.011507   0.031609   0.068562  -0.017854

                     11         12         13         14         15
                   -0.5941    -0.5800    -0.5674    -0.5026    -0.4383
                     A          A          A          A          A   
    1  C  1  S    0.000000  -0.020121   0.000000   0.037781   0.017579
    2  C  1  S    0.000000   0.037443   0.000000  -0.074976  -0.044125
    3  C  1  X    0.201500  -0.000000  -0.132573  -0.000000   0.000000
    4  C  1  Y    0.000000   0.057857   0.000000   0.005992   0.293423
    5  C  1  Z    0.000000   0.245264   0.000000  -0.111772   0.095267
    6  C  1  S    0.000000   0.073632   0.000000  -0.179897  -0.088604
    7  C  1  X    0.103096  -0.000000  -0.085578  -0.000000   0.000000
    8  C  1  Y    0.000000   0.040175   0.000000   0.088938   0.071667
    9  C  1  Z    0.000000   0.047870   0.000000  -0.046276   0.012544
   10  C  1 XX    0.000000   0.003551   0.000000  -0.001801  -0.002271
   11  C  1 YY    0.000000   0.009684   0.000000   0.011842  -0.018077
   12  C  1 ZZ    0.000000  -0.011662   0.000000  -0.006551   0.023807
   13  C  1 XY    0.001143  -0.000000  -0.009697  -0.000000   0.000000
   14  C  1 XZ   -0.012462  -0.000000   0.012791  -0.000000   0.000000
   15  C  1 YZ    0.000000   0.021418   0.000000  -0.023317   0.014666
   16  C  2  S    0.000000   0.020122   0.000000  -0.037782   0.017579
   17  C  2  S    0.000000  -0.037446   0.000000   0.074978  -0.044119
   18  C  2  X    0.201495  -0.000000   0.132580  -0.000000   0.000000
   19  C  2  Y    0.000000   0.057853   0.000000   0.005999  -0.293424
   20  C  2  Z    0.000000  -0.245274   0.000000   0.111772   0.095270
   21  C  2  S    0.000000  -0.073635   0.000000   0.179902  -0.088635
   22  C  2  X    0.103094  -0.000000   0.085582  -0.000000   0.000000
   23  C  2  Y    0.000000   0.040173   0.000000   0.088940  -0.071678
   24  C  2  Z    0.000000  -0.047872   0.000000   0.046274   0.012563
   25  C  2 XX    0.000000  -0.003552   0.000000   0.001801  -0.002269
   26  C  2 YY    0.000000  -0.009684   0.000000  -0.011842  -0.018078
   27  C  2 ZZ    0.000000   0.011663   0.000000   0.006550   0.023806
   28  C  2 XY   -0.001143  -0.000000  -0.009697  -0.000000   0.000000
   29  C  2 XZ   -0.012462  -0.000000  -0.012792  -0.000000   0.000000
   30  C  2 YZ    0.000000   0.021419   0.000000  -0.023316  -0.014667
   31  F  3  S    0.000000  -0.016275   0.000000   0.003615  -0.000154
   32  F  3  S    0.000000   0.026747   0.000000  -0.004544  -0.006865
   33  F  3  X    0.404463  -0.000000  -0.450779  -0.000000   0.000000
   34  F  3  Y    0.000000   0.302976   0.000000   0.346057  -0.327831
   35  F  3  Z    0.000000  -0.174725   0.000000   0.277190  -0.102675
   36  F  3  S    0.000000   0.071209   0.000000  -0.025201   0.015761
   37  F  3  X    0.262280  -0.000000  -0.294407  -0.000000   0.000000
   38  F  3  Y    0.000000   0.194673   0.000000   0.233375  -0.248949
   39  F  3  Z    0.000000  -0.112022   0.000000   0.181616  -0.078176
   40  F  3 XX    0.000000  -0.000931   0.000000  -0.000690  -0.004563
   41  F  3 YY    0.000000  -0.008376   0.000000  -0.006231   0.002290
   42  F  3 ZZ    0.000000  -0.006768   0.000000   0.010779  -0.006899
   43  F  3 XY   -0.007797  -0.000000   0.006302  -0.000000   0.000000
   44  F  3 XZ    0.014532  -0.000000  -0.014988  -0.000000   0.000000
   45  F  3 YZ    0.000000   0.013451   0.000000   0.008053  -0.003621
   46  F  4  S    0.000000   0.016276   0.000000  -0.003615  -0.000155
   47  F  4  S    0.000000  -0.026748   0.000000   0.004546  -0.006871
   48  F  4  X    0.404447  -0.000000   0.450793  -0.000000   0.000000
   49  F  4  Y    0.000000   0.302983   0.000000   0.346049   0.327837
   50  F  4  Z    0.000000   0.174736   0.000000  -0.277193  -0.102682
   51  F  4  S    0.000000  -0.071216   0.000000   0.025196   0.015788
   52  F  4  X    0.262269  -0.000000   0.294416  -0.000000   0.000000
   53  F  4  Y    0.000000   0.194678   0.000000   0.233368   0.248958
   54  F  4  Z    0.000000   0.112029   0.000000  -0.181618  -0.078175
   55  F  4 XX    0.000000   0.000932   0.000000   0.000691  -0.004567
   56  F  4 YY    0.000000   0.008377   0.000000   0.006232   0.002287
   57  F  4 ZZ    0.000000   0.006769   0.000000  -0.010778  -0.006902
   58  F  4 XY    0.007797  -0.000000   0.006303  -0.000000   0.000000
   59  F  4 XZ    0.014532  -0.000000   0.014988  -0.000000   0.000000
   60  F  4 YZ    0.000000   0.013452   0.000000   0.008053   0.003622
   61  H  5  S    0.000000  -0.142206   0.000000   0.104688   0.154370
   62  H  5  S    0.000000  -0.099916   0.000000   0.086717   0.171100
   63  H  6  S    0.000000   0.142203   0.000000  -0.104691   0.154368
   64  H  6  S    0.000000   0.099913   0.000000  -0.086719   0.171102

                     16         17         18         19         20
                   -0.3534    -0.1883     0.1564     0.1592     0.1818
                     A          A          A          A          A   
    1  C  1  S    0.000000   0.000000   0.045461   0.123750   0.062400
    2  C  1  S    0.000000   0.000000  -0.056301  -0.212952  -0.088873
    3  C  1  X    0.403045  -0.495115  -0.000000  -0.000000  -0.000000
    4  C  1  Y    0.000000   0.000000  -0.103368   0.033392  -0.202579
    5  C  1  Z    0.000000   0.000000   0.227736  -0.059989  -0.185305
    6  C  1  S    0.000000   0.000000  -0.565376  -1.478239  -1.141549
    7  C  1  X    0.259679  -0.451417  -0.000000  -0.000000  -0.000000
    8  C  1  Y    0.000000   0.000000  -0.350394  -0.108053  -0.487087
    9  C  1  Z    0.000000   0.000000   0.593059  -0.538087  -0.420429
   10  C  1 XX    0.000000   0.000000  -0.016464  -0.018345  -0.005779
   11  C  1 YY    0.000000   0.000000  -0.009598   0.024863   0.006759
   12  C  1 ZZ    0.000000   0.000000   0.018919   0.019292   0.005863
   13  C  1 XY   -0.016664  -0.017225  -0.000000  -0.000000  -0.000000
   14  C  1 XZ    0.012686  -0.011071  -0.000000  -0.000000  -0.000000
   15  C  1 YZ    0.000000   0.000000  -0.028240  -0.006465   0.010073
   16  C  2  S    0.000000   0.000000   0.045415  -0.123778   0.062378
   17  C  2  S    0.000000   0.000000  -0.056210   0.212976  -0.088814
   18  C  2  X    0.403042   0.495117  -0.000000  -0.000000  -0.000000
   19  C  2  Y    0.000000   0.000000   0.103386   0.033318   0.202591
   20  C  2  Z    0.000000   0.000000   0.227755   0.059934  -0.185291
   21  C  2  S    0.000000   0.000000  -0.564869   1.478696  -1.141341
   22  C  2  X    0.259678   0.451418  -0.000000  -0.000000  -0.000000
   23  C  2  Y    0.000000   0.000000   0.350345  -0.108295   0.487051
   24  C  2  Z    0.000000   0.000000   0.593291   0.537941  -0.420335
   25  C  2 XX    0.000000   0.000000  -0.016455   0.018348  -0.005772
   26  C  2 YY    0.000000   0.000000  -0.009606  -0.024864   0.006756
   27  C  2 ZZ    0.000000   0.000000   0.018911  -0.019301   0.005862
   28  C  2 XY    0.016664  -0.017225  -0.000000  -0.000000  -0.000000
   29  C  2 XZ    0.012685   0.011071  -0.000000  -0.000000  -0.000000
   30  C  2 YZ    0.000000   0.000000   0.028236  -0.006472  -0.010074
   31  F  3  S    0.000000   0.000000  -0.066710  -0.015615  -0.005773
   32  F  3  S    0.000000   0.000000   0.065703   0.067336  -0.015635
   33  F  3  X   -0.267161   0.193043  -0.000000  -0.000000  -0.000000
   34  F  3  Y    0.000000   0.000000  -0.113944  -0.072903   0.054000
   35  F  3  Z    0.000000   0.000000   0.200899   0.108545   0.055174
   36  F  3  S    0.000000   0.000000   0.739238   0.029912   0.115006
   37  F  3  X   -0.220408   0.184475  -0.000000  -0.000000  -0.000000
   38  F  3  Y    0.000000   0.000000  -0.172321  -0.041914   0.086362
   39  F  3  Z    0.000000   0.000000   0.343955   0.119746   0.107488
   40  F  3 XX    0.000000   0.000000  -0.038492   0.009297  -0.013732
   41  F  3 YY    0.000000   0.000000  -0.038714   0.012889  -0.006240
   42  F  3 ZZ    0.000000   0.000000  -0.025317   0.009771  -0.013447
   43  F  3 XY   -0.000303   0.001334  -0.000000  -0.000000  -0.000000
   44  F  3 XZ   -0.000086  -0.006993  -0.000000  -0.000000  -0.000000
   45  F  3 YZ    0.000000   0.000000  -0.006419   0.008208  -0.001403
   46  F  4  S    0.000000   0.000000  -0.066704   0.015643  -0.005769
   47  F  4  S    0.000000   0.000000   0.065684  -0.067348  -0.015647
   48  F  4  X   -0.267161  -0.193044  -0.000000  -0.000000  -0.000000
   49  F  4  Y    0.000000   0.000000   0.113917  -0.072933  -0.054013
   50  F  4  Z    0.000000   0.000000   0.200858  -0.108626   0.055152
   51  F  4  S    0.000000   0.000000   0.739233  -0.030243   0.115003
   52  F  4  X   -0.220408  -0.184476  -0.000000  -0.000000  -0.000000
   53  F  4  Y    0.000000   0.000000   0.172309  -0.041963  -0.086367
   54  F  4  Z    0.000000   0.000000   0.343916  -0.119901   0.107468
   55  F  4 XX    0.000000   0.000000  -0.038491  -0.009274  -0.013733
   56  F  4 YY    0.000000   0.000000  -0.038714  -0.012867  -0.006241
   57  F  4 ZZ    0.000000   0.000000  -0.025316  -0.009754  -0.013447
   58  F  4 XY    0.000303   0.001334  -0.000000  -0.000000  -0.000000
   59  F  4 XZ   -0.000087   0.006993  -0.000000  -0.000000  -0.000000
   60  F  4 YZ    0.000000   0.000000   0.006422   0.008205   0.001405
   61  H  5  S    0.000000   0.000000  -0.025003  -0.093987   0.033864
   62  H  5  S    0.000000   0.000000  -0.065656  -1.406144   1.513312
   63  H  6  S    0.000000   0.000000  -0.024966   0.093986   0.033884
   64  H  6  S    0.000000   0.000000  -0.065135   1.405879   1.513555

                     21         22         23         24         25
                    0.3063     0.3502     0.5625     0.5901     0.6221
                     A          A          A          A          A   
    1  C  1  S    0.002733   0.094006   0.000000  -0.042783   0.005401
    2  C  1  S   -0.004311  -0.102881   0.000000  -0.232234  -0.804609
    3  C  1  X    0.000000   0.000000   0.720707   0.000000   0.000000
    4  C  1  Y    0.218340   0.368777   0.000000   0.465802  -0.056357
    5  C  1  Z   -0.232368   0.254439   0.000000  -0.406701   0.315812
    6  C  1  S   -0.602938  -1.216745   0.000000   0.263254   1.182976
    7  C  1  X    0.000000   0.000000  -0.699503   0.000000   0.000000
    8  C  1  Y    1.334838   1.427773   0.000000  -0.490687   0.285672
    9  C  1  Z   -0.850258   1.175640   0.000000   0.474913  -0.262610
   10  C  1 XX    0.012545  -0.033480   0.000000   0.047148  -0.015296
   11  C  1 YY    0.016700   0.042497   0.000000  -0.115697  -0.100570
   12  C  1 ZZ   -0.013188   0.000531   0.000000  -0.085879  -0.011090
   13  C  1 XY    0.000000   0.000000  -0.020649   0.000000   0.000000
   14  C  1 XZ    0.000000   0.000000  -0.015188   0.000000   0.000000
   15  C  1 YZ   -0.009724   0.017294   0.000000   0.013789  -0.107816
   16  C  2  S   -0.002733  -0.094007   0.000000  -0.042782   0.005401
   17  C  2  S    0.004307   0.102889   0.000000  -0.232278  -0.804681
   18  C  2  X    0.000000   0.000000   0.720707   0.000000   0.000000
   19  C  2  Y    0.218326   0.368753   0.000000  -0.465842   0.056402
   20  C  2  Z    0.232366  -0.254448   0.000000  -0.406704   0.315822
   21  C  2  S    0.602911   1.216719   0.000000   0.263386   1.183083
   22  C  2  X    0.000000   0.000000  -0.699503   0.000000   0.000000
   23  C  2  Y    1.334867   1.427811   0.000000   0.490774  -0.285745
   24  C  2  Z    0.850248  -1.175641   0.000000   0.474846  -0.262589
   25  C  2 XX   -0.012541   0.033482   0.000000   0.047144  -0.015297
   26  C  2 YY   -0.016699  -0.042498   0.000000  -0.115690  -0.100576
   27  C  2 ZZ    0.013186  -0.000531   0.000000  -0.085880  -0.011088
   28  C  2 XY    0.000000   0.000000   0.020649   0.000000   0.000000
   29  C  2 XZ    0.000000   0.000000  -0.015188   0.000000   0.000000
   30  C  2 YZ   -0.009724   0.017293   0.000000  -0.013788   0.107820
   31  F  3  S    0.061454  -0.039548   0.000000   0.004988   0.005190
   32  F  3  S   -0.050892   0.033010   0.000000  -0.143338  -0.068810
   33  F  3  X    0.000000   0.000000   0.042214   0.000000   0.000000
   34  F  3  Y   -0.035553  -0.124658   0.000000   0.079892  -0.081371
   35  F  3  Z   -0.178962   0.072956   0.000000  -0.149183   0.172580
   36  F  3  S   -0.818982   0.561988   0.000000   0.341422  -0.231832
   37  F  3  X    0.000000   0.000000   0.077314   0.000000   0.000000
   38  F  3  Y    0.021172  -0.292517   0.000000   0.039044   0.040272
   39  F  3  Z   -0.374044   0.166840   0.000000   0.006190  -0.116570
   40  F  3 XX    0.036121  -0.026047   0.000000  -0.054629   0.008781
   41  F  3 YY    0.032216  -0.016644   0.000000  -0.064624  -0.026434
   42  F  3 ZZ    0.024750  -0.010073   0.000000   0.015032  -0.109102
   43  F  3 XY    0.000000   0.000000  -0.009763   0.000000   0.000000
   44  F  3 XZ    0.000000   0.000000   0.035012   0.000000   0.000000
   45  F  3 YZ    0.008853   0.006895   0.000000  -0.036471   0.064087
   46  F  4  S   -0.061456   0.039549   0.000000   0.004991   0.005188
   47  F  4  S    0.050865  -0.033004   0.000000  -0.143329  -0.068821
   48  F  4  X    0.000000   0.000000   0.042214   0.000000   0.000000
   49  F  4  Y   -0.035557  -0.124659   0.000000  -0.079888   0.081380
   50  F  4  Z    0.178958  -0.072961   0.000000  -0.149185   0.172593
   51  F  4  S    0.819044  -0.561996   0.000000   0.341361  -0.231824
   52  F  4  X    0.000000   0.000000   0.077314   0.000000   0.000000
   53  F  4  Y    0.021171  -0.292526   0.000000  -0.039060  -0.040267
   54  F  4  Z    0.374048  -0.166839   0.000000   0.006176  -0.116576
   55  F  4 XX   -0.036138   0.026052   0.000000  -0.054622   0.008776
   56  F  4 YY   -0.032232   0.016648   0.000000  -0.064620  -0.026441
   57  F  4 ZZ   -0.024765   0.010078   0.000000   0.015039  -0.109117
   58  F  4 XY    0.000000   0.000000   0.009763   0.000000   0.000000
   59  F  4 XZ    0.000000   0.000000   0.035012   0.000000   0.000000
   60  F  4 YZ    0.008853   0.006895   0.000000   0.036468  -0.064089
   61  H  5  S    0.078114  -0.139533   0.000000  -0.285065  -0.287293
   62  H  5  S   -0.001362   1.371073   0.000000   0.022843  -0.092637
   63  H  6  S   -0.078120   0.139538   0.000000  -0.285068  -0.287278
   64  H  6  S    0.001394  -1.371059   0.000000   0.022809  -0.092588

                     26         27         28         29         30
                    0.6270     0.6459     0.7186     0.8497     0.9650
                     A          A          A          A          A   
    1  C  1  S   -0.000000   0.008789   0.009521   0.024920   0.010833
    2  C  1  S   -0.000000  -0.272558  -0.071946   0.366554  -0.764774
    3  C  1  X    0.706721   0.000000  -0.000000   0.000000   0.000000
    4  C  1  Y   -0.000000  -0.527912   0.393697  -0.590419  -0.276190
    5  C  1  Z   -0.000000   0.483547   0.285391  -0.471501  -0.417640
    6  C  1  S   -0.000000  -0.095632  -0.687670  -2.204735   1.646574
    7  C  1  X   -1.193374   0.000000  -0.000000   0.000000   0.000000
    8  C  1  Y   -0.000000   1.117380  -0.983607   2.786099   0.600250
    9  C  1  Z   -0.000000  -0.527517  -0.565107   2.238628   0.689574
   10  C  1 XX   -0.000000  -0.003962  -0.010978   0.009704  -0.074271
   11  C  1 YY   -0.000000  -0.068246  -0.067944  -0.056671  -0.078285
   12  C  1 ZZ   -0.000000   0.066236   0.057411   0.002052   0.025594
   13  C  1 XY   -0.006049   0.000000  -0.000000   0.000000   0.000000
   14  C  1 XZ   -0.020517   0.000000  -0.000000   0.000000   0.000000
   15  C  1 YZ   -0.000000  -0.039463   0.056382   0.065218   0.140009
   16  C  2  S   -0.000000  -0.008787   0.009521  -0.024917   0.010824
   17  C  2  S   -0.000000   0.272503  -0.071956  -0.366583  -0.765254
   18  C  2  X   -0.706721   0.000000  -0.000000   0.000000   0.000000
   19  C  2  Y   -0.000000  -0.527910  -0.393709  -0.590393   0.276200
   20  C  2  Z   -0.000000  -0.483510   0.285432   0.471490  -0.417790
   21  C  2  S   -0.000000   0.095671  -0.687632   2.204806   1.647959
   22  C  2  X    1.193374   0.000000  -0.000000   0.000000   0.000000
   23  C  2  Y   -0.000000   1.117385   0.983670   2.786054  -0.599984
   24  C  2  Z   -0.000000   0.527478  -0.565203  -2.238629   0.689943
   25  C  2 XX   -0.000000   0.003962  -0.010976  -0.009705  -0.074293
   26  C  2 YY   -0.000000   0.068242  -0.067937   0.056675  -0.078303
   27  C  2 ZZ   -0.000000  -0.066233   0.057413  -0.002045   0.025574
   28  C  2 XY   -0.006048   0.000000  -0.000000   0.000000   0.000000
   29  C  2 XZ    0.020516   0.000000  -0.000000   0.000000   0.000000
   30  C  2 YZ   -0.000000  -0.039458  -0.056380   0.065222  -0.140007
   31  F  3  S   -0.000000  -0.000971  -0.008377  -0.017475   0.002590
   32  F  3  S   -0.000000   0.078504  -0.109676   0.016010   0.122431
   33  F  3  X    0.053403   0.000000  -0.000000   0.000000   0.000000
   34  F  3  Y   -0.000000  -0.148179   0.233761   0.051945   0.007767
   35  F  3  Z   -0.000000   0.184832   0.143651  -0.121562   0.001232
   36  F  3  S   -0.000000  -0.433586   0.259608   0.649056  -0.267472
   37  F  3  X    0.130830   0.000000  -0.000000   0.000000   0.000000
   38  F  3  Y   -0.000000  -0.034939   0.052771  -0.365120  -0.075377
   39  F  3  Z   -0.000000  -0.064476   0.075176   0.177181  -0.024829
   40  F  3 XX   -0.000000   0.056831  -0.053864  -0.053136   0.060637
   41  F  3 YY   -0.000000   0.035024  -0.031862   0.093801   0.093058
   42  F  3 ZZ   -0.000000  -0.072814  -0.078517   0.013532   0.008991
   43  F  3 XY   -0.032566   0.000000  -0.000000   0.000000   0.000000
   44  F  3 XZ    0.030813   0.000000  -0.000000   0.000000   0.000000
   45  F  3 YZ   -0.000000   0.050793   0.007037  -0.070345  -0.044659
   46  F  4  S   -0.000000   0.000968  -0.008376   0.017480   0.002590
   47  F  4  S   -0.000000  -0.078534  -0.109673  -0.015951   0.122417
   48  F  4  X   -0.053402   0.000000  -0.000000   0.000000   0.000000
   49  F  4  Y   -0.000000  -0.148181  -0.233751   0.051966  -0.007776
   50  F  4  Z   -0.000000  -0.184813   0.143656   0.121563   0.001257
   51  F  4  S   -0.000000   0.433635   0.259576  -0.649196  -0.267483
   52  F  4  X   -0.130831   0.000000  -0.000000   0.000000   0.000000
   53  F  4  Y   -0.000000  -0.034940  -0.052782  -0.365137   0.075355
   54  F  4  Z   -0.000000   0.064473   0.075175  -0.177193  -0.024880
   55  F  4 XX   -0.000000  -0.056847  -0.053861   0.053170   0.060648
   56  F  4 YY   -0.000000  -0.035039  -0.031863  -0.093771   0.093047
   57  F  4 ZZ   -0.000000   0.072788  -0.078516  -0.013507   0.008970
   58  F  4 XY   -0.032567   0.000000  -0.000000   0.000000   0.000000
   59  F  4 XZ   -0.030813   0.000000  -0.000000   0.000000   0.000000
   60  F  4 YZ   -0.000000   0.050788  -0.007042  -0.070349   0.044658
   61  H  5  S   -0.000000   0.121921   0.365669  -0.198982   0.558690
   62  H  5  S   -0.000000   0.210509   0.458086   1.849980  -1.523496
   63  H  6  S   -0.000000  -0.121927   0.365685   0.198996   0.558635
   64  H  6  S   -0.000000  -0.210494   0.458022  -1.850016  -1.523052

                     31         32         33         34         35
                    1.0200     1.0265     1.1704     1.2701     1.2951
                     A          A          A          A          A   
    1  C  1  S   -0.025802   0.024740   0.016008  -0.000000  -0.016646
    2  C  1  S   -1.340051   0.156555   0.173653  -0.000000  -0.253367
    3  C  1  X   -0.000000   0.000000  -0.000000   0.010331   0.000000
    4  C  1  Y    0.024968  -0.063129   0.010819  -0.000000  -0.042144
    5  C  1  Z   -0.383011  -0.006881  -0.255211  -0.000000   0.229393
    6  C  1  S    3.958978  -0.150766  -0.121814  -0.000000   0.650931
    7  C  1  X   -0.000000   0.000000  -0.000000  -0.145940   0.000000
    8  C  1  Y   -0.918171  -0.524577   0.016376  -0.000000  -0.631079
    9  C  1  Z    0.878715  -1.446977   0.301782  -0.000000  -1.483950
   10  C  1 XX   -0.054919  -0.079596  -0.098104  -0.000000   0.051199
   11  C  1 YY   -0.044692   0.023221   0.031759  -0.000000   0.002135
   12  C  1 ZZ   -0.055586   0.166042   0.175867  -0.000000  -0.129275
   13  C  1 XY   -0.000000   0.000000  -0.000000   0.165039   0.000000
   14  C  1 XZ   -0.000000   0.000000  -0.000000  -0.161488   0.000000
   15  C  1 YZ   -0.007171   0.043489  -0.100902  -0.000000   0.112309
   16  C  2  S    0.025803  -0.024741   0.016009  -0.000000   0.016645
   17  C  2  S    1.339747  -0.156529   0.173646  -0.000000   0.253364
   18  C  2  X   -0.000000   0.000000  -0.000000   0.010330   0.000000
   19  C  2  Y    0.025067  -0.063123  -0.010822  -0.000000  -0.042131
   20  C  2  Z    0.382862   0.006873  -0.255214  -0.000000  -0.229391
   21  C  2  S   -3.958328   0.150735  -0.121785  -0.000000  -0.650918
   22  C  2  X   -0.000000   0.000000  -0.000000  -0.145935   0.000000
   23  C  2  Y   -0.918396  -0.524589  -0.016346  -0.000000  -0.631106
   24  C  2  Z   -0.878424   1.446991   0.301767  -0.000000   1.483979
   25  C  2 XX    0.054898   0.079593  -0.098107  -0.000000  -0.051201
   26  C  2 YY    0.044653  -0.023218   0.031759  -0.000000  -0.002134
   27  C  2 ZZ    0.055589  -0.166038   0.175872  -0.000000   0.129267
   28  C  2 XY   -0.000000   0.000000  -0.000000  -0.165040   0.000000
   29  C  2 XZ   -0.000000   0.000000  -0.000000  -0.161485   0.000000
   30  C  2 YZ   -0.007220   0.043489   0.100903  -0.000000   0.112300
   31  F  3  S   -0.000390   0.002438  -0.048946  -0.000000   0.049888
   32  F  3  S   -0.102032  -0.331154  -0.905133  -0.000000   0.671256
   33  F  3  X   -0.000000   0.000000  -0.000000  -0.608784   0.000000
   34  F  3  Y    0.012948   0.007771  -0.172694  -0.000000   0.306455
   35  F  3  Z    0.085465   0.214064   0.371287  -0.000000  -0.326928
   36  F  3  S    0.042828   0.142005   1.851364  -0.000000  -1.824809
   37  F  3  X   -0.000000   0.000000  -0.000000   0.676681   0.000000
   38  F  3  Y    0.088894   0.212277   0.213412  -0.000000  -0.256111
   39  F  3  Z   -0.164394  -0.313973  -0.537590  -0.000000   0.420638
   40  F  3 XX    0.016307  -0.112050  -0.452086  -0.000000   0.432263
   41  F  3 YY   -0.067245  -0.130433  -0.431233  -0.000000   0.295635
   42  F  3 ZZ   -0.085718  -0.216335  -0.422314  -0.000000   0.250176
   43  F  3 XY   -0.000000   0.000000  -0.000000  -0.019781   0.000000
   44  F  3 XZ   -0.000000   0.000000  -0.000000   0.062993   0.000000
   45  F  3 YZ    0.008409  -0.017780  -0.006569  -0.000000   0.017140
   46  F  4  S    0.000387  -0.002441  -0.048948  -0.000000  -0.049890
   47  F  4  S    0.102026   0.331102  -0.905179  -0.000000  -0.671263
   48  F  4  X   -0.000000   0.000000  -0.000000  -0.608777   0.000000
   49  F  4  Y    0.012955   0.007771   0.172705  -0.000000   0.306429
   50  F  4  Z   -0.085468  -0.214060   0.371305  -0.000000   0.326912
   51  F  4  S   -0.042812  -0.141891   1.851447  -0.000000   1.824845
   52  F  4  X   -0.000000   0.000000  -0.000000   0.676672   0.000000
   53  F  4  Y    0.088920   0.212282  -0.213430  -0.000000  -0.256068
   54  F  4  Z    0.164395   0.313966  -0.537611  -0.000000  -0.420610
   55  F  4 XX   -0.016307   0.112021  -0.452104  -0.000000  -0.432270
   56  F  4 YY    0.067252   0.130407  -0.431254  -0.000000  -0.295640
   57  F  4 ZZ    0.085694   0.216311  -0.422338  -0.000000  -0.250182
   58  F  4 XY   -0.000000   0.000000  -0.000000   0.019781   0.000000
   59  F  4 XZ   -0.000000   0.000000  -0.000000   0.062992   0.000000
   60  F  4 YZ    0.008424  -0.017778   0.006569  -0.000000   0.017139
   61  H  5  S   -0.144971  -0.762728   0.098311  -0.000000  -0.342272
   62  H  5  S    1.137083  -0.349939  -0.217425  -0.000000  -0.558906
   63  H  6  S    0.145153   0.762725   0.098299  -0.000000   0.342269
   64  H  6  S   -1.137674   0.349940  -0.217428  -0.000000   0.558878

                     36         37         38         39         40
                    1.3512     1.4232     1.4263     1.5171     1.5526
                     A          A          A          A          A   
    1  C  1  S    0.000000  -0.000000  -0.001508   0.010949  -0.000000
    2  C  1  S    0.000000  -0.000000  -0.069918   0.146669  -0.000000
    3  C  1  X   -0.007003   0.029244  -0.000000  -0.000000   0.095931
    4  C  1  Y    0.000000  -0.000000  -0.151216  -0.079334  -0.000000
    5  C  1  Z    0.000000  -0.000000  -0.145902  -0.019358  -0.000000
    6  C  1  S    0.000000  -0.000000   0.602194  -0.896260  -0.000000
    7  C  1  X    0.334065   0.093207  -0.000000  -0.000000  -0.106844
    8  C  1  Y    0.000000  -0.000000   0.657257   1.257472  -0.000000
    9  C  1  Z    0.000000  -0.000000   0.504176   0.431789  -0.000000
   10  C  1 XX    0.000000  -0.000000  -0.074248   0.006059  -0.000000
   11  C  1 YY    0.000000  -0.000000   0.145446   0.041297  -0.000000
   12  C  1 ZZ    0.000000  -0.000000  -0.091230  -0.032186  -0.000000
   13  C  1 XY    0.023451   0.578336  -0.000000  -0.000000   0.011237
   14  C  1 XZ    0.134198   0.133978  -0.000000  -0.000000   0.485405
   15  C  1 YZ    0.000000  -0.000000  -0.072730  -0.062495  -0.000000
   16  C  2  S    0.000000  -0.000000  -0.001508  -0.010948  -0.000000
   17  C  2  S    0.000000  -0.000000  -0.069904  -0.146677  -0.000000
   18  C  2  X    0.007004   0.029244  -0.000000  -0.000000   0.095928
   19  C  2  Y    0.000000  -0.000000   0.151213  -0.079337  -0.000000
   20  C  2  Z    0.000000  -0.000000  -0.145886   0.019358  -0.000000
   21  C  2  S    0.000000  -0.000000   0.602145   0.896256  -0.000000
   22  C  2  X   -0.334066   0.093210  -0.000000  -0.000000  -0.106841
   23  C  2  Y    0.000000  -0.000000  -0.657242   1.257479  -0.000000
   24  C  2  Z    0.000000  -0.000000   0.504112  -0.431797  -0.000000
   25  C  2 XX    0.000000  -0.000000  -0.074245  -0.006059  -0.000000
   26  C  2 YY    0.000000  -0.000000   0.145443  -0.041290  -0.000000
   27  C  2 ZZ    0.000000  -0.000000  -0.091235   0.032186  -0.000000
   28  C  2 XY    0.023446  -0.578335  -0.000000  -0.000000  -0.011237
   29  C  2 XZ   -0.134199   0.133980  -0.000000  -0.000000   0.485396
   30  C  2 YZ    0.000000  -0.000000   0.072727  -0.062494  -0.000000
   31  F  3  S    0.000000  -0.000000  -0.006483   0.005788  -0.000000
   32  F  3  S    0.000000  -0.000000  -0.015422   0.056155  -0.000000
   33  F  3  X    0.646831   0.160202  -0.000000  -0.000000  -0.184419
   34  F  3  Y    0.000000  -0.000000   0.529807   0.505111  -0.000000
   35  F  3  Z    0.000000  -0.000000   0.198030   0.350166  -0.000000
   36  F  3  S    0.000000  -0.000000   0.086732  -0.094691  -0.000000
   37  F  3  X   -0.798961  -0.251254  -0.000000  -0.000000   0.355020
   38  F  3  Y    0.000000  -0.000000  -0.830367  -0.774656  -0.000000
   39  F  3  Z    0.000000  -0.000000  -0.328035  -0.514324  -0.000000
   40  F  3 XX    0.000000  -0.000000  -0.059958  -0.002516  -0.000000
   41  F  3 YY    0.000000  -0.000000  -0.105863  -0.092222  -0.000000
   42  F  3 ZZ    0.000000  -0.000000   0.112994   0.175419  -0.000000
   43  F  3 XY    0.018575   0.093314  -0.000000  -0.000000   0.225791
   44  F  3 XZ    0.003308   0.158520  -0.000000  -0.000000  -0.276083
   45  F  3 YZ    0.000000  -0.000000   0.129653   0.098967  -0.000000
   46  F  4  S    0.000000  -0.000000  -0.006483  -0.005788  -0.000000
   47  F  4  S    0.000000  -0.000000  -0.015420  -0.056149  -0.000000
   48  F  4  X   -0.646838   0.160206  -0.000000  -0.000000  -0.184417
   49  F  4  Y    0.000000  -0.000000  -0.529817   0.505113  -0.000000
   50  F  4  Z    0.000000  -0.000000   0.198022  -0.350166  -0.000000
   51  F  4  S    0.000000  -0.000000   0.086716   0.094681  -0.000000
   52  F  4  X    0.798967  -0.251258  -0.000000  -0.000000   0.355015
   53  F  4  Y    0.000000  -0.000000   0.830376  -0.774660  -0.000000
   54  F  4  Z    0.000000  -0.000000  -0.328020   0.514325  -0.000000
   55  F  4 XX    0.000000  -0.000000  -0.059952   0.002517  -0.000000
   56  F  4 YY    0.000000  -0.000000  -0.105863   0.092225  -0.000000
   57  F  4 ZZ    0.000000  -0.000000   0.112992  -0.175417  -0.000000
   58  F  4 XY    0.018575  -0.093313  -0.000000  -0.000000  -0.225788
   59  F  4 XZ   -0.003307   0.158521  -0.000000  -0.000000  -0.276075
   60  F  4 YZ    0.000000  -0.000000  -0.129653   0.098963  -0.000000
   61  H  5  S    0.000000  -0.000000  -0.067560   0.120655  -0.000000
   62  H  5  S    0.000000  -0.000000  -0.592722   0.418511  -0.000000
   63  H  6  S    0.000000  -0.000000  -0.067564  -0.120652  -0.000000
   64  H  6  S    0.000000  -0.000000  -0.592772  -0.418505  -0.000000

                     41         42         43         44         45
                    1.6233     1.6547     1.8088     1.8696     1.8732
                     A          A          A          A          A   
    1  C  1  S   -0.000000  -0.008216  -0.025119  -0.000000   0.007209
    2  C  1  S   -0.000000  -0.141853   0.315193  -0.000000   0.179319
    3  C  1  X   -0.125292  -0.000000   0.000000   0.009938   0.000000
    4  C  1  Y   -0.000000   0.106471  -0.234759  -0.000000  -0.122379
    5  C  1  Z   -0.000000   0.046284   0.075548  -0.000000  -0.036932
    6  C  1  S   -0.000000  -0.391382   0.084963  -0.000000  -0.740233
    7  C  1  X    0.127926  -0.000000   0.000000  -0.203568   0.000000
    8  C  1  Y   -0.000000  -0.334766   0.652526  -0.000000  -0.186845
    9  C  1  Z   -0.000000   0.393258   0.565068  -0.000000   0.285221
   10  C  1 XX   -0.000000  -0.378351  -0.075748  -0.000000   0.148059
   11  C  1 YY   -0.000000   0.312264  -0.296614  -0.000000  -0.079638
   12  C  1 ZZ   -0.000000  -0.024717   0.342681  -0.000000  -0.065381
   13  C  1 XY    0.052586  -0.000000   0.000000   0.309230   0.000000
   14  C  1 XZ   -0.452196  -0.000000   0.000000   0.048413   0.000000
   15  C  1 YZ   -0.000000   0.105451   0.241073  -0.000000  -0.104737
   16  C  2  S   -0.000000  -0.008215  -0.025119  -0.000000   0.007208
   17  C  2  S   -0.000000  -0.141860   0.315203  -0.000000   0.179308
   18  C  2  X    0.125294  -0.000000   0.000000  -0.009938   0.000000
   19  C  2  Y   -0.000000  -0.106471   0.234749  -0.000000   0.122370
   20  C  2  Z   -0.000000   0.046290   0.075554  -0.000000  -0.036928
   21  C  2  S   -0.000000  -0.391394   0.084872  -0.000000  -0.740302
   22  C  2  X   -0.127928  -0.000000   0.000000   0.203568   0.000000
   23  C  2  Y   -0.000000   0.334780  -0.652524  -0.000000   0.186922
   24  C  2  Z   -0.000000   0.393248   0.565136  -0.000000   0.285451
   25  C  2 XX   -0.000000  -0.378343  -0.075751  -0.000000   0.148043
   26  C  2 YY   -0.000000   0.312266  -0.296623  -0.000000  -0.079617
   27  C  2 ZZ   -0.000000  -0.024723   0.342682  -0.000000  -0.065385
   28  C  2 XY    0.052587  -0.000000   0.000000   0.309231   0.000000
   29  C  2 XZ    0.452205  -0.000000   0.000000  -0.048415   0.000000
   30  C  2 YZ   -0.000000  -0.105456  -0.241083  -0.000000   0.104710
   31  F  3  S   -0.000000  -0.057174  -0.031283  -0.000000  -0.038290
   32  F  3  S   -0.000000  -0.799548  -0.440307  -0.000000  -0.774742
   33  F  3  X    0.093184  -0.000000   0.000000  -0.039719   0.000000
   34  F  3  Y   -0.000000  -0.009014   0.260530  -0.000000   0.090970
   35  F  3  Z   -0.000000  -0.309563  -0.054515  -0.000000  -0.204450
   36  F  3  S   -0.000000   1.922903   1.037678  -0.000000   1.742356
   37  F  3  X   -0.240877  -0.000000   0.000000   0.071502   0.000000
   38  F  3  Y   -0.000000  -0.104938  -0.477288  -0.000000  -0.223687
   39  F  3  Z   -0.000000   0.617550   0.113938  -0.000000   0.461689
   40  F  3 XX   -0.000000  -0.464003  -0.215581  -0.000000   0.274995
   41  F  3 YY   -0.000000  -0.149100   0.090653  -0.000000  -0.612046
   42  F  3 ZZ   -0.000000  -0.362179  -0.422657  -0.000000  -0.441857
   43  F  3 XY   -0.224389  -0.000000   0.000000   0.530136   0.000000
   44  F  3 XZ    0.361376  -0.000000   0.000000   0.338007   0.000000
   45  F  3 YZ   -0.000000   0.239523  -0.137137  -0.000000   0.010211
   46  F  4  S   -0.000000  -0.057174  -0.031287  -0.000000  -0.038300
   47  F  4  S   -0.000000  -0.799571  -0.440402  -0.000000  -0.774972
   48  F  4  X   -0.093187  -0.000000   0.000000   0.039719   0.000000
   49  F  4  Y   -0.000000   0.009008  -0.260547  -0.000000  -0.091001
   50  F  4  Z   -0.000000  -0.309565  -0.054533  -0.000000  -0.204484
   51  F  4  S   -0.000000   1.922947   1.037895  -0.000000   1.742891
   52  F  4  X    0.240883  -0.000000   0.000000  -0.071501   0.000000
   53  F  4  Y   -0.000000   0.104950   0.477322  -0.000000   0.223756
   54  F  4  Z   -0.000000   0.617561   0.113989  -0.000000   0.461804
   55  F  4 XX   -0.000000  -0.464000  -0.215601  -0.000000   0.274900
   56  F  4 YY   -0.000000  -0.149111   0.090638  -0.000000  -0.612048
   57  F  4 ZZ   -0.000000  -0.362189  -0.422714  -0.000000  -0.441970
   58  F  4 XY   -0.224395  -0.000000   0.000000   0.530131   0.000000
   59  F  4 XZ   -0.361381  -0.000000   0.000000  -0.338006   0.000000
   60  F  4 YZ   -0.000000  -0.239529   0.137120  -0.000000  -0.010278
   61  H  5  S   -0.000000  -0.051488  -0.462331  -0.000000   0.230047
   62  H  5  S   -0.000000  -0.070467  -0.334567  -0.000000   0.011524
   63  H  6  S   -0.000000  -0.051492  -0.462324  -0.000000   0.230081
   64  H  6  S   -0.000000  -0.070479  -0.334565  -0.000000   0.011564

                     46         47         48         49         50
                    1.8838     1.9527     1.9690     2.0641     2.1262
                     A          A          A          A          A   
    1  C  1  S   -0.007846   0.010804   0.000000   0.025476   0.013201
    2  C  1  S   -0.030864  -0.137377   0.000000   0.139546   0.218194
    3  C  1  X    0.000000   0.000000   0.040529  -0.000000   0.000000
    4  C  1  Y    0.034835   0.282860   0.000000   0.006334  -0.205467
    5  C  1  Z    0.018518   0.094748   0.000000   0.028780  -0.110965
    6  C  1  S   -0.293289   0.069740   0.000000  -0.460654  -0.517896
    7  C  1  X    0.000000   0.000000  -0.012752  -0.000000   0.000000
    8  C  1  Y   -0.289531   0.610385   0.000000  -0.108430  -0.069341
    9  C  1  Z    0.955262  -0.310280   0.000000   0.472658   0.090156
   10  C  1 XX   -0.127910  -0.002168   0.000000   0.352502   0.468823
   11  C  1 YY    0.102412  -0.169910   0.000000   0.110650  -0.325792
   12  C  1 ZZ    0.036994   0.219454   0.000000  -0.358853  -0.094640
   13  C  1 XY    0.000000   0.000000   0.181705  -0.000000   0.000000
   14  C  1 XZ    0.000000   0.000000   0.103406  -0.000000   0.000000
   15  C  1 YZ    0.094435   0.206506   0.000000   0.554937  -0.251343
   16  C  2  S    0.007845  -0.010803   0.000000   0.025477   0.013202
   17  C  2  S    0.030925   0.137371   0.000000   0.139545   0.218226
   18  C  2  X    0.000000   0.000000   0.040529  -0.000000   0.000000
   19  C  2  Y    0.034873   0.282859   0.000000  -0.006343   0.205463
   20  C  2  Z   -0.018522  -0.094746   0.000000   0.028780  -0.110974
   21  C  2  S    0.293144  -0.069740   0.000000  -0.460670  -0.518058
   22  C  2  X    0.000000   0.000000  -0.012749  -0.000000   0.000000
   23  C  2  Y   -0.289537   0.610387   0.000000   0.108406   0.069228
   24  C  2  Z   -0.955155   0.310282   0.000000   0.472667   0.090358
   25  C  2 XX    0.127932   0.002177   0.000000   0.352501   0.468808
   26  C  2 YY   -0.102446   0.169915   0.000000   0.110640  -0.325794
   27  C  2 ZZ   -0.036988  -0.219461   0.000000  -0.358842  -0.094634
   28  C  2 XY    0.000000   0.000000  -0.181701  -0.000000   0.000000
   29  C  2 XZ    0.000000   0.000000   0.103406  -0.000000   0.000000
   30  C  2 YZ    0.094437   0.206498   0.000000  -0.554942   0.251334
   31  F  3  S   -0.040797   0.031542   0.000000  -0.048815  -0.010192
   32  F  3  S   -0.951189   0.479748   0.000000  -0.222567  -0.345974
   33  F  3  X    0.000000   0.000000   0.006644  -0.000000   0.000000
   34  F  3  Y    0.147605   0.135106   0.000000  -0.097722   0.015207
   35  F  3  Z   -0.166694   0.166898   0.000000   0.273775  -0.102025
   36  F  3  S    2.193852  -1.209452   0.000000   1.053744   0.740256
   37  F  3  X    0.000000   0.000000  -0.005509  -0.000000   0.000000
   38  F  3  Y   -0.295892  -0.137891   0.000000  -0.098967  -0.052558
   39  F  3  Z    0.478944  -0.378021   0.000000   0.063775   0.213091
   40  F  3 XX   -0.512391  -0.001408   0.000000  -0.053182  -0.405259
   41  F  3 YY    0.081575   0.600919   0.000000  -0.098449   0.175493
   42  F  3 ZZ   -0.446603  -0.071743   0.000000  -0.171896  -0.042874
   43  F  3 XY    0.000000   0.000000  -0.607679  -0.000000   0.000000
   44  F  3 XZ    0.000000   0.000000  -0.322078  -0.000000   0.000000
   45  F  3 YZ    0.331102  -0.342388   0.000000   0.163288   0.325243
   46  F  4  S    0.040788  -0.031543   0.000000  -0.048813  -0.010196
   47  F  4  S    0.950991  -0.479739   0.000000  -0.222571  -0.346062
   48  F  4  X    0.000000   0.000000   0.006645  -0.000000   0.000000
   49  F  4  Y    0.147569   0.135108   0.000000   0.097717  -0.015220
   50  F  4  Z    0.166651  -0.166890   0.000000   0.273776  -0.102031
   51  F  4  S   -2.193414   1.209453   0.000000   1.053737   0.740490
   52  F  4  X    0.000000   0.000000  -0.005510  -0.000000   0.000000
   53  F  4  Y   -0.295812  -0.137891   0.000000   0.098976   0.052603
   54  F  4  Z   -0.478842   0.378017   0.000000   0.063768   0.213124
   55  F  4 XX    0.512436   0.001403   0.000000  -0.053172  -0.405221
   56  F  4 YY   -0.081688  -0.600918   0.000000  -0.098440   0.175442
   57  F  4 ZZ    0.446482   0.071742   0.000000  -0.171902  -0.042936
   58  F  4 XY    0.000000   0.000000   0.607681  -0.000000   0.000000
   59  F  4 XZ    0.000000   0.000000  -0.322082  -0.000000   0.000000
   60  F  4 YZ    0.331102  -0.342380   0.000000  -0.163287  -0.325224
   61  H  5  S    0.184190   0.344362   0.000000  -0.211559   0.402532
   62  H  5  S    0.152019  -0.016907   0.000000  -0.012329  -0.049763
   63  H  6  S   -0.184177  -0.344364   0.000000  -0.211548   0.402566
   64  H  6  S   -0.152044   0.016906   0.000000  -0.012324  -0.049679

                     51         52         53         54         55
                    2.1435     2.2561     2.3023     2.4941     2.4978
                     A          A          A          A          A   
    1  C  1  S    0.003311   0.000000  -0.066088   0.000000  -0.012685
    2  C  1  S    0.267064   0.000000  -0.539590   0.000000  -0.016875
    3  C  1  X   -0.000000  -0.041513   0.000000  -0.123230   0.000000
    4  C  1  Y    0.040733   0.000000  -0.066263   0.000000  -0.127229
    5  C  1  Z   -0.036125   0.000000   0.166526   0.000000   0.130444
    6  C  1  S   -1.432347   0.000000   2.386232   0.000000  -0.130551
    7  C  1  X   -0.000000  -0.269525   0.000000  -0.142454   0.000000
    8  C  1  Y    1.139447   0.000000  -1.163369   0.000000  -0.205793
    9  C  1  Z    1.482646   0.000000  -1.512435   0.000000  -0.264977
   10  C  1 XX   -0.309618   0.000000  -0.593501   0.000000  -0.109794
   11  C  1 YY   -0.075631   0.000000   0.056155   0.000000  -0.341447
   12  C  1 ZZ    0.273389   0.000000   0.423559   0.000000   0.422328
   13  C  1 XY   -0.000000   0.663138   0.000000  -0.226520   0.000000
   14  C  1 XZ   -0.000000   0.277483   0.000000   0.538251   0.000000
   15  C  1 YZ   -0.010659   0.000000  -0.212956   0.000000   0.314003
   16  C  2  S   -0.003309   0.000000   0.066087   0.000000  -0.012685
   17  C  2  S   -0.267023   0.000000   0.539556   0.000000  -0.016877
   18  C  2  X   -0.000000   0.041512   0.000000  -0.123229   0.000000
   19  C  2  Y    0.040757   0.000000  -0.066267   0.000000   0.127231
   20  C  2  Z    0.036110   0.000000  -0.166508   0.000000   0.130439
   21  C  2  S    1.432281   0.000000  -2.386196   0.000000  -0.130536
   22  C  2  X   -0.000000   0.269525   0.000000  -0.142452   0.000000
   23  C  2  Y    1.139437   0.000000  -1.163367   0.000000   0.205816
   24  C  2  Z   -1.482606   0.000000   1.512425   0.000000  -0.264991
   25  C  2 XX    0.309664   0.000000   0.593494   0.000000  -0.109789
   26  C  2 YY    0.075594   0.000000  -0.056140   0.000000  -0.341444
   27  C  2 ZZ   -0.273387   0.000000  -0.423575   0.000000   0.422327
   28  C  2 XY   -0.000000   0.663139   0.000000   0.226516   0.000000
   29  C  2 XZ   -0.000000  -0.277485   0.000000   0.538244   0.000000
   30  C  2 YZ   -0.010643   0.000000  -0.212968   0.000000  -0.314004
   31  F  3  S   -0.024683   0.000000   0.045362   0.000000   0.002843
   32  F  3  S   -0.685971   0.000000   0.375939   0.000000   0.026687
   33  F  3  X   -0.000000  -0.064913   0.000000  -0.115038   0.000000
   34  F  3  Y    0.167128   0.000000   0.053234   0.000000  -0.089582
   35  F  3  Z   -0.140278   0.000000  -0.220578   0.000000  -0.077178
   36  F  3  S    1.697166   0.000000  -1.595925   0.000000  -0.115861
   37  F  3  X   -0.000000   0.139505   0.000000   0.325383   0.000000
   38  F  3  Y   -0.399815   0.000000   0.262514   0.000000   0.299314
   39  F  3  Z    0.258478   0.000000  -0.079359   0.000000   0.175256
   40  F  3 XX    0.320694   0.000000  -0.181386   0.000000  -0.035973
   41  F  3 YY   -0.444045   0.000000   0.080249   0.000000  -0.490623
   42  F  3 ZZ   -0.466856   0.000000   0.469037   0.000000   0.547077
   43  F  3 XY   -0.000000  -0.366075   0.000000  -0.304715   0.000000
   44  F  3 XZ   -0.000000  -0.005362   0.000000   0.612710   0.000000
   45  F  3 YZ   -0.206784   0.000000  -0.013876   0.000000   0.337106
   46  F  4  S    0.024683   0.000000  -0.045366   0.000000   0.002843
   47  F  4  S    0.685910   0.000000  -0.375915   0.000000   0.026692
   48  F  4  X   -0.000000   0.064912   0.000000  -0.115037   0.000000
   49  F  4  Y    0.167118   0.000000   0.053241   0.000000   0.089585
   50  F  4  Z    0.140269   0.000000   0.220583   0.000000  -0.077178
   51  F  4  S   -1.697041   0.000000   1.595911   0.000000  -0.115872
   52  F  4  X   -0.000000  -0.139504   0.000000   0.325380   0.000000
   53  F  4  Y   -0.399790   0.000000   0.262510   0.000000  -0.299322
   54  F  4  Z   -0.258455   0.000000   0.079359   0.000000   0.175257
   55  F  4 XX   -0.320723   0.000000   0.181367   0.000000  -0.035972
   56  F  4 YY    0.444068   0.000000  -0.080266   0.000000  -0.490627
   57  F  4 ZZ    0.466827   0.000000  -0.469024   0.000000   0.547082
   58  F  4 XY   -0.000000  -0.366076   0.000000   0.304715   0.000000
   59  F  4 XZ   -0.000000   0.005365   0.000000   0.612702   0.000000
   60  F  4 YZ   -0.206822   0.000000  -0.013846   0.000000  -0.337109
   61  H  5  S    0.358293   0.000000  -0.042980   0.000000  -0.162897
   62  H  5  S    0.629264   0.000000  -0.540789   0.000000   0.290746
   63  H  6  S   -0.358271   0.000000   0.042972   0.000000  -0.162907
   64  H  6  S   -0.629278   0.000000   0.540786   0.000000   0.290739

                     56         57         58         59         60
[...]
   11  C  1 YY    0.000999  -0.025918  -0.084368   0.074237   0.000000
   12  C  1 ZZ    0.003796   0.004058  -0.048778   0.022125   0.000000
   13  C  1 XY    0.000000   0.000000   0.000000   0.000000  -0.053927
   14  C  1 XZ    0.000000   0.000000   0.000000   0.000000  -0.018388
   15  C  1 YZ    0.017201  -0.010428   0.046473   0.114094   0.000000
   16  C  2  S   -0.024901   0.125560  -0.045844  -0.001466   0.000000
   17  C  2  S    0.044853  -0.128892  -0.223672   0.754635   0.000000
   18  C  2  X    0.000000   0.000000   0.000000   0.000000   0.738184
   19  C  2  Y   -0.087747  -0.182542  -0.514367  -0.005088   0.000000
   20  C  2  Z   -0.246814   0.270695  -0.277380  -0.358033   0.000000
   21  C  2  S   -1.115757  -3.608093  -0.013721  -0.887885   0.000000
   22  C  2  X    0.000000   0.000000   0.000000   0.000000  -0.660811
   23  C  2  Y   -1.509693  -2.828928   0.912420   0.028713   0.000000
   24  C  2  Z   -1.258645   1.003484   0.318800   0.401006   0.000000
   25  C  2 XX    0.015761  -0.012208   0.025330   0.010333   0.000000
   26  C  2 YY   -0.000993   0.026033  -0.084258   0.074245   0.000000
   27  C  2 ZZ   -0.003780  -0.003980  -0.048772   0.022126   0.000000
   28  C  2 XY    0.000000   0.000000   0.000000   0.000000   0.053927
   29  C  2 XZ    0.000000   0.000000   0.000000   0.000000  -0.018389
   30  C  2 YZ    0.017201  -0.010388  -0.046463  -0.114110   0.000000
   31  F  3  S   -0.073781   0.027878  -0.000934  -0.005996   0.000000
   32  F  3  S    0.060126  -0.065101  -0.134878   0.088694   0.000000
   33  F  3  X    0.000000   0.000000   0.000000   0.000000   0.046651
   34  F  3  Y   -0.006787   0.180574   0.167960   0.047056   0.000000
   35  F  3  Z    0.164742  -0.056499  -0.088447  -0.175116   0.000000
   36  F  3  S    1.032510  -0.275911   0.438258   0.181269   0.000000
   37  F  3  X    0.000000   0.000000   0.000000   0.000000   0.065213
   38  F  3  Y   -0.139236   0.366684   0.060679  -0.088209   0.000000
   39  F  3  Z    0.398724  -0.058588   0.075017   0.089863   0.000000
   40  F  3 XX   -0.046238   0.006394  -0.057664  -0.002089   0.000000
   41  F  3 YY   -0.035380  -0.011478  -0.048337   0.047676   0.000000
   42  F  3 ZZ   -0.025623   0.001156  -0.003202   0.100556   0.000000
   43  F  3 XY    0.000000   0.000000   0.000000   0.000000  -0.017328
   44  F  3 XZ    0.000000   0.000000   0.000000   0.000000   0.033964
   45  F  3 YZ   -0.009421  -0.021322  -0.048621  -0.071076   0.000000
   46  F  4  S    0.073787  -0.027882  -0.000939  -0.005996   0.000000
   47  F  4  S   -0.060013   0.065215  -0.134705   0.088703   0.000000
   48  F  4  X    0.000000   0.000000   0.000000   0.000000   0.046653
   49  F  4  Y   -0.006734   0.180759  -0.167653  -0.047097   0.000000
   50  F  4  Z   -0.164734   0.056580  -0.088354  -0.175165   0.000000
   51  F  4  S   -1.032747   0.275514   0.437810   0.181376   0.000000
   52  F  4  X    0.000000   0.000000   0.000000   0.000000   0.065214
   53  F  4  Y   -0.139208   0.366842  -0.060469   0.088234   0.000000
   54  F  4  Z   -0.398744   0.058519   0.074957   0.089905   0.000000
   55  F  4 XX    0.046301  -0.006360  -0.057594  -0.002090   0.000000
   56  F  4 YY    0.035441   0.011516  -0.048300   0.047694   0.000000
   57  F  4 ZZ    0.025682  -0.001167  -0.003153   0.100587   0.000000
   58  F  4 XY    0.000000   0.000000   0.000000   0.000000   0.017328
   59  F  4 XZ    0.000000   0.000000   0.000000   0.000000   0.033964
   60  F  4 YZ   -0.009424  -0.021360   0.048541   0.071095   0.000000
   61  H  5  S   -0.133330   0.088765  -0.102624   0.272759   0.000000
   62  H  5  S    0.326793  -1.144709   0.025163  -0.149783   0.000000
   63  H  6  S    0.133340  -0.088702  -0.102717   0.272720   0.000000
   64  H  6  S   -0.326916   1.144515   0.026111  -0.149893   0.000000

                     26         27
                    0.7141     0.7152
                     A          A   
    1  C  1  S   -0.032398  -0.024788
    2  C  1  S   -0.351567  -0.111582
    3  C  1  X    0.000000   0.000000
    4  C  1  Y   -0.520070  -0.155590
    5  C  1  Z    0.508569  -0.365237
    6  C  1  S    1.542651   0.896984
    7  C  1  X    0.000000   0.000000
    8  C  1  Y   -0.233305   0.774717
    9  C  1  Z   -1.212544   0.680542
   10  C  1 XX   -0.003498   0.032373
   11  C  1 YY   -0.093322  -0.003663
   12  C  1 ZZ    0.070251  -0.089169
   13  C  1 XY    0.000000   0.000000
   14  C  1 XZ    0.000000   0.000000
   15  C  1 YZ   -0.054362  -0.048636
   16  C  2  S    0.032301  -0.024902
   17  C  2  S    0.351075  -0.112969
   18  C  2  X    0.000000   0.000000
   19  C  2  Y   -0.519676   0.157423
   20  C  2  Z   -0.509742  -0.363659
   21  C  2  S   -1.539633   0.902852
   22  C  2  X    0.000000   0.000000
   23  C  2  Y   -0.235685  -0.773866
   24  C  2  Z    1.214837   0.676888
   25  C  2 XX    0.003634   0.032337
   26  C  2 YY    0.093287  -0.004031
   27  C  2 ZZ   -0.070566  -0.088949
   28  C  2 XY    0.000000   0.000000
   29  C  2 XZ    0.000000   0.000000
   30  C  2 YZ   -0.054186   0.048823
   31  F  3  S    0.006124   0.011898
   32  F  3  S    0.053635   0.033268
   33  F  3  X    0.000000   0.000000
   34  F  3  Y   -0.124884  -0.179309
   35  F  3  Z    0.204418  -0.171515
   36  F  3  S   -0.608648  -0.176232
   37  F  3  X    0.000000   0.000000
   38  F  3  Y    0.155996  -0.025204
   39  F  3  Z   -0.102018  -0.096115
   40  F  3 XX    0.070594   0.033086
   41  F  3 YY   -0.005006   0.004616
   42  F  3 ZZ   -0.079461   0.057744
   43  F  3 XY    0.000000   0.000000
   44  F  3 XZ    0.000000   0.000000
   45  F  3 YZ    0.071786  -0.018712
   46  F  4  S   -0.006098   0.011915
   47  F  4  S   -0.053739   0.033465
   48  F  4  X    0.000000   0.000000
   49  F  4  Y   -0.124344   0.179716
   50  F  4  Z   -0.204983  -0.170809
   51  F  4  S    0.608524  -0.178230
   52  F  4  X    0.000000   0.000000
   53  F  4  Y    0.156106   0.024699
   54  F  4  Z    0.101720  -0.096463
   55  F  4 XX   -0.070592   0.033330
   56  F  4 YY    0.004908   0.004611
   57  F  4 ZZ    0.079549   0.057468
   58  F  4 XY    0.000000   0.000000
   59  F  4 XZ    0.000000   0.000000
   60  F  4 YZ    0.071849   0.018473
   61  H  5  S    0.103387  -0.508946
   62  H  5  S   -0.294859  -0.415810
   63  H  6  S   -0.105272  -0.508617
   64  H  6  S    0.293597  -0.416525

     ------------------------------------------
     PROPERTIES FOR THE BHHLYP   DFT FUNCTIONAL
      USING THE RELAXED DENSITY OF EXCITED STATE    1
     ------------------------------------------

          -----------------
          ENERGY COMPONENTS
          -----------------

         WAVEFUNCTION NORMALIZATION =       1.0000000000

                ONE ELECTRON ENERGY =    -609.4948943850
                TWO ELECTRON ENERGY =     218.0943660184
           NUCLEAR REPULSION ENERGY =     114.4897949947
                                      ------------------
                       TOTAL ENERGY =    -276.9107333718

 ELECTRON-ELECTRON POTENTIAL ENERGY =     218.0943660184
  NUCLEUS-ELECTRON POTENTIAL ENERGY =    -884.7568641720
   NUCLEUS-NUCLEUS POTENTIAL ENERGY =     114.4897949947
                                      ------------------
             TOTAL POTENTIAL ENERGY =    -552.1727031589
               TOTAL KINETIC ENERGY =     275.2619697871
                 VIRIAL RATIO (V/T) =       2.0059897980

          ---------------------------------------
          MULLIKEN AND LOWDIN POPULATION ANALYSES
          ---------------------------------------

     ATOMIC MULLIKEN POPULATION IN EACH MOLECULAR ORBITAL
        ALPHA ORBITALS

                      1          2          3          4          5

                  1.000000   1.000000   1.000000   1.000000   1.000000

    1             0.000003  -0.000009   0.504528   0.495571   0.060703
    2            -0.000007   0.000003   0.495494   0.504607   0.060694
    3             0.905504   0.094501  -0.000118  -0.000176   0.439504
    4             0.094499   0.905505  -0.000115  -0.000179   0.439194
    5             0.000000  -0.000000   0.000104   0.000090  -0.000047
    6             0.000001  -0.000000   0.000106   0.000088  -0.000048

                      6          7          8          9         10

                  1.000000   1.000000   1.000000   1.000000   1.000000

    1             0.042128   0.409706   0.210513   0.217116   0.166213
    2             0.042162   0.410022   0.210512   0.217127   0.166232
    3             0.458657   0.071915   0.239700   0.204400   0.333003
    4             0.458965   0.071910   0.239665   0.204374   0.333029
    5            -0.000956   0.018222   0.049801   0.078480   0.000762
    6            -0.000955   0.018225   0.049809   0.078503   0.000760

                     11         12         13         14         15

                  1.000000   1.000000   1.000000   1.000000   1.000000

    1             0.157503   0.121054   0.046876   0.079434   0.128204
    2             0.157484   0.121068   0.046898   0.079426   0.128234
    3             0.342551   0.308710   0.453071   0.348464   0.281298
    4             0.342463   0.308728   0.453155   0.348415   0.281366
    5             0.000000   0.070227   0.000000   0.072122   0.090451
    6             0.000000   0.070214   0.000000   0.072139   0.090447

                     16         17

                  1.000000   1.000000

    1             0.346460   0.457006
    2             0.346457   0.457009
    3             0.153539   0.042993
    4             0.153544   0.042992
    5             0.000000   0.000000
    6             0.000000   0.000000

     ATOMIC MULLIKEN POPULATION IN EACH MOLECULAR ORBITAL
         BETA ORBITALS

                      1          2          3          4          5

                  1.000000   1.000000   1.000000   1.000000   1.000000

    1             0.000012  -0.000010   0.504662   0.495517   0.054888
    2            -0.000005   0.000008   0.495430   0.504749   0.054873
    3             0.871116   0.128881  -0.000154  -0.000236   0.445137
    4             0.128875   0.871121  -0.000150  -0.000240   0.444795
    5             0.000001  -0.000000   0.000104   0.000106   0.000155
    6             0.000001  -0.000001   0.000106   0.000104   0.000154

                      6          7          8          9         10

                  1.000000   1.000000   1.000000   1.000000   1.000000

    1             0.039626   0.390351   0.171425   0.198062   0.164586
    2             0.039661   0.390642   0.171423   0.198070   0.164610
    3             0.460958   0.081945   0.278848   0.212767   0.334066
    4             0.461299   0.081938   0.278805   0.212740   0.334103
    5            -0.000773   0.027560   0.049746   0.089167   0.001319
    6            -0.000772   0.027564   0.049752   0.089194   0.001316

                     11         12         13         14         15

                  1.000000   1.000000   1.000000   1.000000   1.000000

    1             0.111651   0.073713   0.035300   0.081964   0.131486
    2             0.111664   0.073691   0.035323   0.081956   0.131520
    3             0.307364   0.426391   0.464596   0.318203   0.267558
    4             0.307382   0.426205   0.464781   0.318155   0.267624
    5             0.080978   0.000000   0.000000   0.099851   0.100910
    6             0.080961   0.000000   0.000000   0.099870   0.100902

     ATOMIC SPIN POPULATION (ALPHA MINUS BETA)
       ATOM         MULL.POP.                    LOW.POP.
    1 C             0.010744                     0.005991
    2 C             0.010674                     0.005987
    3 F            -0.005215                    -0.003303
    4 F            -0.005210                    -0.003302
    5 H            -0.005497                    -0.002687
    6 H            -0.005497                    -0.002687


          ********* ALL ELECTRONS ********

               ----- POPULATIONS IN EACH AO -----
                             MULLIKEN      LOWDIN
              1  C  1  S      1.99363     1.97714
              2  C  1  S      0.69448     0.36022
              3  C  1  X      0.62286     0.56863
              4  C  1  Y      0.74511     0.64558
              5  C  1  Z      0.60899     0.53766
              6  C  1  S      0.44488     0.29779
              7  C  1  X      0.43847     0.47568
              8  C  1  Y      0.13997     0.30561
              9  C  1  Z      0.13372     0.28330
             10  C  1 XX     -0.02445     0.09965
             11  C  1 YY      0.01387     0.19451
             12  C  1 ZZ      0.01951     0.18243
             13  C  1 XY      0.01304     0.02606
             14  C  1 XZ      0.00742     0.01648
             15  C  1 YZ      0.02713     0.05438
             16  C  2  S      1.99363     1.97714
             17  C  2  S      0.69444     0.36022
             18  C  2  X      0.62285     0.56862
             19  C  2  Y      0.74511     0.64559
             20  C  2  Z      0.60899     0.53766
             21  C  2  S      0.44543     0.29782
             22  C  2  X      0.43848     0.47569
             23  C  2  Y      0.14021     0.30563
             24  C  2  Z      0.13380     0.28330
             25  C  2 XX     -0.02447     0.09966
             26  C  2 YY      0.01387     0.19451
             27  C  2 ZZ      0.01950     0.18243
             28  C  2 XY      0.01304     0.02606
             29  C  2 XZ      0.00742     0.01648
             30  C  2 YZ      0.02713     0.05438
             31  F  3  S      1.99416     1.97734
             32  F  3  S      0.96289     0.85289
             33  F  3  X      1.18243     1.15046
             34  F  3  Y      1.12242     1.08107
             35  F  3  Z      1.00800     0.95241
             36  F  3  S      0.92105     0.50706
             37  F  3  X      0.73080     0.75128
             38  F  3  Y      0.68874     0.71578
             39  F  3  Z      0.60371     0.65245
             40  F  3 XX      0.01572     0.15788
             41  F  3 YY      0.02212     0.16211
             42  F  3 ZZ      0.03231     0.16790
             43  F  3 XY      0.00150     0.00355
             44  F  3 XZ      0.00348     0.00786
             45  F  3 YZ      0.00668     0.00953
             46  F  4  S      1.99417     1.97734
             47  F  4  S      0.96289     0.85289
             48  F  4  X      1.18243     1.15046
             49  F  4  Y      1.12243     1.08108
             50  F  4  Z      1.00800     0.95240
             51  F  4  S      0.92106     0.50706
             52  F  4  X      0.73080     0.75128
             53  F  4  Y      0.68873     0.71578
             54  F  4  Z      0.60369     0.65245
             55  F  4 XX      0.01572     0.15788
             56  F  4 YY      0.02212     0.16211
             57  F  4 ZZ      0.03231     0.16790
             58  F  4 XY      0.00150     0.00355
             59  F  4 XZ      0.00348     0.00786
             60  F  4 YZ      0.00667     0.00953
             61  H  5  S      0.53160     0.48321
             62  H  5  S      0.29333     0.34207
             63  H  6  S      0.53161     0.48321
             64  H  6  S      0.29339     0.34208

          ----- MULLIKEN ATOMIC OVERLAP POPULATIONS -----
          (OFF-DIAGONAL ELEMENTS NEED TO BE MULTIPLIED BY 2)

             1           2           3           4           5

    1    4.7851608
    2    0.5413142   4.7861864
    3    0.2788150  -0.0384175   9.0876060
    4   -0.0383966   0.2787138   0.0003448   9.0876530
    5   -0.0609668   0.3726465   0.0016576  -0.0339717   0.5418169
    6    0.3726895  -0.0610113  -0.0339879   0.0016583   0.0037544

             6

    6    0.5418920

          TOTAL MULLIKEN AND LOWDIN ATOMIC POPULATIONS
       ATOM         MULL.POP.    CHARGE          LOW.POP.     CHARGE
    1 C             5.878616    0.121384         6.025110   -0.025110
    2 C             5.879432    0.120568         6.025180   -0.025180
    3 F             9.296018   -0.296018         9.149569   -0.149569
    4 F             9.296002   -0.296002         9.149573   -0.149573
    5 H             0.824937    0.175063         0.825280    0.174720
    6 H             0.824995    0.175005         0.825288    0.174712

          -------------------------------
          BOND ORDER AND VALENCE ANALYSIS     BOND ORDER THRESHOLD=0.050
          -------------------------------

                   BOND                       BOND                       BOND
  ATOM PAIR DIST  ORDER      ATOM PAIR DIST  ORDER      ATOM PAIR DIST  ORDER
    1   2  1.321  1.777        1   3  1.328  0.962        1   4  2.319  0.054
    1   6  1.073  0.928        2   3  2.319  0.054        2   4  1.328  0.962
    2   5  1.073  0.928

                       TOTAL       BONDED        FREE
      ATOM            VALENCE     VALENCE     VALENCE
    1 C                 3.755       3.705       0.050
    2 C                 3.755       3.705       0.050
    3 F                 1.041       1.038       0.003
    4 F                 1.041       1.038       0.003
    5 H                 0.926       0.928      -0.002
    6 H                 0.926       0.928      -0.002

          -----------------------------------------
          ATOMIC SPIN DENSITY AT THE NUCLEUS (A.U.)
          -----------------------------------------
                            SPIN DENS    ALPHA DENS     BETA DENS
    1  C            6.0     0.0064353      58.91021      58.90377
    2  C            6.0     0.0064128      58.91030      58.90389
    3  F            9.0     0.0018345     209.39054     209.38870
    4  F            9.0     0.0018363     209.39070     209.38886
    5  H            1.0    -0.0021173       0.21223       0.21435
    6  H            1.0    -0.0021174       0.21223       0.21435

          ---------------------
          ELECTROSTATIC MOMENTS
          ---------------------

 POINT   1           X           Y           Z (BOHR)    CHARGE
                 0.000000    0.000003   -0.950662        0.00 (A.U.)
         DX          DY          DZ         /D/  (DEBYE)
     0.000000    0.000102    2.387746    2.387746
 ...... END OF PROPERTY EVALUATION ......
 STEP CPU TIME =     0.01 TOTAL CPU TIME =      356.7 (    5.9 MIN)
 TOTAL WALL CLOCK TIME=      362.8 SECONDS, CPU UTILIZATION IS  98.31%
  $VIB   
          IVIB=   0 IATOM=   0 ICOORD=   0 E=     -276.9107333718
  0.000000000E+00-2.022955691E-06-2.585036734E-06 0.000000000E+00-7.975136009E-07
 -3.376274267E-06 0.000000000E+00-1.729259141E-06 2.727685400E-06 0.000000000E+00
  3.496636908E-06 2.923580737E-06 0.000000000E+00 2.466694611E-07 6.742255840E-07
  0.000000000E+00 8.064220632E-07-3.641807190E-07
  5.278131669E-12 1.019416063E-04 2.387746394E+00
 ......END OF GEOMETRY SEARCH......
 STEP CPU TIME =     0.00 TOTAL CPU TIME =      356.7 (    5.9 MIN)
 TOTAL WALL CLOCK TIME=      362.8 SECONDS, CPU UTILIZATION IS  98.31%
              2966315  WORDS OF DYNAMIC MEMORY USED
 EXECUTION OF GAMESS TERMINATED NORMALLY Tue Nov 29 02:49:07 2016
 DDI: 263640 bytes (0.3 MB / 0 MWords) used by master data server.

 ----------------------------------------
 CPU timing information for all processes
 ========================================
 0: 355.770 + 0.956 = 356.727
 ----------------------------------------
 ddikick.x: exited gracefully.
unset echo
----- accounting info -----
Files used on the master node compute-3-0 were:
-rw-rw-r-- 1 sarom sarom   622226 Nov 29  2016 .//sf-u-opt.dat
-rw-rw-r-- 1 sarom sarom    35931 Nov 29  2016 .//sf-u-opt.F05
-rw-rw-r-- 1 sarom sarom 12781136 Nov 29  2016 .//sf-u-opt.F08
-rw-rw-r-- 1 sarom sarom  2454000 Nov 29  2016 .//sf-u-opt.F10
-rw-rw-r-- 1 sarom sarom  1798352 Nov 29  2016 .//sf-u-opt.F22
-rw-rw-r-- 1 sarom sarom    35931 Nov 28 17:27 .//sf-u-opt.inp
-rw-rw-r-- 1 sarom sarom   354275 Nov 29  2016 .//sf-u-opt.log
Tue Nov 29 02:49:10 CST 2016
0.191u 0.579s 6:06.75 0.2%	0+0k 0+200io 0pf+0w
