----- GAMESS execution script 'rungms' -----
This job is running on host compute-3-0
under operating system Linux at Tue Nov 29 02:43:04 CST 2016
Available scratch disk space (Kbyte units) at beginning of the job is
Filesystem            1K-blocks       Used  Available Use% Mounted on
bolt.local:/export/home/sarom
                     9590469632 1553479680 7549821952  18% /home/sarom
Copying input file tddft-bond-funct.inp to your run's scratch directory...
cp tddft-bond-funct.inp .//tddft-bond-funct.F05
unset echo
/home/sarom/gamessGH/ddikick.x /home/sarom/gamessGH/gamess.00.x tddft-bond-funct -ddi 1 1 localhost -scr ./

 Distributed Data Interface kickoff program.
 Initiating 1 compute processes on 1 nodes to run the following command:
 /home/sarom/gamessGH/gamess.00.x tddft-bond-funct 

          ******************************************************
          *         GAMESS VERSION = 18 AUG 2016 (R1)          *
          *             FROM IOWA STATE UNIVERSITY             *
          * M.W.SCHMIDT, K.K.BALDRIDGE, J.A.BOATZ, S.T.ELBERT, *
          *   M.S.GORDON, J.H.JENSEN, S.KOSEKI, N.MATSUNAGA,   *
          *          K.A.NGUYEN, S.J.SU, T.L.WINDUS,           *
          *       TOGETHER WITH M.DUPUIS, J.A.MONTGOMERY       *
          *         J.COMPUT.CHEM.  14, 1347-1363(1993)        *
          **************** 64 BIT LINUX VERSION ****************

  SINCE 1993, STUDENTS AND POSTDOCS WORKING AT IOWA STATE UNIVERSITY
  AND ALSO IN THEIR VARIOUS JOBS AFTER LEAVING ISU HAVE MADE IMPORTANT
  CONTRIBUTIONS TO THE CODE:
     IVANA ADAMOVIC, CHRISTINE AIKENS, YURI ALEXEEV, POOJA ARORA,
     ANDREY ASADCHEV, ROB BELL, PRADIPTA BANDYOPADHYAY, JONATHAN BENTZ,
     BRETT BODE, KURT BRORSEN, CALEB CARLIN, GALINA CHABAN, WEI CHEN,
     CHEOL HO CHOI, PAUL DAY, ALBERT DEFUSCO, NUWAN DESILVA, TIM DUDLEY,
     DMITRI FEDOROV, GRAHAM FLETCHER, MARK FREITAG, KURT GLAESEMANN,
     DAN KEMP, GRANT MERRILL, NORIYUKI MINEZAWA, JONATHAN MULLIN,
     TAKESHI NAGATA, SEAN NEDD, HEATHER NETZLOFF, BOSILJKA NJEGIC, RYAN OLSON,
     MIKE PAK, SPENCER PRUITT, LUKE ROSKOP, JIM SHOEMAKER, LYUDMILA SLIPCHENKO,
     TONY SMITH, SAROM SOK LEANG, JIE SONG, TETSUYA TAKETSUGU, SIMON WEBB,
     PENG XU, SOOHAENG YOO, FEDERICO ZAHARIEV

  ADDITIONAL CODE HAS BEEN PROVIDED BY COLLABORATORS IN OTHER GROUPS:
     IOWA STATE UNIVERSITY:
          JOE IVANIC, AARON WEST, LAIMUTIS BYTAUTAS, KLAUS RUEDENBERG
     UNIVERSITY OF TOKYO: KIMIHIKO HIRAO, TAKAHITO NAKAJIMA,
          TAKAO TSUNEDA, MUNEAKI KAMIYA, SUSUMU YANAGISAWA,
          KIYOSHI YAGI, MAHITO CHIBA, SEIKEN TOKURA, NAOAKI KAWAKAMI
     UNIVERSITY OF AARHUS: FRANK JENSEN
     UNIVERSITY OF IOWA: VISVALDAS KAIRYS, HUI LI
     NATIONAL INST. OF STANDARDS AND TECHNOLOGY: WALT STEVENS, DAVID GARMER
     UNIVERSITY OF PISA: BENEDETTA MENNUCCI, JACOPO TOMASI
     UNIVERSITY OF MEMPHIS: HENRY KURTZ, PRAKASHAN KORAMBATH
     UNIVERSITY OF ALBERTA: TOBY ZENG, MARIUSZ KLOBUKOWSKI
     UNIVERSITY OF NEW ENGLAND: MARK SPACKMAN
     MIE UNIVERSITY: HIROAKI UMEDA
     NAT. INST. OF ADVANCED INDUSTRIAL SCIENCE AND TECHNOLOGY: KAZUO KITAURA
     MICHIGAN STATE UNIVERSITY:
          KAROL KOWALSKI, MARTA WLOCH, JEFFREY GOUR, JESSE LUTZ,
          WEI LI, PIOTR PIECUCH
     UNIVERSITY OF SILESIA: MONIKA MUSIAL, STANISLAW KUCHARSKI
     FACULTES UNIVERSITAIRES NOTRE-DAME DE LA PAIX:
          OLIVIER QUINET, BENOIT CHAMPAGNE
     UNIVERSITY OF CALIFORNIA - SANTA BARBARA: BERNARD KIRTMAN
     INSTITUTE FOR MOLECULAR SCIENCE:
          KAZUYA ISHIMURA, MICHIO KATOUDA, AND SHIGERU NAGASE
     UNIVERSITY OF NOTRE DAME: ANNA POMOGAEVA, DAN CHIPMAN
     KYUSHU UNIVERSITY:
          HARUYUKI NAKANO,
          FENG LONG GU, JACEK KORCHOWIEC, MARCIN MAKOWSKI, AND YURIKO AOKI,
          HIROTOSHI MORI AND EISAKU MIYOSHI
     PENNSYLVANIA STATE UNIVERSITY:
          TZVETELIN IORDANOV, CHET SWALINA, JONATHAN SKONE,
          SHARON HAMMES-SCHIFFER
     WASEDA UNIVERSITY:
          MASATO KOBAYASHI, TOMOKO AKAMA, TSUGUKI TOUMA,
          TAKESHI YOSHIKAWA, YASUHIRO IKABATA, JUNJI SEINO,
          YUYA NAKAJIMA, HIROMI NAKAI
     NANJING UNIVERSITY: SHUHUA LI
     UNIVERSITY OF NEBRASKA:
          PEIFENG SU, DEJUN SI, NANDUN THELLAMUREGE, YALI WANG, HUI LI
     UNIVERSITY OF ZURICH: ROBERTO PEVERATI, KIM BALDRIDGE
     N. COPERNICUS UNIVERSITY AND JACKSON STATE UNIVERSITY:
          MARIA BARYSZ
     UNIVERSITY OF COPENHAGEN: Jimmy Kromann, CASPER STEINMANN
     TOKYO INSTITUTE OF TECHNOLOGY: HIROYA NAKATA
     NAGOYA UNIVERSITY: YOSHIO NISHIMOTO, STEPHAN IRLE
     MOSCOW STATE UNIVERSITY: VLADIMIR MIRONOV

 EXECUTION OF GAMESS BEGUN Tue Nov 29 02:43:04 2016

            ECHO OF THE FIRST FEW INPUT CARDS -
 INPUT CARD>!  test of DFT grid for bond functions.                                         
 INPUT CARD>!                                                                               
 INPUT CARD>!  We add a bond function for the heck of it, note that sparkles and            
 INPUT CARD>!  bond functions are given zero Bragg/Slater radii (i.e. no grid).             
 INPUT CARD>!  Philosophy is that at bond center, we already have Becke fuzziness           
 INPUT CARD>!  merging two grids, so another grid wouldn't help much.                       
 INPUT CARD>!  And anyway, what radius would we pick for that center?                       
 INPUT CARD>!                                                                               
 INPUT CARD>!   DFT level, with BF:                                                         
 INPUT CARD>!                         SUMMARY OF TDDFT RESULTS                              
 INPUT CARD>!  STATE             ENERGY     EXCITATION  TRANSITION DIPOLE, A.U.  OSCILLATOR 
 INPUT CARD>!  0 ->             HARTREE          EV         X       Y       Z     STRENGTH  
 INPUT CARD>!  0  A1        -113.2889161135    0.000                                        
 INPUT CARD>!  1  E         -113.0222271797    7.257     0.4264  0.3013  0.0000    0.0485   
 INPUT CARD>!  2  E         -113.0222271797    7.257    -0.3013  0.4264  0.0000    0.0485   
 INPUT CARD>!  3  A1        -113.0063338771    7.689     0.0000  0.0000  0.0000    0.0000   
 INPUT CARD>!                                                                               
 INPUT CARD>!   This test takes 2 seconds on 2.66 GHz Cloverton ( 3 Apr 2015)               
 INPUT CARD>!                                                                               
 INPUT CARD>!  ---------------------------------------------------------------------------  
 INPUT CARD>!   SCF level, with BF: -112.7037031664, w/o: -112.7019789108, diff= 0.001724   
 INPUT CARD>!   DFT level, with BF: -113.2889161135, w/o: -113.2861753787, diff= 0.002741   
 INPUT CARD>!                                                                               
 INPUT CARD>!   SCF level, with BF:                                                         
 INPUT CARD>!  0  A1        -112.7037031664    0.000                                        
 INPUT CARD>!  1  A1        -112.4477651414    6.964     0.0000  0.0000  0.0000    0.000    
 INPUT CARD>!  2  E         -112.4330885809    7.364     0.2353 -0.4523  0.0000    0.047    
 INPUT CARD>!  3  E         -112.4330885809    7.364     0.4523  0.2353  0.0000    0.047    
 INPUT CARD>!   SCF level, w/o BF:                                                          
 INPUT CARD>!  0  A1        -112.7019789108    0.000                                        
 INPUT CARD>!  1  A1        -112.4462971366    6.957     0.0000  0.0000  0.0000    0.000    
 INPUT CARD>!  2  E         -112.4317505388    7.353    -0.4838 -0.1703  0.0000    0.047    
 INPUT CARD>!  3  E         -112.4317505388    7.353     0.1703 -0.4838  0.0000    0.047    
 INPUT CARD>!   DFT level, with BF:        [EXPECTED RESULTS]                               
 INPUT CARD>!  0  A1        -113.2889161135    0.000                                        
 INPUT CARD>!  1  E         -113.0222271797    7.257     0.4264  0.3013  0.0000    0.048    
 INPUT CARD>!  2  E         -113.0222271797    7.257    -0.3013  0.4264  0.0000    0.048    
 INPUT CARD>!  3  A1        -113.0063338771    7.689     0.0000  0.0000  0.0000    0.000    
 INPUT CARD>!   DFT level, w/o BF:                                                          
 INPUT CARD>!  0  A1        -113.2861753787    0.000                                        
 INPUT CARD>!  1  E         -113.0196720479    7.252     0.5019  0.1589  0.0000    0.049    
 INPUT CARD>!  2  E         -113.0196720479    7.252     0.1589 -0.5019  0.0000    0.049    
 INPUT CARD>!  3  A1        -113.0034920957    7.692     0.0000  0.0000  0.0000    0.000    
 INPUT CARD>!                                                                               
 INPUT CARD> $contrl scftyp=rhf dfttyp=blyp tddft=excite runtyp=energy $end                 
 INPUT CARD> $system timlim=40 mwords=7 $end                                                
 INPUT CARD> $dft    nrad=96 nthe=12 nphi=24 $end                                           
 INPUT CARD> $tddft  nrad=24 nthe=8  nphi=16 nstate=3 mult=1 iroot=1 $end                   
 INPUT CARD> $guess  guess=huckel $end                                                      
 INPUT CARD>---$basis  gbasis=N31 ngauss=6 diffsp=.t. ndfunc=1 $end                         
    7000000 WORDS OF MEMORY AVAILABLE


     RUN TITLE
     ---------
 CO...excitation to the three lowest singlet states                              

 THE POINT GROUP OF THE MOLECULE IS CNV     
 THE ORDER OF THE PRINCIPAL AXIS IS     4

 ATOM      ATOMIC                      COORDINATES (BOHR)
           CHARGE         X                   Y                   Z
 C           6.0     0.0000000000        0.0000000000        0.0000000000
 O           8.0     0.0000000000        0.0000000000        2.3701109634
 X           0.0     0.0000000000        0.0000000000        1.1850554817

          INTERNUCLEAR DISTANCES (ANGS.)
          ------------------------------

                1 C          2 O          3 X     

   1 C       0.0000000    1.2542088 *  0.6271044 *
   2 O       1.2542088 *  0.0000000    0.6271044 *
   3 X       0.6271044 *  0.6271044 *  0.0000000  

  * ... LESS THAN  3.000


     ATOMIC BASIS SET
     ----------------
 THE CONTRACTED PRIMITIVE FUNCTIONS HAVE BEEN UNNORMALIZED
 THE CONTRACTED BASIS FUNCTIONS ARE NOW NORMALIZED TO UNITY

  SHELL TYPE  PRIMITIVE        EXPONENT          CONTRACTION COEFFICIENT(S)

 C         

      1   S       1          3047.5248800    0.001834737132
      1   S       2           457.3695180    0.014037322813
      1   S       3           103.9486850    0.068842622264
      1   S       4            29.2101553    0.232184443216
      1   S       5             9.2866630    0.467941348435
      1   S       6             3.1639270    0.362311985337

      2   L       7             7.8682723   -0.119332419775    0.068999066591
      2   L       8             1.8812885   -0.160854151696    0.316423960957
      2   L       9             0.5442493    1.143456437840    0.744308290898

      3   L      10             0.1687145    1.000000000000    1.000000000000

      4   L      11             0.0438000    1.000000000000    1.000000000000

      5   D      12             0.8000000    1.000000000000

 O         

      6   S      13          5484.6716600    0.001831074430
      6   S      14           825.2349460    0.013950172200
      6   S      15           188.0469580    0.068445078098
      6   S      16            52.9645000    0.232714335992
      6   S      17            16.8975704    0.470192897984
      6   S      18             5.7996353    0.358520852987

      7   L      19            15.5396162   -0.110777549525    0.070874268231
      7   L      20             3.5999336   -0.148026262701    0.339752839147
      7   L      21             1.0137618    1.130767015354    0.727158577316

      8   L      22             0.2700058    1.000000000000    1.000000000000

      9   L      23             0.0845000    1.000000000000    1.000000000000

     10   D      24             0.8000000    1.000000000000

 X         

     11   S      25             0.3000000    1.000000000000

     12   P      26             0.2000000    1.000000000000

 TOTAL NUMBER OF BASIS SET SHELLS             =   12
 NUMBER OF CARTESIAN GAUSSIAN BASIS FUNCTIONS =   42
 NUMBER OF ELECTRONS                          =   14
 CHARGE OF MOLECULE                           =    0
 SPIN MULTIPLICITY                            =    1
 NUMBER OF OCCUPIED ORBITALS (ALPHA)          =    7
 NUMBER OF OCCUPIED ORBITALS (BETA )          =    7
 TOTAL NUMBER OF ATOMS                        =    3
 THE NUCLEAR REPULSION ENERGY IS       20.2522163483

 THIS MOLECULE IS RECOGNIZED AS BEING LINEAR,
 ORBITAL LZ DEGENERACY TOLERANCE ETOLLZ= 1.00E-06

     POLAR COORDINATE GRID-BASED DFT OPTIONS
     ---------------------------------------
     DFTTYP=BLYP    
     NRAD  =      96     NTHE  =      12     NPHI  =      24
     NRAD0 =      24     NTHE0 =       8     NPHI0 =      16
      SWOFF=    5.00E-03 (PURE SCF -> DFT)
     SWITCH=    3.00E-04 (COARSE -> TIGHT GRID)
     THRESH=    0.00E+00 GTHRE=    1.00E+00

 GRIMME'S EMPIRICAL DISPERSION CORRECTION= F

     $CONTRL OPTIONS
     ---------------
 SCFTYP=RHF          RUNTYP=ENERGY       EXETYP=RUN     
 MPLEVL=       0     CITYP =NONE         CCTYP =NONE         VBTYP =NONE    
 DFTTYP=BLYP         TDDFT =EXCITE  
 MULT  =       1     ICHARG=       0     NZVAR =       0     COORD =UNIQUE  
 PP    =NONE         RELWFN=NONE         LOCAL =NONE         NUMGRD=       F
 ISPHER=      -1     NOSYM =       0     MAXIT =      30     UNITS =ANGS    
 PLTORB=       F     MOLPLT=       F     AIMPAC=       F     FRIEND=        
 NPRINT=       7     IREST =       0     GEOM  =INPUT   
 NORMF =       0     NORMP =       0     ITOL  =      20     ICUT  =       9
 INTTYP=BEST         GRDTYP=BEST         QMTTOL= 1.0E-06

     $SYSTEM OPTIONS
     ---------------
  REPLICATED MEMORY=     7000000 WORDS (ON EVERY NODE).
 DISTRIBUTED MEMDDI=           0 MILLION WORDS IN AGGREGATE,
 MEMDDI DISTRIBUTED OVER   1 PROCESSORS IS           0 WORDS/PROCESSOR.
 TOTAL MEMORY REQUESTED ON EACH PROCESSOR=     7000000 WORDS.
 TIMLIM=          40.00 MINUTES, OR       0.0 DAYS.
 PARALL= F  BALTYP=  DLB     KDIAG=    0  COREFL= F
 MXSEQ2=     300 MXSEQ3=     150  mem10=         0

          ----------------
          PROPERTIES INPUT
          ----------------

     MOMENTS            FIELD           POTENTIAL          DENSITY
 IEMOM =       1   IEFLD =       0   IEPOT =       0   IEDEN =       0
 WHERE =COMASS     WHERE =NUCLEI     WHERE =NUCLEI     WHERE =NUCLEI  
 OUTPUT=BOTH       OUTPUT=BOTH       OUTPUT=BOTH       OUTPUT=BOTH    
 IEMINT=       0   IEFINT=       0                     IEDINT=       0
                                                       MORB  =       0
          EXTRAPOLATION IN EFFECT
          DIIS IN EFFECT
 ORBITAL PRINTING OPTION: NPREO=     1    42     2     1

     -------------------------------
     INTEGRAL TRANSFORMATION OPTIONS
     -------------------------------
     NWORD  =            0
     CUTOFF = 1.0E-09     MPTRAN =       0
     DIRTRF =       F     AOINTS =DUP     

          ----------------------
          INTEGRAL INPUT OPTIONS
          ----------------------
 NOPK  =       1 NORDER=       0 SCHWRZ=       F

          ----------------------
          TDDFT INPUT PARAMETERS
          ----------------------
 NSTATE=       3  IROOT=       1   MULT=       1
 MAXVEC=      50 NTRIAL=       5 CNVTOL=  1.00E-07
 TDPRP =       F  TAMMD=       F    TPA=       F
 ALPHA =       F   BETA=       F  PFREQ=    0.00    0.00
   NRAD=      24   NTHE=       8   NPHI=      16

     ------------------------------------------
     THE POINT GROUP IS CNV, NAXIS= 4, ORDER= 8
     ------------------------------------------

     DIMENSIONS OF THE SYMMETRY SUBSPACES ARE
 A1  =   20     A2  =    0     B1  =    2     B2  =    2     E   =    9

 ..... DONE SETTING UP THE RUN .....
 STEP CPU TIME =     0.03 TOTAL CPU TIME =        0.0 (    0.0 MIN)
 TOTAL WALL CLOCK TIME=        0.1 SECONDS, CPU UTILIZATION IS  50.00%

          ********************
          1 ELECTRON INTEGRALS
          ********************
 ...... END OF ONE-ELECTRON INTEGRALS ......
 STEP CPU TIME =     0.00 TOTAL CPU TIME =        0.0 (    0.0 MIN)
 TOTAL WALL CLOCK TIME=        0.1 SECONDS, CPU UTILIZATION IS  50.00%

          -------------
          GUESS OPTIONS
          -------------
          GUESS =HUCKEL            NORB  =       0          NORDER=       0
          MIX   =       F          PRTMO =       F          PUNMO =       F
          TOLZ  = 1.0E-08          TOLE  = 1.0E-05
          SYMDEN=       F          PURIFY=       F

 INITIAL GUESS ORBITALS GENERATED BY HUCKEL   ROUTINE.
 HUCKEL GUESS REQUIRES     15675 WORDS.

 SYMMETRIES FOR INITIAL GUESS ORBITALS FOLLOW.   BOTH SET(S).
     7 ORBITALS ARE OCCUPIED (    2 CORE ORBITALS).
     3=A1       4=A1       5=E        6=E        7=A1       8=E        9=E   
    10=A1      11=A1      12=A1      13=A1      14=A1      15=A1      16=A1  
    17=A1  
 ...... END OF INITIAL ORBITAL SELECTION ......
 STEP CPU TIME =     0.00 TOTAL CPU TIME =        0.0 (    0.0 MIN)
 TOTAL WALL CLOCK TIME=        0.1 SECONDS, CPU UTILIZATION IS  42.86%

                    ----------------------
                    AO INTEGRAL TECHNOLOGY
                    ----------------------
     S,P,L SHELL ROTATED AXIS INTEGRALS, REPROGRAMMED BY
        KAZUYA ISHIMURA (IMS) AND JOSE SIERRA (SYNSTAR).
     S,P,D,L SHELL ROTATED AXIS INTEGRALS PROGRAMMED BY
        KAZUYA ISHIMURA (INSTITUTE FOR MOLECULAR SCIENCE).
     S,P,D,F,G SHELL TO TOTAL QUARTET ANGULAR MOMENTUM SUM 5,
        ERIC PROGRAM BY GRAHAM FLETCHER (ELORET AND NASA ADVANCED
        SUPERCOMPUTING DIVISION, AMES RESEARCH CENTER).
     S,P,D,F,G,L SHELL GENERAL RYS QUADRATURE PROGRAMMED BY
        MICHEL DUPUIS (PACIFIC NORTHWEST NATIONAL LABORATORY).

          --------------------
          2 ELECTRON INTEGRALS
          --------------------

 THE -PK- OPTION IS OFF, THE INTEGRALS ARE NOT IN SUPERMATRIX FORM.
 STORING   15000 INTEGRALS/RECORD ON DISK, USING 12 BYTES/INTEGRAL.
 TWO ELECTRON INTEGRAL EVALUATION REQUIRES   90474 WORDS OF MEMORY.
 II,JST,KST,LST =  1  1  1  1 NREC =         1 INTLOC =    1
 II,JST,KST,LST =  2  1  1  1 NREC =         1 INTLOC =    2
 II,JST,KST,LST =  3  1  1  1 NREC =         1 INTLOC =   34
 II,JST,KST,LST =  4  1  1  1 NREC =         1 INTLOC =  214
 II,JST,KST,LST =  5  1  1  1 NREC =         1 INTLOC =  776
 II,JST,KST,LST =  6  1  1  1 NREC =         1 INTLOC = 2864
 II,JST,KST,LST =  7  1  1  1 NREC =         1 INTLOC = 4164
 II,JST,KST,LST =  8  1  1  1 NREC =         1 INTLOC =10804
 II,JST,KST,LST =  9  1  1  1 NREC =         2 INTLOC = 6472
 II,JST,KST,LST = 10  1  1  1 NREC =         3 INTLOC = 7422
 II,JST,KST,LST = 11  1  1  1 NREC =         5 INTLOC =12579
 II,JST,KST,LST = 12  1  1  1 NREC =         6 INTLOC = 6894
 TOTAL NUMBER OF NONZERO TWO-ELECTRON INTEGRALS =              109975
          8 INTEGRAL RECORDS WERE STORED ON DISK FILE  8.
  ...... END OF TWO-ELECTRON INTEGRALS .....
 STEP CPU TIME =     0.04 TOTAL CPU TIME =        0.1 (    0.0 MIN)
 TOTAL WALL CLOCK TIME=        0.2 SECONDS, CPU UTILIZATION IS  33.33%

          --------------------------
              R-BLYP SCF CALCULATION
          --------------------------

     NUCLEAR ENERGY =        20.2522163483
     MAXIT =   30     NPUNCH=    2
     EXTRAP=T  DAMP=F  SHIFT=F  RSTRCT=F  DIIS=T  DEM=F  SOSCF=F
         DENSITY MATRIX CONVERGENCE THRESHOLD=  1.00E-06
     COARSE -> FINE DFT GRID SWITCH THRESHOLD=  3.00E-04 (SWITCH IN $DFT)
                   HF -> DFT SWITCH THRESHOLD=  5.00E-03 (SWOFF IN $DFT)
     MEMORY REQUIRED FOR RHF ITERS=    172105 WORDS.

 DFT CODE IS SWITCHING FROM THE FINE GRID NRAD=  96,  NTHE, NPHI= 12 24
                      TO THE COARSE GRID NRAD0= 24, NTHE0,NPHI0=  8 16

     EXCHANGE FUNCTIONAL   =BECKE88   
     CORRELATION FUNCTIONAL=LYP88     
     DFT THRESHOLD         =.482E-07
     GRID CHANGE THRESHOLD =.300E-03
 FOR AN EULER-MACLAURIN QUADRATURE USING  96 RADIAL POINTS:
 SMALLEST GAUSSIAN PRIMITIVE EXPONENT=        0.0438000000 OF TYPE -P-
 ON ATOM NUMBER   1 HAS RADIAL NORMALIZATION=  1.000000
  LARGEST GAUSSIAN PRIMITIVE EXPONENT=     5484.6716600000 OF TYPE -S-
 ON ATOM NUMBER   2 HAS RADIAL NORMALIZATION=  1.000000
 DFT IS SWITCHED OFF, PERFORMING PURE SCF UNTIL SWOFF THRESHOLD IS REACHED.

 ITER EX DEM     TOTAL ENERGY        E CHANGE  DENSITY CHANGE    DIIS ERROR
   1  0  0     -112.3057181544  -112.3057181544   0.860240736   0.733852816
          * * *   INITIATING DIIS PROCEDURE   * * *
   2  1  0     -112.6321731406    -0.3264549862   0.565958495   0.237892991
   3  2  0     -112.6285925363     0.0035806042   0.527136050   0.231662160
   4  3  0     -112.7031045895    -0.0745120531   0.066152113   0.020357160
   5  4  0     -112.7036463213    -0.0005417319   0.012464871   0.004705427
   6  5  0     -112.7036956537    -0.0000493324   0.002685935   0.002243266
 CONVERGED TO SWOFF, SO DFT CALCULATION IS NOW SWITCHED ON.
          * * *   INITIATING DIIS PROCEDURE   * * *
   7  6  0     -113.2675308592    -0.5638352055   1.373446407   0.097994846
   8  7  0     -113.2550340570     0.0124968023   0.370529814   0.171262679
   9  8  0     -113.2331290212     0.0219050358   0.418172511   0.205814683
  10  9  0     -113.2893937230    -0.0562647018   0.067816330   0.011284974
  11 10  0     -113.2897489883    -0.0003552654   0.002456723   0.003353174
  12 11  0     -113.2897659434    -0.0000169551   0.000651086   0.001005587
  13 12  0     -113.2897672464    -0.0000013031   0.000143863   0.000157892
 DFT CODE IS SWITCHING BACK TO THE FINE GRID
          * * *   INITIATING DIIS PROCEDURE   * * *
  14 13  0     -113.2889130828     0.0008541637   0.025059327   0.001611792
  15 14  0     -113.2889124913     0.0000005915   0.006298507   0.001702766
  16 15  0     -113.2889078795     0.0000046117   0.003308626   0.002624624
  17 16  0     -113.2889160903    -0.0000082108   0.000121224   0.000127865
  18 17  0     -113.2889161132    -0.0000000229   0.000041860   0.000011156
  19 18  0     -113.2889161135    -0.0000000003   0.000000925   0.000000690
  20 19  0     -113.2889161135     0.0000000000   0.000000125   0.000000097

          -----------------
          DENSITY CONVERGED
          -----------------
     TIME TO FORM FOCK OPERATORS=       0.5 SECONDS (       0.0 SEC/ITER)
     TIME TO SOLVE SCF EQUATIONS=       0.0 SECONDS (       0.0 SEC/ITER)

 FINAL R-BLYP ENERGY IS     -113.2889161135 AFTER  20 ITERATIONS
 DFT EXCHANGE + CORRELATION ENERGY =       -13.7447915675
 TOTAL ELECTRON NUMBER             =        14.0000242694

 LZ VALUE ANALYSIS FOR THE MOS
 ----------------------------------------
 MO     1 (    1) HAS LZ(WEIGHT)= 0.00(100.0%) 
 MO     2 (    2) HAS LZ(WEIGHT)= 0.00(100.0%) 
 MO     3 (    3) HAS LZ(WEIGHT)= 0.00(100.0%) 
 MO     4 (    4) HAS LZ(WEIGHT)= 0.00(100.0%) 
 MO     5 (    5) HAS LZ(WEIGHT)=-1.00( 50.0%)  1.00( 50.0%) 
 MO     6 (    5) HAS LZ(WEIGHT)=-1.00( 50.0%)  1.00( 50.0%) 
 MO     7 (    6) HAS LZ(WEIGHT)= 0.00(100.0%) 
 MO     8 (    7) HAS LZ(WEIGHT)=-1.00( 50.0%)  1.00( 50.0%) 
 MO     9 (    7) HAS LZ(WEIGHT)=-1.00( 50.0%)  1.00( 50.0%) 
 MO    10 (    8) HAS LZ(WEIGHT)= 0.00(100.0%) 
 MO    11 (    9) HAS LZ(WEIGHT)= 0.00(100.0%) 
 MO    12 (   10) HAS LZ(WEIGHT)=-1.00( 50.0%)  1.00( 50.0%) 
 MO    13 (   10) HAS LZ(WEIGHT)=-1.00( 50.0%)  1.00( 50.0%) 
 MO    14 (   11) HAS LZ(WEIGHT)= 0.00(100.0%) 
 MO    15 (   12) HAS LZ(WEIGHT)=-1.00( 50.0%)  1.00( 50.0%) 
 MO    16 (   12) HAS LZ(WEIGHT)=-1.00( 50.0%)  1.00( 50.0%) 
 MO    17 (   13) HAS LZ(WEIGHT)= 0.00(100.0%) 
 MO    18 (   14) HAS LZ(WEIGHT)= 0.00(100.0%) 
 MO    19 (   15) HAS LZ(WEIGHT)=-1.00( 50.0%)  1.00( 50.0%) 
 MO    20 (   15) HAS LZ(WEIGHT)=-1.00( 50.0%)  1.00( 50.0%) 
 MO    21 (   16) HAS LZ(WEIGHT)= 0.00(100.0%) 
 MO    22 (   17) HAS LZ(WEIGHT)= 0.00(100.0%) 
 MO    23 (   18) HAS LZ(WEIGHT)=-1.00( 50.0%)  1.00( 50.0%) 
 MO    24 (   18) HAS LZ(WEIGHT)=-1.00( 50.0%)  1.00( 50.0%) 
 MO    25 (   19) HAS LZ(WEIGHT)= 0.00(100.0%) 
 MO    26 (   20) HAS LZ(WEIGHT)= 0.00(100.0%) 
 MO    27 (   21) HAS LZ(WEIGHT)=-1.00( 50.0%)  1.00( 50.0%) 
 MO    28 (   21) HAS LZ(WEIGHT)=-1.00( 50.0%)  1.00( 50.0%) 
 MO    29 (   22) HAS LZ(WEIGHT)=-2.00( 50.0%)  2.00( 50.0%) 
 MO    30 (   22) HAS LZ(WEIGHT)=-2.00( 50.0%)  2.00( 50.0%) 
 MO    31 (   23) HAS LZ(WEIGHT)=-1.00( 50.0%)  1.00( 50.0%) 
 MO    32 (   23) HAS LZ(WEIGHT)=-1.00( 50.0%)  1.00( 50.0%) 
 MO    33 (   24) HAS LZ(WEIGHT)=-2.00( 50.0%)  2.00( 50.0%) 
 MO    34 (   24) HAS LZ(WEIGHT)=-2.00( 50.0%)  2.00( 50.0%) 
 MO    35 (   25) HAS LZ(WEIGHT)= 0.00(100.0%) 
 MO    36 (   26) HAS LZ(WEIGHT)= 0.00(100.0%) 
 MO    37 (   27) HAS LZ(WEIGHT)=-1.00( 50.0%)  1.00( 50.0%) 
 MO    38 (   27) HAS LZ(WEIGHT)=-1.00( 50.0%)  1.00( 50.0%) 
 MO    39 (   28) HAS LZ(WEIGHT)= 0.00(100.0%) 
 MO    40 (   29) HAS LZ(WEIGHT)= 0.00(100.0%) 
 MO    41 (   30) HAS LZ(WEIGHT)= 0.00(100.0%) 
 MO    42 (   31) HAS LZ(WEIGHT)= 0.00(100.0%) 

          ------------
          EIGENVECTORS
          ------------

                      1          2          3          4          5
                  -18.9171   -10.0794    -1.0123    -0.5168    -0.3943
                     A1         A1         A1         A1         E   
    1  C  1  S    0.000031   0.993653  -0.099696   0.155227  -0.000000
    2  C  1  S    0.000805   0.058847   0.214028  -0.355536  -0.000000
    3  C  1  X   -0.000000   0.000000  -0.000000  -0.000000   0.317116
    4  C  1  Y   -0.000000   0.000000  -0.000000  -0.000000  -0.000000
    5  C  1  Z    0.000735   0.004863   0.201122  -0.090751  -0.000000
    6  C  1  S   -0.010491   0.024379  -0.387680  -0.509882  -0.000000
    7  C  1  X   -0.000000   0.000000  -0.000000  -0.000000   0.097078
    8  C  1  Y   -0.000000   0.000000  -0.000000  -0.000000  -0.000000
    9  C  1  Z   -0.001691   0.005949  -0.057031  -0.045134  -0.000000
   10  C  1  S    0.001137   0.003261  -0.040538  -0.032490  -0.000000
   11  C  1  X   -0.000000   0.000000  -0.000000  -0.000000   0.021651
   12  C  1  Y   -0.000000   0.000000  -0.000000  -0.000000  -0.000000
   13  C  1  Z    0.000549   0.000641  -0.018557  -0.005273  -0.000000
   14  C  1 XX   -0.000272  -0.009847  -0.022238   0.014484  -0.000000
   15  C  1 YY   -0.000272  -0.009847  -0.022238   0.014484  -0.000000
   16  C  1 ZZ   -0.000297  -0.009019   0.023993   0.006774  -0.000000
   17  C  1 XY   -0.000000   0.000000  -0.000000  -0.000000  -0.000000
   18  C  1 XZ   -0.000000   0.000000  -0.000000  -0.000000   0.032099
   19  C  1 YZ   -0.000000   0.000000  -0.000000  -0.000000  -0.000000
   20  O  2  S    0.992066   0.000422  -0.211493  -0.117318  -0.000000
   21  O  2  S    0.025137   0.002632   0.415882   0.253539  -0.000000
   22  O  2  X   -0.000000   0.000000  -0.000000  -0.000000   0.569869
   23  O  2  Y   -0.000000   0.000000  -0.000000  -0.000000  -0.000000
   24  O  2  Z   -0.001029  -0.000416  -0.162727   0.433905  -0.000000
   25  O  2  S    0.035364  -0.011049   1.180729   0.605077  -0.000000
   26  O  2  X   -0.000000   0.000000  -0.000000  -0.000000   0.309941
   27  O  2  Y   -0.000000   0.000000  -0.000000  -0.000000  -0.000000
   28  O  2  Z   -0.004296  -0.002982  -0.227870   0.137271  -0.000000
   29  O  2  S   -0.001566  -0.010486   0.174884   0.140221  -0.000000
   30  O  2  X   -0.000000   0.000000  -0.000000  -0.000000   0.039976
   31  O  2  Y   -0.000000   0.000000  -0.000000  -0.000000  -0.000000
   32  O  2  Z   -0.000409   0.002951  -0.028236  -0.011233  -0.000000
   33  O  2 XX   -0.009825   0.001194  -0.028252  -0.002394  -0.000000
   34  O  2 YY   -0.009825   0.001194  -0.028252  -0.002394  -0.000000
   35  O  2 ZZ   -0.009539   0.001182  -0.002314  -0.030279  -0.000000
   36  O  2 XY   -0.000000   0.000000  -0.000000  -0.000000  -0.000000
   37  O  2 XZ   -0.000000   0.000000  -0.000000  -0.000000  -0.028595
   38  O  2 YZ   -0.000000   0.000000  -0.000000  -0.000000  -0.000000
   39   B 3  S   -0.010899  -0.027085  -0.408823  -0.065583  -0.000000
   40   B 3  X   -0.000000   0.000000  -0.000000  -0.000000   0.041468
   41   B 3  Y   -0.000000   0.000000  -0.000000  -0.000000  -0.000000
   42   B 3  Z   -0.010549   0.019652  -0.440091  -0.121636  -0.000000

                      6          7          8          9         10
                   -0.3943    -0.3398    -0.1117    -0.1117     0.0149
                     E          A1         E          E          A1  
    1  C  1  S   -0.000000  -0.139133  -0.000000  -0.000000   0.044472
    2  C  1  S   -0.000000   0.242974  -0.000000  -0.000000  -0.064584
    3  C  1  X   -0.000000   0.000000   0.581266  -0.000000   0.000000
    4  C  1  Y    0.317116   0.000000  -0.000000   0.581266   0.000000
    5  C  1  Z   -0.000000  -0.454969  -0.000000  -0.000000   0.138747
    6  C  1  S   -0.000000   0.469125  -0.000000  -0.000000   1.298450
    7  C  1  X   -0.000000   0.000000   0.499344  -0.000000   0.000000
    8  C  1  Y    0.097078   0.000000  -0.000000   0.499344   0.000000
    9  C  1  Z   -0.000000  -0.162963  -0.000000  -0.000000   0.557587
   10  C  1  S   -0.000000   0.087874  -0.000000  -0.000000   2.245632
   11  C  1  X   -0.000000   0.000000   0.208638  -0.000000   0.000000
   12  C  1  Y    0.021651   0.000000  -0.000000   0.208638   0.000000
   13  C  1  Z   -0.000000  -0.017387  -0.000000  -0.000000   0.896048
   14  C  1 XX   -0.000000   0.006432  -0.000000  -0.000000   0.010619
   15  C  1 YY   -0.000000   0.006432  -0.000000  -0.000000   0.010619
   16  C  1 ZZ   -0.000000  -0.043916  -0.000000  -0.000000   0.004486
   17  C  1 XY   -0.000000   0.000000  -0.000000  -0.000000   0.000000
   18  C  1 XZ   -0.000000   0.000000  -0.010176  -0.000000   0.000000
   19  C  1 YZ    0.032099   0.000000  -0.000000  -0.010176   0.000000
   20  O  2  S   -0.000000   0.001528  -0.000000  -0.000000   0.048225
   21  O  2  S   -0.000000  -0.004658  -0.000000  -0.000000  -0.080595
   22  O  2  X   -0.000000   0.000000  -0.410239  -0.000000   0.000000
   23  O  2  Y    0.569869   0.000000  -0.000000  -0.410239   0.000000
   24  O  2  Z   -0.000000   0.353327  -0.000000  -0.000000  -0.049821
   25  O  2  S   -0.000000  -0.269243  -0.000000  -0.000000  -1.058068
   26  O  2  X   -0.000000   0.000000  -0.285852  -0.000000   0.000000
   27  O  2  Y    0.309941   0.000000  -0.000000  -0.285852   0.000000
   28  O  2  Z   -0.000000   0.265354  -0.000000  -0.000000   0.136386
   29  O  2  S   -0.000000   0.043818  -0.000000  -0.000000  -2.149837
   30  O  2  X   -0.000000   0.000000  -0.160489  -0.000000   0.000000
   31  O  2  Y    0.039976   0.000000  -0.000000  -0.160489   0.000000
   32  O  2  Z   -0.000000   0.001668  -0.000000  -0.000000   0.592679
   33  O  2 XX   -0.000000   0.008222  -0.000000  -0.000000   0.015418
   34  O  2 YY   -0.000000   0.008222  -0.000000  -0.000000   0.015418
   35  O  2 ZZ   -0.000000  -0.004649  -0.000000  -0.000000   0.007809
   36  O  2 XY   -0.000000   0.000000  -0.000000  -0.000000   0.000000
   37  O  2 XZ   -0.000000   0.000000  -0.011333  -0.000000   0.000000
   38  O  2 YZ   -0.028595   0.000000  -0.000000  -0.011333   0.000000
   39   B 3  S   -0.000000   0.310163  -0.000000  -0.000000  -0.040108
   40   B 3  X   -0.000000   0.000000  -0.053717  -0.000000   0.000000
   41   B 3  Y    0.041468   0.000000  -0.000000  -0.053717   0.000000
   42   B 3  Z   -0.000000   0.086512  -0.000000  -0.000000   0.791431

                     11         12         13         14         15
                    0.0444     0.0576     0.0576     0.1573     0.1890
                     A1         E          E          A1         E   
    1  C  1  S   -0.065563   0.000000   0.000000  -0.030962  -0.000000
    2  C  1  S    0.131360   0.000000   0.000000   0.164230  -0.000000
    3  C  1  X   -0.000000  -0.268593   0.000000   0.000000   0.039824
    4  C  1  Y   -0.000000   0.000000  -0.268593   0.000000  -0.000000
    5  C  1  Z   -0.056184   0.000000   0.000000   0.040008  -0.000000
    6  C  1  S    1.028787   0.000000   0.000000   2.342442  -0.000000
    7  C  1  X   -0.000000  -0.364358   0.000000   0.000000  -0.016427
    8  C  1  Y   -0.000000   0.000000  -0.364358   0.000000  -0.000000
    9  C  1  Z   -0.027140   0.000000   0.000000   0.245325  -0.000000
   10  C  1  S   -0.367398   0.000000   0.000000   0.294525  -0.000000
   11  C  1  X   -0.000000   1.177167   0.000000   0.000000  -1.066844
   12  C  1  Y   -0.000000   0.000000   1.177167   0.000000  -0.000000
   13  C  1  Z    1.167656   0.000000   0.000000  -0.513573  -0.000000
   14  C  1 XX    0.001065   0.000000   0.000000  -0.029345  -0.000000
   15  C  1 YY    0.001065   0.000000   0.000000  -0.029345  -0.000000
   16  C  1 ZZ   -0.029469   0.000000   0.000000  -0.009510  -0.000000
   17  C  1 XY   -0.000000   0.000000   0.000000   0.000000  -0.000000
   18  C  1 XZ   -0.000000  -0.013487   0.000000   0.000000   0.002939
   19  C  1 YZ   -0.000000   0.000000  -0.013487   0.000000  -0.000000
   20  O  2  S    0.033547   0.000000   0.000000   0.021275  -0.000000
   21  O  2  S   -0.052173   0.000000   0.000000   0.003974  -0.000000
   22  O  2  X   -0.000000  -0.020290   0.000000   0.000000  -0.249331
   23  O  2  Y   -0.000000   0.000000  -0.020290   0.000000  -0.000000
   24  O  2  Z    0.058129   0.000000   0.000000  -0.141062  -0.000000
   25  O  2  S   -0.950435   0.000000   0.000000  -0.164774  -0.000000
   26  O  2  X   -0.000000  -0.004059   0.000000   0.000000  -0.316408
   27  O  2  Y   -0.000000   0.000000  -0.004059   0.000000  -0.000000
   28  O  2  Z    0.252231   0.000000   0.000000  -0.403442  -0.000000
   29  O  2  S   -0.572517   0.000000   0.000000  -1.118163  -0.000000
   30  O  2  X   -0.000000  -0.102437   0.000000   0.000000   1.856370
   31  O  2  Y   -0.000000   0.000000  -0.102437   0.000000  -0.000000
   32  O  2  Z   -0.040312   0.000000   0.000000   2.130096  -0.000000
   33  O  2 XX    0.012831   0.000000   0.000000  -0.001683  -0.000000
   34  O  2 YY    0.012831   0.000000   0.000000  -0.001683  -0.000000
   35  O  2 ZZ    0.011911   0.000000   0.000000   0.076022  -0.000000
   36  O  2 XY   -0.000000   0.000000   0.000000   0.000000  -0.000000
   37  O  2 XZ   -0.000000   0.015193   0.000000   0.000000   0.011744
   38  O  2 YZ   -0.000000   0.000000   0.015193   0.000000  -0.000000
   39   B 3  S    0.447862   0.000000   0.000000  -0.807165  -0.000000
   40   B 3  X   -0.000000   0.086460   0.000000   0.000000  -0.239240
   41   B 3  Y   -0.000000   0.000000   0.086460   0.000000  -0.000000
   42   B 3  Z    0.504388   0.000000   0.000000   0.488668  -0.000000

                     16         17         18         19         20
                    0.1890     0.2126     0.3164     0.4877     0.4877
                     E          A1         A1         E          E   
    1  C  1  S   -0.000000  -0.021687   0.110580   0.000000   0.000000
    2  C  1  S   -0.000000  -0.033864  -0.264438   0.000000   0.000000
    3  C  1  X   -0.000000   0.000000   0.000000   0.522252   0.000000
    4  C  1  Y    0.039824   0.000000   0.000000   0.000000   0.522252
    5  C  1  Z   -0.000000   0.241071  -0.422076   0.000000   0.000000
    6  C  1  S   -0.000000  -5.300494  -4.181214   0.000000   0.000000
    7  C  1  X   -0.000000   0.000000   0.000000  -3.025025   0.000000
    8  C  1  Y   -0.016427   0.000000   0.000000   0.000000  -3.025025
    9  C  1  Z   -0.000000  -0.314788  -2.160660   0.000000   0.000000
   10  C  1  S   -0.000000  -3.321949  -2.032377   0.000000   0.000000
   11  C  1  X   -0.000000   0.000000   0.000000   0.718105   0.000000
   12  C  1  Y   -1.066844   0.000000   0.000000   0.000000   0.718105
   13  C  1  Z   -0.000000  -1.948446  -0.387005   0.000000   0.000000
   14  C  1 XX   -0.000000   0.013847  -0.009302   0.000000   0.000000
   15  C  1 YY   -0.000000   0.013847  -0.009302   0.000000   0.000000
   16  C  1 ZZ   -0.000000  -0.056485   0.033166   0.000000   0.000000
   17  C  1 XY   -0.000000   0.000000   0.000000   0.000000   0.000000
   18  C  1 XZ   -0.000000   0.000000   0.000000   0.029271   0.000000
   19  C  1 YZ    0.002939   0.000000   0.000000   0.000000   0.029271
   20  O  2  S   -0.000000   0.065896  -0.049037   0.000000   0.000000
   21  O  2  S   -0.000000  -0.331593   0.023412   0.000000   0.000000
   22  O  2  X   -0.000000   0.000000   0.000000  -0.117935   0.000000
   23  O  2  Y   -0.249331   0.000000   0.000000   0.000000  -0.117935
   24  O  2  Z   -0.000000   0.113368  -0.438887   0.000000   0.000000
   25  O  2  S   -0.000000   3.168266   1.733572   0.000000   0.000000
   26  O  2  X   -0.000000   0.000000   0.000000  -1.156069   0.000000
   27  O  2  Y   -0.316408   0.000000   0.000000   0.000000  -1.156069
   28  O  2  Z   -0.000000  -0.870492  -1.170703   0.000000   0.000000
   29  O  2  S   -0.000000   7.308240   4.689227   0.000000   0.000000
   30  O  2  X   -0.000000   0.000000   0.000000  -0.401201   0.000000
   31  O  2  Y    1.856370   0.000000   0.000000   0.000000  -0.401201
   32  O  2  Z   -0.000000  -1.168545  -1.279034   0.000000   0.000000
   33  O  2 XX   -0.000000  -0.011764  -0.009586   0.000000   0.000000
   34  O  2 YY   -0.000000  -0.011764  -0.009586   0.000000   0.000000
   35  O  2 ZZ   -0.000000   0.019496  -0.036410   0.000000   0.000000
   36  O  2 XY   -0.000000   0.000000   0.000000   0.000000   0.000000
   37  O  2 XZ   -0.000000   0.000000   0.000000  -0.007065   0.000000
   38  O  2 YZ    0.011744   0.000000   0.000000   0.000000  -0.007065
   39   B 3  S   -0.000000  -1.612365   0.001179   0.000000   0.000000
   40   B 3  X   -0.000000   0.000000   0.000000   3.279083   0.000000
   41   B 3  Y   -0.239240   0.000000   0.000000   0.000000   3.279083
   42   B 3  Z   -0.000000  -3.688867  -0.852983   0.000000   0.000000

                     21         22         23         24         25
                    0.5750     0.6828     0.6890     0.6890     0.8754
                     A1         A1         E          E          A1  
    1  C  1  S    0.038017   0.128039  -0.000000  -0.000000   0.037902
    2  C  1  S    0.256059  -0.273041  -0.000000  -0.000000  -0.413293
    3  C  1  X   -0.000000   0.000000  -0.935815  -0.000000   0.000000
    4  C  1  Y   -0.000000   0.000000  -0.000000  -0.935815   0.000000
    5  C  1  Z   -0.827877   0.126775  -0.000000  -0.000000   0.524386
    6  C  1  S   -1.584865  16.470374  -0.000000  -0.000000  -9.084084
    7  C  1  X   -0.000000   0.000000  -0.723445  -0.000000   0.000000
    8  C  1  Y   -0.000000   0.000000  -0.000000  -0.723445   0.000000
    9  C  1  Z    1.805105   2.608644  -0.000000  -0.000000  -1.022203
   10  C  1  S    0.386511   2.294327  -0.000000  -0.000000  -1.998481
   11  C  1  X   -0.000000   0.000000   0.008111  -0.000000   0.000000
   12  C  1  Y   -0.000000   0.000000  -0.000000   0.008111   0.000000
   13  C  1  Z   -0.623670   0.994731  -0.000000  -0.000000  -0.996385
   14  C  1 XX   -0.020443   0.012954  -0.000000  -0.000000  -0.047555
   15  C  1 YY   -0.020443   0.012954  -0.000000  -0.000000  -0.047555
   16  C  1 ZZ    0.058649  -0.070138  -0.000000  -0.000000  -0.191178
   17  C  1 XY   -0.000000   0.000000  -0.000000  -0.000000   0.000000
   18  C  1 XZ   -0.000000   0.000000   0.038874  -0.000000   0.000000
   19  C  1 YZ   -0.000000   0.000000  -0.000000   0.038874   0.000000
   20  O  2  S   -0.062199   0.108783  -0.000000  -0.000000  -0.112402
   21  O  2  S    0.039798   0.203379  -0.000000  -0.000000   0.143839
   22  O  2  X   -0.000000   0.000000  -0.151774  -0.000000   0.000000
   23  O  2  Y   -0.000000   0.000000  -0.000000  -0.151774   0.000000
   24  O  2  Z   -0.225021   0.057351  -0.000000  -0.000000   0.287620
   25  O  2  S    5.320775  -9.885911  -0.000000  -0.000000  15.188967
   26  O  2  X   -0.000000   0.000000  -1.236244  -0.000000   0.000000
   27  O  2  Y   -0.000000   0.000000  -0.000000  -1.236244   0.000000
   28  O  2  Z   -1.731864   0.909158  -0.000000  -0.000000  -4.763176
   29  O  2  S    0.157972  -9.055165  -0.000000  -0.000000   6.058585
   30  O  2  X   -0.000000   0.000000  -0.667127  -0.000000   0.000000
   31  O  2  Y   -0.000000   0.000000  -0.000000  -0.667127   0.000000
   32  O  2  Z    0.711373   2.869200  -0.000000  -0.000000  -0.184861
   33  O  2 XX   -0.014328   0.132869  -0.000000  -0.000000  -0.068102
   34  O  2 YY   -0.014328   0.132869  -0.000000  -0.000000  -0.068102
   35  O  2 ZZ   -0.067688   0.089645  -0.000000  -0.000000   0.209394
   36  O  2 XY   -0.000000   0.000000  -0.000000  -0.000000   0.000000
   37  O  2 XZ   -0.000000   0.000000   0.015684  -0.000000   0.000000
   38  O  2 YZ   -0.000000   0.000000  -0.000000   0.015684   0.000000
   39   B 3  S   -4.676254  -0.215172  -0.000000  -0.000000  -9.911557
   40   B 3  X   -0.000000   0.000000   3.092891  -0.000000   0.000000
   41   B 3  Y   -0.000000   0.000000  -0.000000   3.092891   0.000000
   42   B 3  Z   -3.229715   9.817961  -0.000000  -0.000000 -10.308883

                     26         27         28         29         30
                    1.0643     1.1246     1.1246     1.4507     1.4507
                     A1         E          E          B1         B2  
    1  C  1  S   -0.020520  -0.000000  -0.000000   0.000000   0.000000
    2  C  1  S   -1.308166  -0.000000  -0.000000   0.000000   0.000000
    3  C  1  X    0.000000   0.048718  -0.000000   0.000000   0.000000
    4  C  1  Y    0.000000  -0.000000   0.048718   0.000000   0.000000
    5  C  1  Z    0.130527  -0.000000  -0.000000   0.000000   0.000000
    6  C  1  S    1.918413  -0.000000  -0.000000   0.000000   0.000000
    7  C  1  X    0.000000   0.462278  -0.000000   0.000000   0.000000
    8  C  1  Y    0.000000  -0.000000   0.462278   0.000000   0.000000
    9  C  1  Z    1.660694  -0.000000  -0.000000   0.000000   0.000000
   10  C  1  S    0.284723  -0.000000  -0.000000   0.000000   0.000000
   11  C  1  X    0.000000   0.347126  -0.000000   0.000000   0.000000
   12  C  1  Y    0.000000  -0.000000   0.347126   0.000000   0.000000
   13  C  1  Z    0.092147  -0.000000  -0.000000   0.000000   0.000000
   14  C  1 XX   -0.082804  -0.000000  -0.000000   0.649663   0.000000
   15  C  1 YY   -0.082804  -0.000000  -0.000000  -0.649663   0.000000
   16  C  1 ZZ    0.170843  -0.000000  -0.000000   0.000000   0.000000
   17  C  1 XY    0.000000  -0.000000  -0.000000   0.000000   0.750166
   18  C  1 XZ    0.000000  -0.093331  -0.000000   0.000000   0.000000
   19  C  1 YZ    0.000000  -0.000000  -0.093331   0.000000   0.000000
   20  O  2  S    0.013667  -0.000000  -0.000000   0.000000   0.000000
   21  O  2  S    0.333473  -0.000000  -0.000000   0.000000   0.000000
   22  O  2  X    0.000000  -0.915712  -0.000000   0.000000   0.000000
   23  O  2  Y    0.000000  -0.000000  -0.915712   0.000000   0.000000
   24  O  2  Z   -0.731500  -0.000000  -0.000000   0.000000   0.000000
   25  O  2  S   -0.273983  -0.000000  -0.000000   0.000000   0.000000
   26  O  2  X    0.000000   2.165543  -0.000000   0.000000   0.000000
   27  O  2  Y    0.000000  -0.000000   2.165543   0.000000   0.000000
   28  O  2  Z    2.261499  -0.000000  -0.000000   0.000000   0.000000
   29  O  2  S   -1.351528  -0.000000  -0.000000   0.000000   0.000000
   30  O  2  X    0.000000  -0.902900  -0.000000   0.000000   0.000000
   31  O  2  Y    0.000000  -0.000000  -0.902900   0.000000   0.000000
   32  O  2  Z    0.199594  -0.000000  -0.000000   0.000000   0.000000
   33  O  2 XX    0.070976  -0.000000  -0.000000   0.508081   0.000000
   34  O  2 YY    0.070976  -0.000000  -0.000000  -0.508081   0.000000
   35  O  2 ZZ    0.005623  -0.000000  -0.000000   0.000000   0.000000
   36  O  2 XY    0.000000  -0.000000  -0.000000   0.000000   0.586681
   37  O  2 XZ    0.000000   0.135739  -0.000000   0.000000   0.000000
   38  O  2 YZ    0.000000  -0.000000   0.135739   0.000000   0.000000
   39   B 3  S    0.208215  -0.000000  -0.000000   0.000000   0.000000
   40   B 3  X    0.000000  -1.198340  -0.000000   0.000000   0.000000
   41   B 3  Y    0.000000  -0.000000  -1.198340   0.000000   0.000000
   42   B 3  Z   -2.102969  -0.000000  -0.000000   0.000000   0.000000

                     31         32         33         34         35
                    1.7172     1.7172     1.8093     1.8093     2.0421
                     E          E          B2         B1         A1  
    1  C  1  S    0.000000   0.000000  -0.000000   0.000000   0.065100
    2  C  1  S    0.000000   0.000000  -0.000000   0.000000   0.916068
    3  C  1  X   -0.018372   0.000000  -0.000000   0.000000  -0.000000
    4  C  1  Y    0.000000  -0.018372  -0.000000   0.000000  -0.000000
    5  C  1  Z    0.000000   0.000000  -0.000000   0.000000   0.136154
    6  C  1  S    0.000000   0.000000  -0.000000   0.000000   8.561822
    7  C  1  X   -1.736898   0.000000  -0.000000   0.000000  -0.000000
    8  C  1  Y    0.000000  -1.736898  -0.000000   0.000000  -0.000000
    9  C  1  Z    0.000000   0.000000  -0.000000   0.000000   2.284805
   10  C  1  S    0.000000   0.000000  -0.000000   0.000000   0.828849
   11  C  1  X    0.249636   0.000000  -0.000000   0.000000  -0.000000
   12  C  1  Y    0.000000   0.249636  -0.000000   0.000000  -0.000000
   13  C  1  Z    0.000000   0.000000  -0.000000   0.000000   0.130330
   14  C  1 XX    0.000000   0.000000  -0.000000  -0.580013  -0.538488
   15  C  1 YY    0.000000   0.000000  -0.000000   0.580013  -0.538488
   16  C  1 ZZ    0.000000   0.000000  -0.000000   0.000000   0.754973
   17  C  1 XY    0.000000   0.000000  -0.669741   0.000000  -0.000000
   18  C  1 XZ   -0.747392   0.000000  -0.000000   0.000000  -0.000000
   19  C  1 YZ    0.000000  -0.747392  -0.000000   0.000000  -0.000000
   20  O  2  S    0.000000   0.000000  -0.000000   0.000000   0.074297
   21  O  2  S    0.000000   0.000000  -0.000000   0.000000   0.589360
   22  O  2  X    0.281438   0.000000  -0.000000   0.000000  -0.000000
   23  O  2  Y    0.000000   0.281438  -0.000000   0.000000  -0.000000
   24  O  2  Z    0.000000   0.000000  -0.000000   0.000000   0.267566
   25  O  2  S    0.000000   0.000000  -0.000000   0.000000  -5.068060
   26  O  2  X   -1.458343   0.000000  -0.000000   0.000000  -0.000000
   27  O  2  Y    0.000000  -1.458343  -0.000000   0.000000  -0.000000
   28  O  2  Z    0.000000   0.000000  -0.000000   0.000000   0.048672
   29  O  2  S    0.000000   0.000000  -0.000000   0.000000  -3.448748
   30  O  2  X   -0.347244   0.000000  -0.000000   0.000000  -0.000000
   31  O  2  Y    0.000000  -0.347244  -0.000000   0.000000  -0.000000
   32  O  2  Z    0.000000   0.000000  -0.000000   0.000000   1.274099
   33  O  2 XX    0.000000   0.000000  -0.000000   0.707341  -0.186197
   34  O  2 YY    0.000000   0.000000  -0.000000  -0.707341  -0.186197
   35  O  2 ZZ    0.000000   0.000000  -0.000000   0.000000   0.637912
   36  O  2 XY    0.000000   0.000000   0.816767   0.000000  -0.000000
   37  O  2 XZ    0.634529   0.000000  -0.000000   0.000000  -0.000000
   38  O  2 YZ    0.000000   0.634529  -0.000000   0.000000  -0.000000
   39   B 3  S    0.000000   0.000000  -0.000000   0.000000  -2.704274
   40   B 3  X    3.047983   0.000000  -0.000000   0.000000  -0.000000
   41   B 3  Y    0.000000   3.047983  -0.000000   0.000000  -0.000000
   42   B 3  Z    0.000000   0.000000  -0.000000   0.000000   4.678167

                     36         37         38         39         40
                    2.3529     2.4062     2.4062     2.6913     2.9791
                     A1         E          E          A1         A1  
    1  C  1  S    0.200484  -0.000000  -0.000000  -0.294085   0.074007
    2  C  1  S    2.003556  -0.000000  -0.000000  -3.667666  -0.452471
    3  C  1  X    0.000000   0.172925  -0.000000  -0.000000  -0.000000
    4  C  1  Y    0.000000  -0.000000   0.172925  -0.000000  -0.000000
    5  C  1  Z    1.288088  -0.000000  -0.000000  -0.685683  -0.795756
    6  C  1  S   -9.441877  -0.000000  -0.000000 -10.046754 -10.058244
    7  C  1  X    0.000000   0.093674  -0.000000  -0.000000  -0.000000
    8  C  1  Y    0.000000  -0.000000   0.093674  -0.000000  -0.000000
    9  C  1  Z   -0.190326  -0.000000  -0.000000  -1.945050  -1.904815
   10  C  1  S   -0.709112  -0.000000  -0.000000  -1.061258  -1.078103
   11  C  1  X    0.000000  -0.082028  -0.000000  -0.000000  -0.000000
   12  C  1  Y    0.000000  -0.000000  -0.082028  -0.000000  -0.000000
   13  C  1  Z   -0.578682  -0.000000  -0.000000  -0.340708  -0.514419
   14  C  1 XX   -0.302191  -0.000000  -0.000000   0.010529   0.369870
   15  C  1 YY   -0.302191  -0.000000  -0.000000   0.010529   0.369870
   16  C  1 ZZ    0.413282  -0.000000  -0.000000   0.957112  -0.835561
   17  C  1 XY    0.000000  -0.000000  -0.000000  -0.000000  -0.000000
   18  C  1 XZ    0.000000   0.921532  -0.000000  -0.000000  -0.000000
   19  C  1 YZ    0.000000  -0.000000   0.921532  -0.000000  -0.000000
   20  O  2  S   -0.045063  -0.000000  -0.000000   0.008364  -0.031626
   21  O  2  S   -1.723431  -0.000000  -0.000000  -1.106002  -1.679179
   22  O  2  X    0.000000   0.079969  -0.000000  -0.000000  -0.000000
   23  O  2  Y    0.000000  -0.000000   0.079969  -0.000000  -0.000000
   24  O  2  Z   -0.245126  -0.000000  -0.000000   0.657762  -0.318836
   25  O  2  S   23.969973  -0.000000  -0.000000  -0.328215  17.038950
   26  O  2  X    0.000000  -0.740487  -0.000000  -0.000000  -0.000000
   27  O  2  Y    0.000000  -0.000000  -0.740487  -0.000000  -0.000000
   28  O  2  Z   -5.578469  -0.000000  -0.000000   2.243013  -5.473159
   29  O  2  S    3.438820  -0.000000  -0.000000   4.375961   4.326395
   30  O  2  X    0.000000   0.079864  -0.000000  -0.000000  -0.000000
   31  O  2  Y    0.000000  -0.000000   0.079864  -0.000000  -0.000000
   32  O  2  Z   -0.304122  -0.000000  -0.000000  -1.551872  -0.583461
   33  O  2 XX    0.079954  -0.000000  -0.000000   0.299462  -0.459652
   34  O  2 YY    0.079954  -0.000000  -0.000000   0.299462  -0.459652
   35  O  2 ZZ   -0.371203  -0.000000  -0.000000  -0.566182   1.636644
   36  O  2 XY    0.000000  -0.000000  -0.000000  -0.000000  -0.000000
   37  O  2 XZ    0.000000   1.023053  -0.000000  -0.000000  -0.000000
   38  O  2 YZ    0.000000  -0.000000   1.023053  -0.000000  -0.000000
   39   B 3  S  -17.669918  -0.000000  -0.000000  10.964775  -9.099900
   40   B 3  X    0.000000   0.402221  -0.000000  -0.000000  -0.000000
   41   B 3  Y    0.000000  -0.000000   0.402221  -0.000000  -0.000000
   42   B 3  Z  -11.978550  -0.000000  -0.000000  -5.466766  -8.326462

                     41         42
                    4.0960     6.2086
                     A1         A1  
    1  C  1  S    0.588173  -0.342131
    2  C  1  S   -1.629032  -0.277503
    3  C  1  X   -0.000000  -0.000000
    4  C  1  Y   -0.000000  -0.000000
    5  C  1  Z    0.681275   0.014165
    6  C  1  S   -2.750925 -28.680047
    7  C  1  X   -0.000000  -0.000000
    8  C  1  Y   -0.000000  -0.000000
    9  C  1  Z   -0.134633  -4.590227
   10  C  1  S    0.192340  -1.985990
   11  C  1  X   -0.000000  -0.000000
   12  C  1  Y   -0.000000  -0.000000
   13  C  1  Z   -0.056187  -0.889204
   14  C  1 XX    1.705845  -0.845568
   15  C  1 YY    1.705845  -0.845568
   16  C  1 ZZ    1.914601  -0.689072
   17  C  1 XY   -0.000000  -0.000000
   18  C  1 XZ   -0.000000  -0.000000
   19  C  1 YZ   -0.000000  -0.000000
   20  O  2  S   -0.222053  -0.984480
   21  O  2  S   -0.415119  -3.657876
   22  O  2  X   -0.000000  -0.000000
   23  O  2  Y   -0.000000  -0.000000
   24  O  2  Z    0.058647   0.046331
   25  O  2  S    9.481847  45.900314
   26  O  2  X   -0.000000  -0.000000
   27  O  2  Y   -0.000000  -0.000000
   28  O  2  Z   -2.424478  -8.486713
   29  O  2  S    0.260408   9.396727
   30  O  2  X   -0.000000  -0.000000
   31  O  2  Y   -0.000000  -0.000000
   32  O  2  Z   -0.142627  -2.276978
   33  O  2 XX   -0.780382  -2.983179
   34  O  2 YY   -0.780382  -2.983179
   35  O  2 ZZ   -0.737923  -2.255360
   36  O  2 XY   -0.000000  -0.000000
   37  O  2 XZ   -0.000000  -0.000000
   38  O  2 YZ   -0.000000  -0.000000
   39   B 3  S   -7.685509 -14.220626
   40   B 3  X   -0.000000  -0.000000
   41   B 3  Y   -0.000000  -0.000000
   42   B 3  Z   -2.315132 -24.733870
 ...... END OF RHF CALCULATION ......
 STEP CPU TIME =     0.50 TOTAL CPU TIME =        0.6 (    0.0 MIN)
 TOTAL WALL CLOCK TIME=        3.0 SECONDS, CPU UTILIZATION IS  18.87%

     ---------------------------------------------------------------------
     PROPERTIES FOR THE BLYP     DFT FUNCTIONAL (RHF  TYPE) DENSITY MATRIX
     ---------------------------------------------------------------------

          -----------------
          ENERGY COMPONENTS
          -----------------

         WAVEFUNCTION NORMALIZATION =       1.0000000000

                ONE ELECTRON ENERGY =    -193.8729264510
                TWO ELECTRON ENERGY =      60.3317939892
           NUCLEAR REPULSION ENERGY =      20.2522163483
                                      ------------------
                       TOTAL ENERGY =    -113.2889161135

 ELECTRON-ELECTRON POTENTIAL ENERGY =      60.3317939892
  NUCLEUS-ELECTRON POTENTIAL ENERGY =    -305.8787690971
   NUCLEUS-NUCLEUS POTENTIAL ENERGY =      20.2522163483
                                      ------------------
             TOTAL POTENTIAL ENERGY =    -225.2947587596
               TOTAL KINETIC ENERGY =     112.0058426461
                 VIRIAL RATIO (V/T) =       2.0114554155

          ---------------------------------------
          MULLIKEN AND LOWDIN POPULATION ANALYSES
          ---------------------------------------

     ATOMIC MULLIKEN POPULATION IN EACH MOLECULAR ORBITAL

                      1          2          3          4          5

                  2.000000   2.000000   2.000000   2.000000   2.000000

    1            -0.001215   2.019871  -0.149072   0.809664   0.486168
    2             2.006414  -0.002498   3.109618   1.345236   1.449630
    3            -0.005199  -0.017373  -0.960546  -0.154900   0.064203

                      6          7

                  2.000000   2.000000

    1             0.486168   1.620533
    2             1.449630   0.331234
    3             0.064203   0.048232

               ----- POPULATIONS IN EACH AO -----
                             MULLIKEN      LOWDIN
              1  C  1  S      1.99505     1.97320
              2  C  1  S      0.88090     0.40839
              3  C  1  X      0.34157     0.26629
              4  C  1  Y      0.34157     0.26629
              5  C  1  Z      0.79992     0.68431
              6  C  1  S      0.56399     0.35790
              7  C  1  X      0.11695     0.12807
              8  C  1  Y      0.11695     0.12807
              9  C  1  Z      0.05038     0.25141
             10  C  1  S      0.06771     0.14963
             11  C  1  X      0.01379     0.01904
             12  C  1  Y      0.01379     0.01904
             13  C  1  Z     -0.00876     0.02437
             14  C  1 XX     -0.02205     0.14521
             15  C  1 YY     -0.02205     0.14521
             16  C  1 ZZ     -0.00532     0.18716
             17  C  1 XY      0.00000     0.00000
             18  C  1 XZ      0.01387     0.02033
             19  C  1 YZ      0.01387     0.02033
             20  O  2  S      1.99177     1.97511
             21  O  2  S      0.88560     0.70196
             22  O  2  X      0.90058     0.81752
             23  O  2  Y      0.90058     0.81752
             24  O  2  Z      0.98750     0.89575
             25  O  2  S      2.32055     0.34873
             26  O  2  X      0.49950     0.41726
             27  O  2  Y      0.49950     0.41726
             28  O  2  Z      0.41569     0.41772
             29  O  2  S      0.27472     0.16414
             30  O  2  X      0.04162     0.07462
             31  O  2  Y      0.04162     0.07462
             32  O  2  Z     -0.00429     0.11053
             33  O  2 XX     -0.03455     0.13593
             34  O  2 YY     -0.03455     0.13593
             35  O  2 ZZ     -0.01242     0.16044
             36  O  2 XY      0.00000     0.00000
             37  O  2 XZ      0.00793     0.00727
             38  O  2 YZ      0.00793     0.00727
             39   B 3  S     -0.58199     0.25998
             40   B 3  X      0.06420     0.24960
             41   B 3  Y      0.06420     0.24960
             42   B 3  Z     -0.50779     0.36698

          ----- MULLIKEN ATOMIC OVERLAP POPULATIONS -----
          (OFF-DIAGONAL ELEMENTS NEED TO BE MULTIPLIED BY 2)

             1           2           3

    1    5.8797365
    2   -0.7744074  12.5686164
    3    0.1667879  -2.1049442   0.9767745

          TOTAL MULLIKEN AND LOWDIN ATOMIC POPULATIONS
       ATOM         MULL.POP.    CHARGE          LOW.POP.     CHARGE
    1 C             5.272117    0.727883         5.194263    0.805737
    2 O             9.689265   -1.689265         7.679579    0.320421
    3 X            -0.961382    0.961382         1.126158   -1.126158

          -------------------------------
          BOND ORDER AND VALENCE ANALYSIS     BOND ORDER THRESHOLD=0.050
          -------------------------------

                   BOND                       BOND                       BOND
  ATOM PAIR DIST  ORDER      ATOM PAIR DIST  ORDER      ATOM PAIR DIST  ORDER
    1   2  1.254  1.517        1   3  0.627  0.326        2   3  0.627 -3.611

                       TOTAL       BONDED        FREE
      ATOM            VALENCE     VALENCE     VALENCE
    1 C                 1.842       1.842       0.000
    2 O                -2.094      -2.094      -0.000
    3 X                -3.285      -3.285       0.000

          ---------------------
          ELECTROSTATIC MOMENTS
          ---------------------

 POINT   1           X           Y           Z (BOHR)    CHARGE
                 0.000000    0.000000    1.354164       -0.00 (A.U.)
         DX          DY          DZ         /D/  (DEBYE)
     0.000000    0.000000   -0.265654    0.265654
 ...... END OF PROPERTY EVALUATION ......
 STEP CPU TIME =     0.00 TOTAL CPU TIME =        0.6 (    0.0 MIN)
 TOTAL WALL CLOCK TIME=        3.0 SECONDS, CPU UTILIZATION IS  18.81%

 -----------------------------------------------------------------------
                    TDDFT CALCULATION FOR SCFTYP=RHF 
                          CODED BY MAHITO CHIBA
 NATIONAL INSTITUTE OF ADVANCED INDUSTRIAL SCIENCE AND TECHNOLOGY, JAPAN
 -----------------------------------------------------------------------

 REGENERATING AO INTEGRAL LIST IN C1 SYMMETRY FOR TDDFT ITERATIONS...

          --------------------
          2 ELECTRON INTEGRALS
          --------------------

 THE -PK- OPTION IS OFF, THE INTEGRALS ARE NOT IN SUPERMATRIX FORM.
 STORING   15000 INTEGRALS/RECORD ON DISK, USING 12 BYTES/INTEGRAL.
 TWO ELECTRON INTEGRAL EVALUATION REQUIRES   90474 WORDS OF MEMORY.
 II,JST,KST,LST =  1  1  1  1 NREC =         1 INTLOC =    1
 II,JST,KST,LST =  2  1  1  1 NREC =         1 INTLOC =    2
 II,JST,KST,LST =  3  1  1  1 NREC =         1 INTLOC =   34
 II,JST,KST,LST =  4  1  1  1 NREC =         1 INTLOC =  214
 II,JST,KST,LST =  5  1  1  1 NREC =         1 INTLOC =  776
 II,JST,KST,LST =  6  1  1  1 NREC =         1 INTLOC = 2864
 II,JST,KST,LST =  7  1  1  1 NREC =         1 INTLOC = 4164
 II,JST,KST,LST =  8  1  1  1 NREC =         1 INTLOC =10804
 II,JST,KST,LST =  9  1  1  1 NREC =         2 INTLOC = 6472
 II,JST,KST,LST = 10  1  1  1 NREC =         3 INTLOC = 7422
 II,JST,KST,LST = 11  1  1  1 NREC =         5 INTLOC =12579
 II,JST,KST,LST = 12  1  1  1 NREC =         6 INTLOC = 6894
 TOTAL NUMBER OF NONZERO TWO-ELECTRON INTEGRALS =              109975
          8 INTEGRAL RECORDS WERE STORED ON DISK FILE  8.
  ...... END OF TWO-ELECTRON INTEGRALS .....
 STEP CPU TIME =     0.02 TOTAL CPU TIME =        0.6 (    0.0 MIN)
 TOTAL WALL CLOCK TIME=        3.1 SECONDS, CPU UTILIZATION IS  19.22%
  
 -TDDFT RUNTIME PARAMETERS-
    TRIPLET  = F
    NONEQ    = T
    NSTATE   =                    3
    IROOT    =                    1
    NTRIAL   =                    5
    MAXVEC   =                   50
    ILENG    =                  200
    MAXGRD   =                 5872
    NRAD     =                   24
    NTHE     =                    8
    NPHI     =                   16
 GAS PHASE COMPUTATION
  
 FOR AN EULER-MACLAURIN QUADRATURE USING  24 RADIAL POINTS:
 SMALLEST GAUSSIAN PRIMITIVE EXPONENT=        0.0438000000 OF TYPE -P-
 ON ATOM NUMBER   1 HAS RADIAL NORMALIZATION=  1.004442
  LARGEST GAUSSIAN PRIMITIVE EXPONENT=     5484.6716600000 OF TYPE -S-
 ON ATOM NUMBER   2 HAS RADIAL NORMALIZATION=  1.000351

          **************************************************
          *                                                *
          * WARNING: QUESTIONABLE SELECTION OF RADIAL GRID *
          *                                                *
          **************************************************

 THIS RUN HAS REQUESTED NRAD=  24 IN $DFT OR $TDDFT
 ATOM=    2 HAS LARGE EXPONENT=          5484.671659999999974
 RECOMMEND NRAD ABOVE  50 FOR ZETA'S ABOVE 1E+4
 RECOMMEND NRAD ABOVE  75 FOR ZETA'S ABOVE 1E+5
 RECOMMEND NRAD ABOVE 125 FOR ZETA'S ABOVE 1E+6
 ATOM=    1 HAS SMALL EXPONENT=             0.043800000000000
 RECOMMEND NRAD ABOVE  75 FOR ZETA'S BELOW 1E-3
 RECOMMEND NRAD ABOVE 100 FOR ZETA'S BELOW 1E-4
 RECOMMEND NRAD ABOVE 125 FOR ZETA'S BELOW 1E-5
  
 MEM1  =      287291 MEM2  =        6282 MEMGRID=      101871
 MEMPCM=           0 MEMEFP=           0
 TOTAL MEMORY REQUIRED FOR TD-DFT ITERATIONS IS      395445 WORDS.

 INITIAL VECTORS / MXVEC                     5 /                  150
 ITERATION #                     1
    CURRENT VECTORS    1 TO   5 (   5 VECTORS)
    STATE NUMBER   1  ENERGY =    7.667613 EV
    STATE NUMBER   2  ENERGY =    7.667613 EV
    STATE NUMBER   3  ENERGY =    7.833180 EV
    MAX ERROR =  3.717E-02 / 1.000E-07
 ITERATION #                     2
    CURRENT VECTORS    6 TO   8 (   3 VECTORS)
    STATE NUMBER   1  ENERGY =    7.298558 EV
    STATE NUMBER   2  ENERGY =    7.298558 EV
    STATE NUMBER   3  ENERGY =    7.691382 EV
    MAX ERROR =  5.670E-03 / 1.000E-07
 ITERATION #                     3
    CURRENT VECTORS    9 TO  14 (   6 VECTORS)
    STATE NUMBER   1  ENERGY =    7.259379 EV
    STATE NUMBER   2  ENERGY =    7.259379 EV
    STATE NUMBER   3  ENERGY =    7.689454 EV
    MAX ERROR =  1.973E-04 / 1.000E-07
 ITERATION #                     4
    CURRENT VECTORS   15 TO  18 (   4 VECTORS)
    STATE NUMBER   1  ENERGY =    7.257240 EV
    STATE NUMBER   2  ENERGY =    7.257240 EV
    STATE NUMBER   3  ENERGY =    7.689454 EV
    MAX ERROR =  1.991E-05 / 1.000E-07
 ITERATION #                     5
    CURRENT VECTORS   19 TO  22 (   4 VECTORS)
    STATE NUMBER   1  ENERGY =    7.257004 EV
    STATE NUMBER   2  ENERGY =    7.257004 EV
    STATE NUMBER   3  ENERGY =    7.689454 EV
    MAX ERROR =  2.423E-06 / 1.000E-07
 ITERATION #                     6
    CURRENT VECTORS   23 TO  26 (   4 VECTORS)
    STATE NUMBER   1  ENERGY =    7.256976 EV
    STATE NUMBER   2  ENERGY =    7.256976 EV
    STATE NUMBER   3  ENERGY =    7.689454 EV
    MAX ERROR =  2.355E-07 / 1.000E-07
 ITERATION #                     7
    CURRENT VECTORS   27 TO  30 (   4 VECTORS)
    STATE NUMBER   1  ENERGY =    7.256975 EV
    STATE NUMBER   2  ENERGY =    7.256975 EV
    STATE NUMBER   3  ENERGY =    7.689454 EV
    MAX ERROR =  4.102E-08 / 1.000E-07
  
   ---------------------------------  
     R-TDDFT CALCULATION CONVERGED
   ---------------------------------  
 NUMBER OF USED VECTORS / MAX =  30 / 150
 NUMBER OF ITERATIONS   / MAX =   7 / 100
 NUMBER OF SINGLE EXCITATIONS =   245
 NUMBER OF ATOMIC ORBITALS    =  42
 NUMBER OF ELECTRONS          =          14.0003772

          -------------------
          SINGLET EXCITATIONS
          -------------------

 THIS IS A NON-ABELIAN POINT GROUP, AS A RESULT,
 SOME STATE SYMMETRY LABELS MAY NOT BE CORRECTLY PRINTED BELOW


 STATE #   1  ENERGY =    7.256975 EV
 OSCILLATOR STRENGTH =    0.048475
 LAMBDA DIAGNOSTIC   =    0.716 (RYDBERG/CHARGE TRANSFER CHARACTER)
 SYMMETRY OF STATE   =    E   
                 EXCITATION  DE-EXCITATION
     OCC     VIR  AMPLITUDE      AMPLITUDE
      I       A     X(I->A)        Y(A->I)
     ---     ---   --------       --------
      4       8    0.063651       0.013111
      7       8   -0.401799       0.031317
      4       9    0.142938       0.029443
      7       9   -0.902294       0.070327
      7      13    0.053050       0.010421

 STATE #   2  ENERGY =    7.256975 EV
 OSCILLATOR STRENGTH =    0.048475
 LAMBDA DIAGNOSTIC   =    0.716 (RYDBERG/CHARGE TRANSFER CHARACTER)
 SYMMETRY OF STATE   =    E   
                 EXCITATION  DE-EXCITATION
     OCC     VIR  AMPLITUDE      AMPLITUDE
      I       A     X(I->A)        Y(A->I)
     ---     ---   --------       --------
      4       8    0.142938       0.029443
      7       8   -0.902294       0.070327
      4       9   -0.063651      -0.013111
      7       9    0.401799      -0.031317
      7      12    0.053050       0.010421

 STATE #   3  ENERGY =    7.689454 EV
 OSCILLATOR STRENGTH =    0.000000
 LAMBDA DIAGNOSTIC   =    0.534 (RYDBERG/CHARGE TRANSFER CHARACTER)
 SYMMETRY OF STATE   =    A1  
                 EXCITATION  DE-EXCITATION
     OCC     VIR  AMPLITUDE      AMPLITUDE
      I       A     X(I->A)        Y(A->I)
     ---     ---   --------       --------
      6       8   -0.707107       0.000000
      5       9    0.707107       0.000000

 THIS IS A NON-ABELIAN POINT GROUP, AS A RESULT,
 SOME STATE SYMMETRY LABELS MAY NOT BE CORRECTLY PRINTED BELOW


                          SUMMARY OF TDDFT RESULTS

   STATE             ENERGY     EXCITATION  TRANSITION DIPOLE, A.U.  OSCILLATOR
   0 ->             HARTREE          EV         X       Y       Z     STRENGTH
   0  A1        -113.2889161135    0.000
   1  E         -113.0222271797    7.257    -0.2124 -0.4770 -0.0000    0.0485
   2  E         -113.0222271797    7.257    -0.4770  0.2124 -0.0000    0.0485
   3  A1        -113.0063338771    7.689     0.0000  0.0000 -0.0000    0.0000
  
 TRANSITION        EXCITATION            TRANSITION DIPOLE, A.U.     OSCILLATOR
                       EV              X       Y       Z       DIP    STRENGTH

  1  ->  2           0.000         -0.0000  0.0000 -0.0000   0.0000    0.0000
  1  ->  3           0.432         -0.2206  0.0983 -0.0000   0.2415    0.0006
  2  ->  3           0.432          0.0983  0.2206  0.0000   0.2415    0.0006

 SELECTING EXCITED STATE IROOT=   1 AT E=     -113.0222271797
 AS THE STATE OF INTEREST.

 ..... DONE WITH TD-DFT EXCITATION ENERGIES .....
 STEP CPU TIME =     1.22 TOTAL CPU TIME =        1.8 (    0.0 MIN)
 TOTAL WALL CLOCK TIME=        4.4 SECONDS, CPU UTILIZATION IS  41.32%
               580000  WORDS OF DYNAMIC MEMORY USED
 EXECUTION OF GAMESS TERMINATED NORMALLY Tue Nov 29 02:43:09 2016
 DDI: 263640 bytes (0.3 MB / 0 MWords) used by master data server.

 ----------------------------------------
 CPU timing information for all processes
 ========================================
 0: 1.777 + 0.53 = 1.831
 ----------------------------------------
 ddikick.x: exited gracefully.
unset echo
----- accounting info -----
Files used on the master node compute-3-0 were:
-rw-rw-r-- 1 sarom sarom   29989 Nov 29  2016 .//tddft-bond-funct.dat
-rw-rw-r-- 1 sarom sarom    3014 Nov 29  2016 .//tddft-bond-funct.F05
-rw-rw-r-- 1 sarom sarom 1440128 Nov 29  2016 .//tddft-bond-funct.F08
-rw-rw-r-- 1 sarom sarom 1668720 Nov 29  2016 .//tddft-bond-funct.F10
-rw-rw-r-- 1 sarom sarom  234920 Nov 29  2016 .//tddft-bond-funct.F22
-rw-rw-r-- 1 sarom sarom    3014 Nov 28 17:27 .//tddft-bond-funct.inp
-rw-rw-r-- 1 sarom sarom   67700 Nov 29  2016 .//tddft-bond-funct.log
Tue Nov 29 02:43:12 CST 2016
0.214u 0.561s 0:08.24 9.3%	0+0k 0+136io 0pf+0w
