----- GAMESS execution script 'rungms' -----
This job is running on host compute-3-0
under operating system Linux at Tue Nov 29 02:43:09 CST 2016
Available scratch disk space (Kbyte units) at beginning of the job is
Filesystem            1K-blocks       Used  Available Use% Mounted on
bolt.local:/export/home/sarom
                     9590469632 1553722368 7549579264  18% /home/sarom
Copying input file tddft-n2.inp to your run's scratch directory...
cp tddft-n2.inp .//tddft-n2.F05
unset echo
/home/sarom/gamessGH/ddikick.x /home/sarom/gamessGH/gamess.00.x tddft-n2 -ddi 1 1 localhost -scr ./

 Distributed Data Interface kickoff program.
 Initiating 1 compute processes on 1 nodes to run the following command:
 /home/sarom/gamessGH/gamess.00.x tddft-n2 

          ******************************************************
          *         GAMESS VERSION = 18 AUG 2016 (R1)          *
          *             FROM IOWA STATE UNIVERSITY             *
          * M.W.SCHMIDT, K.K.BALDRIDGE, J.A.BOATZ, S.T.ELBERT, *
          *   M.S.GORDON, J.H.JENSEN, S.KOSEKI, N.MATSUNAGA,   *
          *          K.A.NGUYEN, S.J.SU, T.L.WINDUS,           *
          *       TOGETHER WITH M.DUPUIS, J.A.MONTGOMERY       *
          *         J.COMPUT.CHEM.  14, 1347-1363(1993)        *
          **************** 64 BIT LINUX VERSION ****************

  SINCE 1993, STUDENTS AND POSTDOCS WORKING AT IOWA STATE UNIVERSITY
  AND ALSO IN THEIR VARIOUS JOBS AFTER LEAVING ISU HAVE MADE IMPORTANT
  CONTRIBUTIONS TO THE CODE:
     IVANA ADAMOVIC, CHRISTINE AIKENS, YURI ALEXEEV, POOJA ARORA,
     ANDREY ASADCHEV, ROB BELL, PRADIPTA BANDYOPADHYAY, JONATHAN BENTZ,
     BRETT BODE, KURT BRORSEN, CALEB CARLIN, GALINA CHABAN, WEI CHEN,
     CHEOL HO CHOI, PAUL DAY, ALBERT DEFUSCO, NUWAN DESILVA, TIM DUDLEY,
     DMITRI FEDOROV, GRAHAM FLETCHER, MARK FREITAG, KURT GLAESEMANN,
     DAN KEMP, GRANT MERRILL, NORIYUKI MINEZAWA, JONATHAN MULLIN,
     TAKESHI NAGATA, SEAN NEDD, HEATHER NETZLOFF, BOSILJKA NJEGIC, RYAN OLSON,
     MIKE PAK, SPENCER PRUITT, LUKE ROSKOP, JIM SHOEMAKER, LYUDMILA SLIPCHENKO,
     TONY SMITH, SAROM SOK LEANG, JIE SONG, TETSUYA TAKETSUGU, SIMON WEBB,
     PENG XU, SOOHAENG YOO, FEDERICO ZAHARIEV

  ADDITIONAL CODE HAS BEEN PROVIDED BY COLLABORATORS IN OTHER GROUPS:
     IOWA STATE UNIVERSITY:
          JOE IVANIC, AARON WEST, LAIMUTIS BYTAUTAS, KLAUS RUEDENBERG
     UNIVERSITY OF TOKYO: KIMIHIKO HIRAO, TAKAHITO NAKAJIMA,
          TAKAO TSUNEDA, MUNEAKI KAMIYA, SUSUMU YANAGISAWA,
          KIYOSHI YAGI, MAHITO CHIBA, SEIKEN TOKURA, NAOAKI KAWAKAMI
     UNIVERSITY OF AARHUS: FRANK JENSEN
     UNIVERSITY OF IOWA: VISVALDAS KAIRYS, HUI LI
     NATIONAL INST. OF STANDARDS AND TECHNOLOGY: WALT STEVENS, DAVID GARMER
     UNIVERSITY OF PISA: BENEDETTA MENNUCCI, JACOPO TOMASI
     UNIVERSITY OF MEMPHIS: HENRY KURTZ, PRAKASHAN KORAMBATH
     UNIVERSITY OF ALBERTA: TOBY ZENG, MARIUSZ KLOBUKOWSKI
     UNIVERSITY OF NEW ENGLAND: MARK SPACKMAN
     MIE UNIVERSITY: HIROAKI UMEDA
     NAT. INST. OF ADVANCED INDUSTRIAL SCIENCE AND TECHNOLOGY: KAZUO KITAURA
     MICHIGAN STATE UNIVERSITY:
          KAROL KOWALSKI, MARTA WLOCH, JEFFREY GOUR, JESSE LUTZ,
          WEI LI, PIOTR PIECUCH
     UNIVERSITY OF SILESIA: MONIKA MUSIAL, STANISLAW KUCHARSKI
     FACULTES UNIVERSITAIRES NOTRE-DAME DE LA PAIX:
          OLIVIER QUINET, BENOIT CHAMPAGNE
     UNIVERSITY OF CALIFORNIA - SANTA BARBARA: BERNARD KIRTMAN
     INSTITUTE FOR MOLECULAR SCIENCE:
          KAZUYA ISHIMURA, MICHIO KATOUDA, AND SHIGERU NAGASE
     UNIVERSITY OF NOTRE DAME: ANNA POMOGAEVA, DAN CHIPMAN
     KYUSHU UNIVERSITY:
          HARUYUKI NAKANO,
          FENG LONG GU, JACEK KORCHOWIEC, MARCIN MAKOWSKI, AND YURIKO AOKI,
          HIROTOSHI MORI AND EISAKU MIYOSHI
     PENNSYLVANIA STATE UNIVERSITY:
          TZVETELIN IORDANOV, CHET SWALINA, JONATHAN SKONE,
          SHARON HAMMES-SCHIFFER
     WASEDA UNIVERSITY:
          MASATO KOBAYASHI, TOMOKO AKAMA, TSUGUKI TOUMA,
          TAKESHI YOSHIKAWA, YASUHIRO IKABATA, JUNJI SEINO,
          YUYA NAKAJIMA, HIROMI NAKAI
     NANJING UNIVERSITY: SHUHUA LI
     UNIVERSITY OF NEBRASKA:
          PEIFENG SU, DEJUN SI, NANDUN THELLAMUREGE, YALI WANG, HUI LI
     UNIVERSITY OF ZURICH: ROBERTO PEVERATI, KIM BALDRIDGE
     N. COPERNICUS UNIVERSITY AND JACKSON STATE UNIVERSITY:
          MARIA BARYSZ
     UNIVERSITY OF COPENHAGEN: Jimmy Kromann, CASPER STEINMANN
     TOKYO INSTITUTE OF TECHNOLOGY: HIROYA NAKATA
     NAGOYA UNIVERSITY: YOSHIO NISHIMOTO, STEPHAN IRLE
     MOSCOW STATE UNIVERSITY: VLADIMIR MIRONOV

 EXECUTION OF GAMESS BEGUN Tue Nov 29 02:43:09 2016

            ECHO OF THE FIRST FEW INPUT CARDS -
 INPUT CARD>!  N2 excited states by TD-DFT.                                                 
 INPUT CARD>!  Supplementation of aug-cc-pVDZ by s(0.01), p(0.02), and d(0.04)              
 INPUT CARD>!  is done to be sure we cover Rydberg character.                               
 INPUT CARD>!  This job has 70 AOs and 64 MOs.                                              
 INPUT CARD>!                                                                               
 INPUT CARD>!  experimental data (singlet states only) from Huber/Herzberg                  
 INPUT CARD>!      D-inf-h            D4h         D2h labels, from Herzberg's Table 59      
 INPUT CARD>!  X-1-sigma-g-plus     = A1g       = Ag        =      0 cm-1 = 0    eV         
 INPUT CARD>!  a'-1-sigma-u-minus   = A1u       = Au        = 68,153      = 8.45            
 INPUT CARD>!  a-1-pi-g             = Eg        = B2g + B3g = 69,283      = 8.59            
 INPUT CARD>!  w-1-delta-u          = B1u + B2u = Au + B1u  = 72,097      = 8.94            
 INPUT CARD>!                                                                               
 INPUT CARD>!          Running in D2h prints                                                
 INPUT CARD>!  STATE             ENERGY     EXCITATION      TRANSITION DIPOLE    OSCILLATOR 
 INPUT CARD>!  0  AG        -109.4907954102    0.000                                        
 INPUT CARD>!  1  B3G       -109.1502535844    9.267     0.0000  0.0000  0.0000    0.000    
 INPUT CARD>!  2  B2G       -109.1502535686    9.267     0.0000  0.0000  0.0000    0.000    
 INPUT CARD>!  3  AU        -109.1472733759    9.348     0.0000  0.0000  0.0000    0.000    
 INPUT CARD>!  4  AU        -109.1323070901    9.755     0.0000  0.0000  0.0000    0.000    
 INPUT CARD>!  5  B1U       -109.1323070019    9.755     0.0000  0.0000  0.0000    0.000    
 INPUT CARD>!  6  AG        -109.0839966798   11.070     0.0000  0.0000  0.0000    0.000    
 INPUT CARD>!                                                                               
 INPUT CARD>!  From these labels, we can deduce that states 1+2 are the a state,            
 INPUT CARD>!  that state 3 is the a' state, and states 4+5 are the w state.                
 INPUT CARD>!  Energies are overestimated by 0.8 eV or so, and there is a                   
 INPUT CARD>!  reversal of the two (admittedly very close) a and a' states.                 
 INPUT CARD>!  The labels match the textbook exercise.                                      
 INPUT CARD>!                                                                               
 INPUT CARD>!  This run takes 16 seconds on a 2.66 GHz Cloverton ( 3 Apr 2015)              
 INPUT CARD>!  results have not changed substantially since 2009                            
 INPUT CARD>!                                                                               
 INPUT CARD>!          Running in D4h prints   (old answers, before grid changes)           
 INPUT CARD>!  STATE             ENERGY     EXCITATION      TRANSITION DIPOLE    OSCILLATOR 
 INPUT CARD>!  0  A1G       -109.4907907730     .000                                        
 INPUT CARD>!  1  EG        -109.1503072235    9.265      .0000   .0000   .0000     .000    
 INPUT CARD>!  2  EG        -109.1503072235    9.265      .0000   .0000   .0000     .000    
 INPUT CARD>!  3  A1U       -109.1472669945    9.348      .0000   .0000   .0000     .000    
 INPUT CARD>!  4  A1U       -109.1323802536    9.753      .0000   .0000   .0000     .000    
 INPUT CARD>!  5  A1U       -109.1323802430    9.753      .0000   .0000   .0000     .000    
 INPUT CARD>!  6  A1G       -109.0801045241   11.175      .0000   .0000   .0000     .000    
 INPUT CARD>!  We can see that states 1+2 as well as state 3 are labeled correctly.         
 INPUT CARD>!  However, states 4+5 are wrong.  It is impossible for any degenerate          
 INPUT CARD>!  state to resolve to the same symbol twice, and the correct answer for        
 INPUT CARD>!  a delta-u state is B1u + B2u.                                                
 INPUT CARD>!                                                                               
 INPUT CARD>!                                                                               
 INPUT CARD> $contrl scftyp=rhf dfttyp=b3lyp tddft=excite                                   
 INPUT CARD>         runtyp=energy ispher=1 $end                                            
 INPUT CARD> $system mwords=6 $end                                                          
 INPUT CARD> $dft    nrad=96 nleb=302 $end                                                  
    6000000 WORDS OF MEMORY AVAILABLE


     RUN TITLE
     ---------
 N2 closed shell TDDFT test case...ground state's exp. Re used                   

 THE POINT GROUP OF THE MOLECULE IS DNH     
 THE ORDER OF THE PRINCIPAL AXIS IS     2

 ATOM      ATOMIC                      COORDINATES (BOHR)
           CHARGE         X                   Y                   Z
 N           7.0     0.0000000000        0.0000000000       -1.0371572111
 N           7.0     0.0000000000        0.0000000000        1.0371572111

          INTERNUCLEAR DISTANCES (ANGS.)
          ------------------------------

                1 N          2 N     

   1 N       0.0000000    1.0976800 *
   2 N       1.0976800 *  0.0000000  

  * ... LESS THAN  3.000


     ATOMIC BASIS SET
     ----------------
 THE CONTRACTED PRIMITIVE FUNCTIONS HAVE BEEN UNNORMALIZED
 THE CONTRACTED BASIS FUNCTIONS ARE NOW NORMALIZED TO UNITY

  SHELL TYPE  PRIMITIVE        EXPONENT          CONTRACTION COEFFICIENT(S)

 N         

     13   S       1          9046.0000000    0.000699617413
     13   S       2          1357.0000000    0.005386054630
     13   S       3           309.3000000    0.027391021189
     13   S       4            87.7300000    0.103150591982
     13   S       5            28.5600000    0.278570663317
     13   S       6            10.2100000    0.448294849454
     13   S       7             3.8380000    0.278085928395
     13   S       8             0.7466000    0.015431561233

     14   S       9          9046.0000000   -0.000304990096
     14   S      10          1357.0000000   -0.002408026379
     14   S      11           309.3000000   -0.011944448725
     14   S      12            87.7300000   -0.048925992909
     14   S      13            28.5600000   -0.134472724725
     14   S      14            10.2100000   -0.315112577700
     14   S      15             3.8380000   -0.242857832550
     14   S      16             0.7466000    1.094382206854

     15   S      17             0.2248000    1.000000000000

     16   P      18            13.5500000    0.058905676772
     16   P      19             2.9170000    0.320461106714
     16   P      20             0.7973000    0.753042061792

     17   P      21             0.2185000    1.000000000000

     18   D      22             0.8170000    1.000000000000

     19   S      23             0.0612400    1.000000000000

     20   P      24             0.0561100    1.000000000000

     21   D      25             0.2300000    1.000000000000

     22   S      26             0.0100000    1.000000000000

     23   P      27             0.0200000    1.000000000000

     24   D      28             0.0400000    1.000000000000

 TOTAL NUMBER OF BASIS SET SHELLS             =   24
 NUMBER OF CARTESIAN GAUSSIAN BASIS FUNCTIONS =   70
 NOTE: THIS RUN WILL RESTRICT THE MO VARIATION SPACE TO SPHERICAL HARMONICS.
 THE NUMBER OF ORBITALS KEPT IN THE VARIATIONAL SPACE WILL BE PRINTED LATER.
 NUMBER OF ELECTRONS                          =   14
 CHARGE OF MOLECULE                           =    0
 SPIN MULTIPLICITY                            =    1
 NUMBER OF OCCUPIED ORBITALS (ALPHA)          =    7
 NUMBER OF OCCUPIED ORBITALS (BETA )          =    7
 TOTAL NUMBER OF ATOMS                        =    2
 THE NUCLEAR REPULSION ENERGY IS       23.6222626018

 THIS MOLECULE IS RECOGNIZED AS BEING LINEAR,
 ORBITAL LZ DEGENERACY TOLERANCE ETOLLZ= 1.00E-06

     LEBEDEV GRID-BASED DFT OPTIONS
     ------------------------------
     DFTTYP=B3LYP   
     NRAD  =      96     NLEB  =     302
     NRAD0 =      24     NLEB0 =     110
     SWOFF =    5.00E-03 (PURE SCF -> DFT)
     SWITCH=    3.00E-04 (COARSE -> TIGHT GRID)
     THRESH=    0.00E+00 GTHRE=    1.00E+00

 GRIMME'S EMPIRICAL DISPERSION CORRECTION= F

     $CONTRL OPTIONS
     ---------------
 SCFTYP=RHF          RUNTYP=ENERGY       EXETYP=RUN     
 MPLEVL=       0     CITYP =NONE         CCTYP =NONE         VBTYP =NONE    
 DFTTYP=B3LYP        TDDFT =EXCITE  
 MULT  =       1     ICHARG=       0     NZVAR =       0     COORD =UNIQUE  
 PP    =NONE         RELWFN=NONE         LOCAL =NONE         NUMGRD=       F
 ISPHER=       1     NOSYM =       0     MAXIT =      30     UNITS =ANGS    
 PLTORB=       F     MOLPLT=       F     AIMPAC=       F     FRIEND=        
 NPRINT=       7     IREST =       0     GEOM  =INPUT   
 NORMF =       0     NORMP =       0     ITOL  =      20     ICUT  =       9
 INTTYP=BEST         GRDTYP=BEST         QMTTOL= 1.0E-06

     $SYSTEM OPTIONS
     ---------------
  REPLICATED MEMORY=     6000000 WORDS (ON EVERY NODE).
 DISTRIBUTED MEMDDI=           0 MILLION WORDS IN AGGREGATE,
 MEMDDI DISTRIBUTED OVER   1 PROCESSORS IS           0 WORDS/PROCESSOR.
 TOTAL MEMORY REQUESTED ON EACH PROCESSOR=     6000000 WORDS.
 TIMLIM=      525600.00 MINUTES, OR     365.0 DAYS.
 PARALL= F  BALTYP=  DLB     KDIAG=    0  COREFL= F
 MXSEQ2=     300 MXSEQ3=     150  mem10=         0

          ----------------
          PROPERTIES INPUT
          ----------------

     MOMENTS            FIELD           POTENTIAL          DENSITY
 IEMOM =       1   IEFLD =       0   IEPOT =       0   IEDEN =       0
 WHERE =COMASS     WHERE =NUCLEI     WHERE =NUCLEI     WHERE =NUCLEI  
 OUTPUT=BOTH       OUTPUT=BOTH       OUTPUT=BOTH       OUTPUT=BOTH    
 IEMINT=       0   IEFINT=       0                     IEDINT=       0
                                                       MORB  =       0
          EXTRAPOLATION IN EFFECT
          DIIS IN EFFECT
 ORBITAL PRINTING OPTION: NPREO=     1    70     2     1

     -------------------------------
     INTEGRAL TRANSFORMATION OPTIONS
     -------------------------------
     NWORD  =            0
     CUTOFF = 1.0E-09     MPTRAN =       0
     DIRTRF =       F     AOINTS =DUP     

          ----------------------
          INTEGRAL INPUT OPTIONS
          ----------------------
 NOPK  =       1 NORDER=       0 SCHWRZ=       F

          ----------------------
          TDDFT INPUT PARAMETERS
          ----------------------
 NSTATE=       6  IROOT=       1   MULT=       1
 MAXVEC=      50 NTRIAL=       5 CNVTOL=  1.00E-07
 TDPRP =       F  TAMMD=       F    TPA=       F
 ALPHA =       F   BETA=       F  PFREQ=    0.00    0.00
   NRAD=      24   NLEB=     194

     ------------------------------------------
     THE POINT GROUP IS DNH, NAXIS= 2, ORDER= 8
     ------------------------------------------

 -- VARIATIONAL SPACE WILL BE RESTRICTED TO PURE SPHERICAL HARMONICS ONLY --
 AFTER EXCLUDING CONTAMINANT COMBINATIONS FROM THE CARTESIAN GAUSSIAN BASIS
 SET, THE NUMBER OF SPHERICAL HARMONICS KEPT IN THE VARIATION SPACE IS   64

     DIMENSIONS OF THE SYMMETRY SUBSPACES ARE
 AG  =   15     AU  =    3     B3U =    7     B3G =    7     B1G =    3
 B1U =   15     B2U =    7     B2G =    7

 ..... DONE SETTING UP THE RUN .....
 STEP CPU TIME =     0.02 TOTAL CPU TIME =        0.0 (    0.0 MIN)
 TOTAL WALL CLOCK TIME=        0.0 SECONDS, CPU UTILIZATION IS  66.67%

          ********************
          1 ELECTRON INTEGRALS
          ********************
 ...... END OF ONE-ELECTRON INTEGRALS ......
 STEP CPU TIME =     0.00 TOTAL CPU TIME =        0.0 (    0.0 MIN)
 TOTAL WALL CLOCK TIME=        0.0 SECONDS, CPU UTILIZATION IS  66.67%

          -------------
          GUESS OPTIONS
          -------------
          GUESS =HUCKEL            NORB  =       0          NORDER=       0
          MIX   =       F          PRTMO =       F          PUNMO =       F
          TOLZ  = 1.0E-08          TOLE  = 1.0E-05
          SYMDEN=       F          PURIFY=       F

 INITIAL GUESS ORBITALS GENERATED BY HUCKEL   ROUTINE.
 HUCKEL GUESS REQUIRES     37666 WORDS.

 STATISTICS FOR GENERATION OF SYMMETRY ORBITAL -Q- MATRIX
 NUMBER OF CARTESIAN ATOMIC ORBITALS=         70
 NUMBER OF SPHERICAL CONTAMINANTS DROPPED=     6
 NUMBER OF LINEARLY DEPENDENT MOS DROPPED=     0
 TOTAL NUMBER OF MOS IN VARIATION SPACE=      64

 SYMMETRIES FOR INITIAL GUESS ORBITALS FOLLOW.   BOTH SET(S).
     7 ORBITALS ARE OCCUPIED (    2 CORE ORBITALS).
     3=AG       4=B2U      5=B3U      6=B1U      7=AG       8=B2G      9=B3G 
    10=B1U     11=AG      12=AG      13=AG      14=AG      15=AG      16=AG  
    17=AG  
 ...... END OF INITIAL ORBITAL SELECTION ......
 STEP CPU TIME =     0.00 TOTAL CPU TIME =        0.0 (    0.0 MIN)
 TOTAL WALL CLOCK TIME=        0.0 SECONDS, CPU UTILIZATION IS  50.00%

                    ----------------------
                    AO INTEGRAL TECHNOLOGY
                    ----------------------
     S,P,L SHELL ROTATED AXIS INTEGRALS, REPROGRAMMED BY
        KAZUYA ISHIMURA (IMS) AND JOSE SIERRA (SYNSTAR).
     S,P,D,L SHELL ROTATED AXIS INTEGRALS PROGRAMMED BY
        KAZUYA ISHIMURA (INSTITUTE FOR MOLECULAR SCIENCE).
     S,P,D,F,G SHELL TO TOTAL QUARTET ANGULAR MOMENTUM SUM 5,
        ERIC PROGRAM BY GRAHAM FLETCHER (ELORET AND NASA ADVANCED
        SUPERCOMPUTING DIVISION, AMES RESEARCH CENTER).
     S,P,D,F,G,L SHELL GENERAL RYS QUADRATURE PROGRAMMED BY
        MICHEL DUPUIS (PACIFIC NORTHWEST NATIONAL LABORATORY).

          --------------------
          2 ELECTRON INTEGRALS
          --------------------

 THE -PK- OPTION IS OFF, THE INTEGRALS ARE NOT IN SUPERMATRIX FORM.
 STORING   15000 INTEGRALS/RECORD ON DISK, USING 12 BYTES/INTEGRAL.
 TWO ELECTRON INTEGRAL EVALUATION REQUIRES   90696 WORDS OF MEMORY.
 II,JST,KST,LST =  1  1  1  1 NREC =         1 INTLOC =    1
 II,JST,KST,LST =  2  1  1  1 NREC =         1 INTLOC =    1
 II,JST,KST,LST =  3  1  1  1 NREC =         1 INTLOC =    1
 II,JST,KST,LST =  4  1  1  1 NREC =         1 INTLOC =    1
 II,JST,KST,LST =  5  1  1  1 NREC =         1 INTLOC =    1
 II,JST,KST,LST =  6  1  1  1 NREC =         1 INTLOC =    1
 II,JST,KST,LST =  7  1  1  1 NREC =         1 INTLOC =    1
 II,JST,KST,LST =  8  1  1  1 NREC =         1 INTLOC =    1
 II,JST,KST,LST =  9  1  1  1 NREC =         1 INTLOC =    1
 II,JST,KST,LST = 10  1  1  1 NREC =         1 INTLOC =    1
 II,JST,KST,LST = 11  1  1  1 NREC =         1 INTLOC =    1
 II,JST,KST,LST = 12  1  1  1 NREC =         1 INTLOC =    1
 II,JST,KST,LST = 13  1  1  1 NREC =         1 INTLOC =    1
 II,JST,KST,LST = 14  1  1  1 NREC =         1 INTLOC =    5
 II,JST,KST,LST = 15  1  1  1 NREC =         1 INTLOC =   32
 II,JST,KST,LST = 16  1  1  1 NREC =         1 INTLOC =  124
 II,JST,KST,LST = 17  1  1  1 NREC =         1 INTLOC =  595
 II,JST,KST,LST = 18  1  1  1 NREC =         1 INTLOC = 2269
 II,JST,KST,LST = 19  1  1  1 NREC =         1 INTLOC =14906
 II,JST,KST,LST = 20  1  1  1 NREC =         2 INTLOC = 4658
 II,JST,KST,LST = 21  1  1  1 NREC =         3 INTLOC = 7100
 II,JST,KST,LST = 22  1  1  1 NREC =         8 INTLOC = 1295
 II,JST,KST,LST = 23  1  1  1 NREC =         9 INTLOC = 5963
 II,JST,KST,LST = 24  1  1  1 NREC =        13 INTLOC =10637
 TOTAL NUMBER OF NONZERO TWO-ELECTRON INTEGRALS =              395829
         27 INTEGRAL RECORDS WERE STORED ON DISK FILE  8.
  ...... END OF TWO-ELECTRON INTEGRALS .....
 STEP CPU TIME =     0.14 TOTAL CPU TIME =        0.2 (    0.0 MIN)
 TOTAL WALL CLOCK TIME=        0.2 SECONDS, CPU UTILIZATION IS  88.89%

          --------------------------
             R-B3LYP SCF CALCULATION
          --------------------------

     NUCLEAR ENERGY =        23.6222626018
     MAXIT =   30     NPUNCH=    2
     EXTRAP=T  DAMP=F  SHIFT=F  RSTRCT=F  DIIS=T  DEM=F  SOSCF=F
         DENSITY MATRIX CONVERGENCE THRESHOLD=  1.00E-06
     COARSE -> FINE DFT GRID SWITCH THRESHOLD=  3.00E-04 (SWITCH IN $DFT)
                   HF -> DFT SWITCH THRESHOLD=  5.00E-03 (SWOFF IN $DFT)
     MEMORY REQUIRED FOR RHF ITERS=    172193 WORDS.

 DFT CODE IS SWITCHING FROM THE FINE GRID NRAD= 96,  NLEB=  302
                      TO THE COARSE GRID NRAD0= 24, NLEB0=  110

     EXCHANGE FUNCTIONAL   =B88&HFX   
     CORRELATION FUNCTIONAL=LYP88&VWN5
     DFT THRESHOLD         =.690E-07
     GRID CHANGE THRESHOLD =.300E-03
 FOR AN EULER-MACLAURIN QUADRATURE USING  96 RADIAL POINTS:
 SMALLEST GAUSSIAN PRIMITIVE EXPONENT=        0.0100000000 OF TYPE -S-
 ON ATOM NUMBER   1 HAS RADIAL NORMALIZATION=  1.000000
  LARGEST GAUSSIAN PRIMITIVE EXPONENT=     9046.0000000000 OF TYPE -S-
 ON ATOM NUMBER   1 HAS RADIAL NORMALIZATION=  1.000000
 DFT IS SWITCHED OFF, PERFORMING PURE SCF UNTIL SWOFF THRESHOLD IS REACHED.

 ITER EX DEM     TOTAL ENERGY        E CHANGE  DENSITY CHANGE    DIIS ERROR
   1  0  0     -108.5855836406  -108.5855836406   0.674093761   0.657559401
          * * *   INITIATING DIIS PROCEDURE   * * *
   2  1  0     -108.9507687540    -0.3651851134   0.210731939   0.055695787
   3  2  0     -108.9601454925    -0.0093767385   0.030588761   0.012746230
   4  3  0     -108.9607843857    -0.0006388932   0.018450897   0.003252656
   5  4  0     -108.9608417759    -0.0000573901   0.000641211   0.000441023
 CONVERGED TO SWOFF, SO DFT CALCULATION IS NOW SWITCHED ON.
          * * *   INITIATING DIIS PROCEDURE   * * *
   6  5  0     -109.4823350280    -0.5214932521   0.246268219   0.078683943
   7  6  0     -109.4911332214    -0.0087981934   0.035629013   0.013193457
   8  7  0     -109.4916123443    -0.0004791229   0.009102266   0.008886271
   9  8  0     -109.4918374683    -0.0002251240   0.000300737   0.000422834
  10  9  0     -109.4918378129    -0.0000003447   0.000056864   0.000014841
 DFT CODE IS SWITCHING BACK TO THE FINE GRID
          * * *   INITIATING DIIS PROCEDURE   * * *
  11 10  0     -109.4907947850     0.0010430279   0.017999910   0.000402919
  12 11  0     -109.4907954056    -0.0000006205   0.000469096   0.000040707
  13 12  0     -109.4907954099    -0.0000000043   0.000026792   0.000010316
  14 13  0     -109.4907954102    -0.0000000004   0.000004870   0.000000785
  15 14  0     -109.4907954102    -0.0000000000   0.000000344   0.000000472
  16 15  0     -109.4907954102    -0.0000000000   0.000000058   0.000000011

          -----------------
          DENSITY CONVERGED
          -----------------
     TIME TO FORM FOCK OPERATORS=       1.4 SECONDS (       0.1 SEC/ITER)
     TIME TO SOLVE SCF EQUATIONS=       0.1 SECONDS (       0.0 SEC/ITER)

 FINAL R-B3LYP ENERGY IS     -109.4907954102 AFTER  16 ITERATIONS
 DFT EXCHANGE + CORRELATION ENERGY =       -11.0157503163
 TOTAL ELECTRON NUMBER             =        13.9999999000

 LZ VALUE ANALYSIS FOR THE MOS
 ----------------------------------------
 MO     1 (    1) HAS LZ(WEIGHT)= 0.00(100.0%) 
 MO     2 (    2) HAS LZ(WEIGHT)= 0.00(100.0%) 
 MO     3 (    3) HAS LZ(WEIGHT)= 0.00(100.0%) 
 MO     4 (    4) HAS LZ(WEIGHT)= 0.00(100.0%) 
 MO     5 (    5) HAS LZ(WEIGHT)=-1.00( 50.0%)  1.00( 50.0%) 
 MO     6 (    5) HAS LZ(WEIGHT)=-1.00( 50.0%)  1.00( 50.0%) 
 MO     7 (    6) HAS LZ(WEIGHT)= 0.00(100.0%) 
 MO     8 (    7) HAS LZ(WEIGHT)=-1.00( 50.0%)  1.00( 50.0%) 
 MO     9 (    7) HAS LZ(WEIGHT)=-1.00( 50.0%)  1.00( 50.0%) 
 MO    10 (    8) HAS LZ(WEIGHT)= 0.00(100.0%) 
 MO    11 (    9) HAS LZ(WEIGHT)= 0.00(100.0%) 
 MO    12 (   10) HAS LZ(WEIGHT)=-1.00( 50.0%)  1.00( 50.0%) 
 MO    13 (   10) HAS LZ(WEIGHT)=-1.00( 50.0%)  1.00( 50.0%) 
 MO    14 (   11) HAS LZ(WEIGHT)= 0.00(100.0%) 
 MO    15 (   12) HAS LZ(WEIGHT)= 0.00(100.0%) 
 MO    16 (   13) HAS LZ(WEIGHT)=-1.00( 50.0%)  1.00( 50.0%) 
 MO    17 (   13) HAS LZ(WEIGHT)=-1.00( 50.0%)  1.00( 50.0%) 
 MO    18 (   14) HAS LZ(WEIGHT)= 0.00(100.0%) 
 MO    19 (   15) HAS LZ(WEIGHT)= 0.00(100.0%) 
 MO    20 (   16) HAS LZ(WEIGHT)= 0.00(100.0%) 
 MO    21 (   17) HAS LZ(WEIGHT)= 0.00(100.0%) 
 MO    22 (   18) HAS LZ(WEIGHT)=-1.00( 50.0%)  1.00( 50.0%) 
 MO    23 (   18) HAS LZ(WEIGHT)=-1.00( 50.0%)  1.00( 50.0%) 
 MO    24 (   19) HAS LZ(WEIGHT)= 0.00(100.0%) 
 MO    25 (   20) HAS LZ(WEIGHT)=-1.00( 50.0%)  1.00( 50.0%) 
 MO    26 (   20) HAS LZ(WEIGHT)=-1.00( 50.0%)  1.00( 50.0%) 
 MO    27 (   21) HAS LZ(WEIGHT)= 0.00(100.0%) 
 MO    28 (   22) HAS LZ(WEIGHT)= 0.00(100.0%) 
 MO    29 (   23) HAS LZ(WEIGHT)=-1.00( 50.0%)  1.00( 50.0%) 
 MO    30 (   23) HAS LZ(WEIGHT)=-1.00( 50.0%)  1.00( 50.0%) 
 MO    31 (   24) HAS LZ(WEIGHT)= 0.00(100.0%) 
 MO    32 (   25) HAS LZ(WEIGHT)= 0.00(100.0%) 
 MO    33 (   26) HAS LZ(WEIGHT)= 0.00(100.0%) 
 MO    34 (   27) HAS LZ(WEIGHT)= 0.00(100.0%) 
 MO    35 (   28) HAS LZ(WEIGHT)= 0.00(100.0%) 
 MO    36 (   29) HAS LZ(WEIGHT)= 0.00(100.0%) 
 MO    37 (   30) HAS LZ(WEIGHT)= 0.00(100.0%) 
 MO    38 (   31) HAS LZ(WEIGHT)= 0.00(100.0%) 
 MO    39 (   32) HAS LZ(WEIGHT)= 0.00(100.0%) 
 MO    40 (   33) HAS LZ(WEIGHT)=-1.00( 50.0%)  1.00( 50.0%) 
 MO    41 (   33) HAS LZ(WEIGHT)=-1.00( 50.0%)  1.00( 50.0%) 
 MO    42 (   34) HAS LZ(WEIGHT)= 0.00(100.0%) 
 MO    43 (   35) HAS LZ(WEIGHT)= 0.00(100.0%) 
 MO    44 (   36) HAS LZ(WEIGHT)=-1.00( 50.0%)  1.00( 50.0%) 
 MO    45 (   36) HAS LZ(WEIGHT)=-1.00( 50.0%)  1.00( 50.0%) 
 MO    46 (   37) HAS LZ(WEIGHT)=-1.00( 50.0%)  1.00( 50.0%) 
 MO    47 (   37) HAS LZ(WEIGHT)=-1.00( 50.0%)  1.00( 50.0%) 
 MO    48 (   38) HAS LZ(WEIGHT)= 0.00(100.0%) 
 MO    49 (   39) HAS LZ(WEIGHT)= 0.00(100.0%) 
 MO    50 (   40) HAS LZ(WEIGHT)= 0.00(100.0%) 
 MO    51 (   41) HAS LZ(WEIGHT)= 0.00(100.0%) 
 MO    52 (   42) HAS LZ(WEIGHT)= 0.00(100.0%) 
 MO    53 (   43) HAS LZ(WEIGHT)= 0.00(100.0%) 
 MO    54 (   44) HAS LZ(WEIGHT)=-1.00( 50.0%)  1.00( 50.0%) 
 MO    55 (   44) HAS LZ(WEIGHT)=-1.00( 50.0%)  1.00( 50.0%) 
 MO    56 (   45) HAS LZ(WEIGHT)=-2.00( 50.0%)  2.00( 50.0%) 
 MO    57 (   45) HAS LZ(WEIGHT)=-2.00( 50.0%)  2.00( 50.0%) 
 MO    58 (   46) HAS LZ(WEIGHT)=-2.00( 50.0%)  2.00( 50.0%) 
 MO    59 (   46) HAS LZ(WEIGHT)=-2.00( 50.0%)  2.00( 50.0%) 
 MO    60 (   47) HAS LZ(WEIGHT)= 0.00(100.0%) 
 MO    61 (   48) HAS LZ(WEIGHT)=-1.00( 50.0%)  1.00( 50.0%) 
 MO    62 (   48) HAS LZ(WEIGHT)=-1.00( 50.0%)  1.00( 50.0%) 
 MO    63 (   49) HAS LZ(WEIGHT)= 0.00(100.0%) 
 MO    64 (   50) HAS LZ(WEIGHT)= 0.00(100.0%) 

          ------------
          EIGENVECTORS
          ------------

                      1          2          3          4          5
                  -14.4449   -14.4433    -1.1356    -0.5580    -0.4706
                     AG         B1U        AG         B1U        B2U 
    1  N  1  S    0.710833   0.713995  -0.009607  -0.001485   0.000000
    2  N  1  S    0.008752   0.014338   0.332826   0.325624   0.000000
    3  N  1  S   -0.005471  -0.102385   0.210686   0.606946   0.000000
    4  N  1  X    0.000000   0.000000   0.000000  -0.000000   0.000000
    5  N  1  Y    0.000000   0.000000   0.000000  -0.000000   0.449509
    6  N  1  Z    0.001570   0.002915   0.230148  -0.208615   0.000000
    7  N  1  X    0.000000   0.000000   0.000000  -0.000000   0.000000
    8  N  1  Y    0.000000   0.000000   0.000000  -0.000000   0.224473
    9  N  1  Z   -0.004005  -0.052995   0.027291   0.015928   0.000000
   10  N  1 XX    0.000035  -0.000898  -0.012115   0.008772   0.000000
   11  N  1 YY    0.000035  -0.000898  -0.012115   0.008772   0.000000
   12  N  1 ZZ   -0.000071   0.001795   0.024230  -0.017545   0.000000
   13  N  1 XY    0.000000   0.000000   0.000000  -0.000000   0.000000
   14  N  1 XZ    0.000000   0.000000   0.000000  -0.000000   0.000000
   15  N  1 YZ    0.000000   0.000000   0.000000  -0.000000   0.036573
   16  N  1  S   -0.000124  -0.079208   0.002010   0.336417   0.000000
   17  N  1  X    0.000000   0.000000   0.000000  -0.000000   0.000000
   18  N  1  Y    0.000000   0.000000   0.000000  -0.000000   0.018310
   19  N  1  Z    0.001639  -0.018740  -0.045097   0.059428   0.000000
   20  N  1 XX    0.001641   0.006072   0.004152  -0.010367   0.000000
   21  N  1 YY    0.001641   0.006072   0.004152  -0.010367   0.000000
   22  N  1 ZZ   -0.003281  -0.012144  -0.008304   0.020733   0.000000
   23  N  1 XY    0.000000   0.000000   0.000000  -0.000000   0.000000
   24  N  1 XZ    0.000000   0.000000   0.000000  -0.000000   0.000000
   25  N  1 YZ    0.000000   0.000000   0.000000  -0.000000   0.011090
   26  N  1  S    0.000103   0.003845  -0.003059  -0.002908   0.000000
   27  N  1  X    0.000000   0.000000   0.000000  -0.000000   0.000000
   28  N  1  Y    0.000000   0.000000   0.000000  -0.000000  -0.001278
   29  N  1  Z    0.001662   0.001204  -0.021981  -0.001128   0.000000
   30  N  1 XX   -0.000469   0.000748   0.007551  -0.002627   0.000000
   31  N  1 YY   -0.000469   0.000748   0.007551  -0.002627   0.000000
   32  N  1 ZZ    0.000937  -0.001497  -0.015102   0.005254   0.000000
   33  N  1 XY    0.000000   0.000000   0.000000  -0.000000   0.000000
   34  N  1 XZ    0.000000   0.000000   0.000000  -0.000000   0.000000
   35  N  1 YZ    0.000000   0.000000   0.000000  -0.000000   0.002322
   36  N  2  S    0.710833  -0.713995  -0.009607   0.001485   0.000000
   37  N  2  S    0.008752  -0.014338   0.332826  -0.325624   0.000000
   38  N  2  S   -0.005471   0.102385   0.210686  -0.606946   0.000000
   39  N  2  X    0.000000   0.000000   0.000000  -0.000000   0.000000
   40  N  2  Y    0.000000   0.000000   0.000000  -0.000000   0.449509
   41  N  2  Z   -0.001570   0.002915  -0.230148  -0.208615   0.000000
   42  N  2  X    0.000000   0.000000   0.000000  -0.000000   0.000000
   43  N  2  Y    0.000000   0.000000   0.000000  -0.000000   0.224473
   44  N  2  Z    0.004005  -0.052995  -0.027291   0.015928   0.000000
   45  N  2 XX    0.000035   0.000898  -0.012115  -0.008772   0.000000
   46  N  2 YY    0.000035   0.000898  -0.012115  -0.008772   0.000000
   47  N  2 ZZ   -0.000071  -0.001795   0.024230   0.017545   0.000000
   48  N  2 XY    0.000000   0.000000   0.000000  -0.000000   0.000000
   49  N  2 XZ    0.000000   0.000000   0.000000  -0.000000   0.000000
   50  N  2 YZ    0.000000   0.000000   0.000000  -0.000000  -0.036573
   51  N  2  S   -0.000124   0.079208   0.002010  -0.336417   0.000000
   52  N  2  X    0.000000   0.000000   0.000000  -0.000000   0.000000
   53  N  2  Y    0.000000   0.000000   0.000000  -0.000000   0.018310
   54  N  2  Z   -0.001639  -0.018740   0.045097   0.059428   0.000000
   55  N  2 XX    0.001641  -0.006072   0.004152   0.010367   0.000000
   56  N  2 YY    0.001641  -0.006072   0.004152   0.010367   0.000000
   57  N  2 ZZ   -0.003281   0.012144  -0.008304  -0.020733   0.000000
   58  N  2 XY    0.000000   0.000000   0.000000  -0.000000   0.000000
   59  N  2 XZ    0.000000   0.000000   0.000000  -0.000000   0.000000
   60  N  2 YZ    0.000000   0.000000   0.000000  -0.000000  -0.011090
   61  N  2  S    0.000103  -0.003845  -0.003059   0.002908   0.000000
   62  N  2  X    0.000000   0.000000   0.000000  -0.000000   0.000000
   63  N  2  Y    0.000000   0.000000   0.000000  -0.000000  -0.001278
   64  N  2  Z   -0.001662   0.001204   0.021981  -0.001128   0.000000
   65  N  2 XX   -0.000469  -0.000748   0.007551   0.002627   0.000000
   66  N  2 YY   -0.000469  -0.000748   0.007551   0.002627   0.000000
   67  N  2 ZZ    0.000937   0.001497  -0.015102  -0.005254   0.000000
   68  N  2 XY    0.000000   0.000000   0.000000  -0.000000   0.000000
   69  N  2 XZ    0.000000   0.000000   0.000000  -0.000000   0.000000
   70  N  2 YZ    0.000000   0.000000   0.000000  -0.000000  -0.002322

                      6          7          8          9         10
                   -0.4706    -0.4354    -0.0336    -0.0336    -0.0003
                     B3U        AG         B3G        B2G        AG  
    1  N  1  S    0.000000   0.007605  -0.000000  -0.000000  -0.003057
    2  N  1  S    0.000000  -0.106439  -0.000000  -0.000000  -0.050721
    3  N  1  S    0.000000  -0.251278  -0.000000  -0.000000  -0.133518
    4  N  1  X    0.449509   0.000000  -0.000000   0.476304   0.000000
    5  N  1  Y    0.000000   0.000000   0.476304  -0.000000   0.000000
    6  N  1  Z    0.000000   0.454804  -0.000000  -0.000000   0.057582
    7  N  1  X    0.224473   0.000000  -0.000000   0.446903   0.000000
    8  N  1  Y    0.000000   0.000000   0.446903  -0.000000   0.000000
    9  N  1  Z    0.000000   0.176276  -0.000000  -0.000000   0.041528
   10  N  1 XX    0.000000  -0.010878  -0.000000  -0.000000   0.000816
   11  N  1 YY    0.000000  -0.010878  -0.000000  -0.000000   0.000816
   12  N  1 ZZ    0.000000   0.021755  -0.000000  -0.000000  -0.001633
   13  N  1 XY    0.000000   0.000000  -0.000000  -0.000000   0.000000
   14  N  1 XZ    0.036573   0.000000  -0.000000  -0.017139   0.000000
   15  N  1 YZ    0.000000   0.000000  -0.017139  -0.000000   0.000000
   16  N  1  S    0.000000  -0.061386  -0.000000  -0.000000  -0.044632
   17  N  1  X    0.018310   0.000000  -0.000000   0.656658   0.000000
   18  N  1  Y    0.000000   0.000000   0.656666  -0.000000   0.000000
   19  N  1  Z    0.000000  -0.033977  -0.000000  -0.000000   0.083527
   20  N  1 XX    0.000000   0.005669  -0.000000  -0.000000   0.000959
   21  N  1 YY    0.000000   0.005669  -0.000000  -0.000000   0.000959
   22  N  1 ZZ    0.000000  -0.011338  -0.000000  -0.000000  -0.001918
   23  N  1 XY    0.000000   0.000000  -0.000000  -0.000000   0.000000
   24  N  1 XZ    0.011090   0.000000  -0.000000  -0.009541   0.000000
   25  N  1 YZ    0.000000   0.000000  -0.009541  -0.000000   0.000000
   26  N  1  S    0.000000  -0.001893  -0.000000  -0.000000   0.536801
   27  N  1  X   -0.001278   0.000000  -0.000000   0.293381   0.000000
   28  N  1  Y    0.000000   0.000000   0.293389  -0.000000   0.000000
   29  N  1  Z    0.000000  -0.027878  -0.000000  -0.000000   0.065998
   30  N  1 XX    0.000000   0.009006  -0.000000  -0.000000  -0.007125
   31  N  1 YY    0.000000   0.009006  -0.000000  -0.000000  -0.007125
   32  N  1 ZZ    0.000000  -0.018012  -0.000000  -0.000000   0.014249
   33  N  1 XY    0.000000   0.000000  -0.000000  -0.000000   0.000000
   34  N  1 XZ    0.002322   0.000000  -0.000000   0.075030   0.000000
   35  N  1 YZ    0.000000   0.000000   0.075032  -0.000000   0.000000
   36  N  2  S    0.000000   0.007605  -0.000000  -0.000000  -0.003057
   37  N  2  S    0.000000  -0.106439  -0.000000  -0.000000  -0.050721
   38  N  2  S    0.000000  -0.251278  -0.000000  -0.000000  -0.133518
   39  N  2  X    0.449509   0.000000  -0.000000  -0.476304   0.000000
   40  N  2  Y    0.000000   0.000000  -0.476304  -0.000000   0.000000
   41  N  2  Z    0.000000  -0.454804  -0.000000  -0.000000  -0.057582
   42  N  2  X    0.224473   0.000000  -0.000000  -0.446903   0.000000
   43  N  2  Y    0.000000   0.000000  -0.446903  -0.000000   0.000000
   44  N  2  Z    0.000000  -0.176276  -0.000000  -0.000000  -0.041528
   45  N  2 XX    0.000000  -0.010878  -0.000000  -0.000000   0.000816
   46  N  2 YY    0.000000  -0.010878  -0.000000  -0.000000   0.000816
   47  N  2 ZZ    0.000000   0.021755  -0.000000  -0.000000  -0.001633
   48  N  2 XY    0.000000   0.000000  -0.000000  -0.000000   0.000000
   49  N  2 XZ   -0.036573   0.000000  -0.000000  -0.017139   0.000000
   50  N  2 YZ    0.000000   0.000000  -0.017139  -0.000000   0.000000
   51  N  2  S    0.000000  -0.061386  -0.000000  -0.000000  -0.044632
   52  N  2  X    0.018310   0.000000  -0.000000  -0.656658   0.000000
   53  N  2  Y    0.000000   0.000000  -0.656666  -0.000000   0.000000
   54  N  2  Z    0.000000   0.033977  -0.000000  -0.000000  -0.083527
   55  N  2 XX    0.000000   0.005669  -0.000000  -0.000000   0.000959
   56  N  2 YY    0.000000   0.005669  -0.000000  -0.000000   0.000959
   57  N  2 ZZ    0.000000  -0.011338  -0.000000  -0.000000  -0.001918
   58  N  2 XY    0.000000   0.000000  -0.000000  -0.000000   0.000000
   59  N  2 XZ   -0.011090   0.000000  -0.000000  -0.009541   0.000000
   60  N  2 YZ    0.000000   0.000000  -0.009541  -0.000000   0.000000
   61  N  2  S    0.000000  -0.001893  -0.000000  -0.000000   0.536801
   62  N  2  X   -0.001278   0.000000  -0.000000  -0.293381   0.000000
   63  N  2  Y    0.000000   0.000000  -0.293389  -0.000000   0.000000
   64  N  2  Z    0.000000   0.027878  -0.000000  -0.000000  -0.065998
   65  N  2 XX    0.000000   0.009006  -0.000000  -0.000000  -0.007125
   66  N  2 YY    0.000000   0.009006  -0.000000  -0.000000  -0.007125
   67  N  2 ZZ    0.000000  -0.018012  -0.000000  -0.000000   0.014249
   68  N  2 XY    0.000000   0.000000  -0.000000  -0.000000   0.000000
   69  N  2 XZ   -0.002322   0.000000  -0.000000   0.075030   0.000000
   70  N  2 YZ    0.000000   0.000000   0.075032  -0.000000   0.000000

                     11         12         13         14         15
                    0.0116     0.0258     0.0258     0.0459     0.0484
                     B1U        B2U        B3U        AG         B1U 
    1  N  1  S    0.001922   0.000000   0.000000  -0.004169   0.010434
    2  N  1  S   -0.020434   0.000000   0.000000  -0.029248   0.067641
    3  N  1  S   -0.307787   0.000000   0.000000  -0.076066  -0.281798
    4  N  1  X   -0.000000   0.000000  -0.067365  -0.000000   0.000000
    5  N  1  Y   -0.000000  -0.067365   0.000000  -0.000000   0.000000
    6  N  1  Z    0.010990   0.000000   0.000000   0.006667  -0.024395
    7  N  1  X   -0.000000   0.000000  -0.019055  -0.000000   0.000000
    8  N  1  Y   -0.000000  -0.019055   0.000000  -0.000000   0.000000
    9  N  1  Z   -0.173054   0.000000   0.000000  -0.001905  -0.310746
   10  N  1 XX   -0.001028   0.000000   0.000000   0.003283   0.002352
   11  N  1 YY   -0.001028   0.000000   0.000000   0.003283   0.002352
   12  N  1 ZZ    0.002055   0.000000   0.000000  -0.006567  -0.004703
   13  N  1 XY   -0.000000   0.000000   0.000000  -0.000000   0.000000
   14  N  1 XZ   -0.000000   0.000000  -0.006839  -0.000000   0.000000
   15  N  1 YZ   -0.000000  -0.006839   0.000000  -0.000000   0.000000
   16  N  1  S   -3.212793   0.000000   0.000000  -1.094724  -6.218131
   17  N  1  X   -0.000000   0.000000  -0.058401  -0.000000   0.000000
   18  N  1  Y   -0.000000  -0.058401   0.000000  -0.000000   0.000000
   19  N  1  Z   -1.004885   0.000000   0.000000   1.209433  -1.887909
   20  N  1 XX    0.020584   0.000000   0.000000  -0.006910   0.040276
   21  N  1 YY    0.020584   0.000000   0.000000  -0.006910   0.040276
   22  N  1 ZZ   -0.041167   0.000000   0.000000   0.013819  -0.080553
   23  N  1 XY   -0.000000   0.000000   0.000000  -0.000000   0.000000
   24  N  1 XZ   -0.000000   0.000000  -0.009646  -0.000000   0.000000
   25  N  1 YZ   -0.000000  -0.009646   0.000000  -0.000000   0.000000
   26  N  1  S    7.565720   0.000000   0.000000   0.193458   9.543111
   27  N  1  X   -0.000000   0.000000   0.545857  -0.000000   0.000000
   28  N  1  Y   -0.000000   0.545857   0.000000  -0.000000   0.000000
   29  N  1  Z    0.471536   0.000000   0.000000   4.439978   1.514950
   30  N  1 XX    0.048192   0.000000   0.000000  -0.336082   0.114855
   31  N  1 YY    0.048192   0.000000   0.000000  -0.336082   0.114855
   32  N  1 ZZ   -0.096383   0.000000   0.000000   0.672164  -0.229710
   33  N  1 XY   -0.000000   0.000000   0.000000  -0.000000   0.000000
   34  N  1 XZ   -0.000000   0.000000   0.012137  -0.000000   0.000000
   35  N  1 YZ   -0.000000   0.012138   0.000000  -0.000000   0.000000
   36  N  2  S   -0.001922   0.000000   0.000000  -0.004169  -0.010434
   37  N  2  S    0.020434   0.000000   0.000000  -0.029248  -0.067641
   38  N  2  S    0.307787   0.000000   0.000000  -0.076066   0.281798
   39  N  2  X   -0.000000   0.000000  -0.067365  -0.000000   0.000000
   40  N  2  Y   -0.000000  -0.067365   0.000000  -0.000000   0.000000
   41  N  2  Z    0.010990   0.000000   0.000000  -0.006667  -0.024395
   42  N  2  X   -0.000000   0.000000  -0.019055  -0.000000   0.000000
   43  N  2  Y   -0.000000  -0.019055   0.000000  -0.000000   0.000000
   44  N  2  Z   -0.173054   0.000000   0.000000   0.001905  -0.310746
   45  N  2 XX    0.001028   0.000000   0.000000   0.003283  -0.002352
   46  N  2 YY    0.001028   0.000000   0.000000   0.003283  -0.002352
   47  N  2 ZZ   -0.002055   0.000000   0.000000  -0.006567   0.004703
   48  N  2 XY   -0.000000   0.000000   0.000000  -0.000000   0.000000
   49  N  2 XZ   -0.000000   0.000000   0.006839  -0.000000   0.000000
   50  N  2 YZ   -0.000000   0.006839   0.000000  -0.000000   0.000000
   51  N  2  S    3.212793   0.000000   0.000000  -1.094724   6.218131
   52  N  2  X   -0.000000   0.000000  -0.058401  -0.000000   0.000000
   53  N  2  Y   -0.000000  -0.058401   0.000000  -0.000000   0.000000
   54  N  2  Z   -1.004885   0.000000   0.000000  -1.209433  -1.887909
   55  N  2 XX   -0.020584   0.000000   0.000000  -0.006910  -0.040276
   56  N  2 YY   -0.020584   0.000000   0.000000  -0.006910  -0.040276
   57  N  2 ZZ    0.041167   0.000000   0.000000   0.013819   0.080553
   58  N  2 XY   -0.000000   0.000000   0.000000  -0.000000   0.000000
   59  N  2 XZ   -0.000000   0.000000   0.009646  -0.000000   0.000000
   60  N  2 YZ   -0.000000   0.009646   0.000000  -0.000000   0.000000
   61  N  2  S   -7.565720   0.000000   0.000000   0.193458  -9.543111
   62  N  2  X   -0.000000   0.000000   0.545857  -0.000000   0.000000
   63  N  2  Y   -0.000000   0.545857   0.000000  -0.000000   0.000000
   64  N  2  Z    0.471536   0.000000   0.000000  -4.439978   1.514950
   65  N  2 XX   -0.048192   0.000000   0.000000  -0.336082  -0.114855
   66  N  2 YY   -0.048192   0.000000   0.000000  -0.336082  -0.114855
   67  N  2 ZZ    0.096383   0.000000   0.000000   0.672164   0.229710
   68  N  2 XY   -0.000000   0.000000   0.000000  -0.000000   0.000000
   69  N  2 XZ   -0.000000   0.000000  -0.012137  -0.000000   0.000000
   70  N  2 YZ   -0.000000  -0.012138   0.000000  -0.000000   0.000000

                     16         17         18         19         20
                    0.0495     0.0495     0.0951     0.0955     0.0955
                     B3G        B2G        AG         B1G        AG  
    1  N  1  S   -0.000000  -0.000000  -0.003668  -0.000000   0.000000
    2  N  1  S   -0.000000  -0.000000   0.080752  -0.000000  -0.000000
    3  N  1  S   -0.000000  -0.000000   0.288252  -0.000000  -0.000000
    4  N  1  X   -0.000000  -0.081896   0.000000  -0.000000   0.000000
    5  N  1  Y   -0.081896  -0.000000   0.000000  -0.000000   0.000000
    6  N  1  Z   -0.000000  -0.000000  -0.080044  -0.000000   0.000000
    7  N  1  X   -0.000000  -0.101421   0.000000  -0.000000   0.000000
    8  N  1  Y   -0.101422  -0.000000   0.000000  -0.000000   0.000000
    9  N  1  Z   -0.000000  -0.000000  -0.159874  -0.000000   0.000000
   10  N  1 XX   -0.000000  -0.000000   0.001271  -0.000000  -0.009070
   11  N  1 YY   -0.000000  -0.000000   0.001271  -0.000000   0.009070
   12  N  1 ZZ   -0.000000  -0.000000  -0.002542  -0.000000   0.000000
   13  N  1 XY   -0.000000  -0.000000   0.000000   0.010473   0.000000
   14  N  1 XZ   -0.000000  -0.000529   0.000000  -0.000000   0.000000
   15  N  1 YZ   -0.000530  -0.000000   0.000000  -0.000000   0.000000
   16  N  1  S   -0.000000  -0.000000  -2.443259  -0.000000   0.000001
   17  N  1  X   -0.000000   1.504076   0.000000  -0.000000   0.000000
   18  N  1  Y    1.504117  -0.000000   0.000000  -0.000000   0.000000
   19  N  1  Z   -0.000000  -0.000000   2.850806  -0.000000  -0.000001
   20  N  1 XX   -0.000000  -0.000000  -0.043583  -0.000000  -0.016297
   21  N  1 YY   -0.000000  -0.000000  -0.043583  -0.000000   0.016298
   22  N  1 ZZ   -0.000000  -0.000000   0.087165  -0.000000  -0.000000
   23  N  1 XY   -0.000000  -0.000000   0.000000   0.018813   0.000000
   24  N  1 XZ   -0.000000   0.016523   0.000000  -0.000000   0.000000
   25  N  1 YZ    0.016524  -0.000000   0.000000  -0.000000   0.000000
   26  N  1  S   -0.000000  -0.000000   0.839089  -0.000000  -0.000000
   27  N  1  X   -0.000000   5.773878   0.000000  -0.000000   0.000000
   28  N  1  Y    5.773912  -0.000000   0.000000  -0.000000   0.000000
   29  N  1  Z   -0.000000  -0.000000   3.940324  -0.000000  -0.000001
   30  N  1 XX   -0.000000  -0.000000  -0.698467  -0.000000  -0.436600
   31  N  1 YY   -0.000000  -0.000000  -0.698467  -0.000000   0.436600
   32  N  1 ZZ   -0.000000  -0.000000   1.396934  -0.000000  -0.000001
   33  N  1 XY   -0.000000  -0.000000   0.000000   0.504144   0.000000
   34  N  1 XZ   -0.000000   0.770761   0.000000  -0.000000   0.000000
   35  N  1 YZ    0.770776  -0.000000   0.000000  -0.000000   0.000000
   36  N  2  S   -0.000000  -0.000000  -0.003668  -0.000000   0.000000
   37  N  2  S   -0.000000  -0.000000   0.080752  -0.000000  -0.000000
   38  N  2  S   -0.000000  -0.000000   0.288252  -0.000000  -0.000000
   39  N  2  X   -0.000000   0.081896   0.000000  -0.000000   0.000000
   40  N  2  Y    0.081896  -0.000000   0.000000  -0.000000   0.000000
   41  N  2  Z   -0.000000  -0.000000   0.080044  -0.000000  -0.000000
   42  N  2  X   -0.000000   0.101421   0.000000  -0.000000   0.000000
   43  N  2  Y    0.101422  -0.000000   0.000000  -0.000000   0.000000
   44  N  2  Z   -0.000000  -0.000000   0.159874  -0.000000  -0.000000
   45  N  2 XX   -0.000000  -0.000000   0.001271  -0.000000  -0.009070
   46  N  2 YY   -0.000000  -0.000000   0.001271  -0.000000   0.009070
   47  N  2 ZZ   -0.000000  -0.000000  -0.002542  -0.000000   0.000000
   48  N  2 XY   -0.000000  -0.000000   0.000000   0.010473   0.000000
   49  N  2 XZ   -0.000000  -0.000529   0.000000  -0.000000   0.000000
   50  N  2 YZ   -0.000530  -0.000000   0.000000  -0.000000   0.000000
   51  N  2  S   -0.000000  -0.000000  -2.443259  -0.000000   0.000001
   52  N  2  X   -0.000000  -1.504076   0.000000  -0.000000   0.000000
   53  N  2  Y   -1.504117  -0.000000   0.000000  -0.000000   0.000000
   54  N  2  Z   -0.000000  -0.000000  -2.850806  -0.000000   0.000001
   55  N  2 XX   -0.000000  -0.000000  -0.043583  -0.000000  -0.016297
   56  N  2 YY   -0.000000  -0.000000  -0.043583  -0.000000   0.016298
   57  N  2 ZZ   -0.000000  -0.000000   0.087165  -0.000000  -0.000000
   58  N  2 XY   -0.000000  -0.000000   0.000000   0.018813   0.000000
   59  N  2 XZ   -0.000000   0.016523   0.000000  -0.000000   0.000000
   60  N  2 YZ    0.016524  -0.000000   0.000000  -0.000000   0.000000
   61  N  2  S   -0.000000  -0.000000   0.839089  -0.000000  -0.000000
   62  N  2  X   -0.000000  -5.773878   0.000000  -0.000000   0.000000
   63  N  2  Y   -5.773912  -0.000000   0.000000  -0.000000   0.000000
   64  N  2  Z   -0.000000  -0.000000  -3.940324  -0.000000   0.000001
   65  N  2 XX   -0.000000  -0.000000  -0.698467  -0.000000  -0.436600
   66  N  2 YY   -0.000000  -0.000000  -0.698467  -0.000000   0.436600
   67  N  2 ZZ   -0.000000  -0.000000   1.396934  -0.000000  -0.000001
   68  N  2 XY   -0.000000  -0.000000   0.000000   0.504144   0.000000
   69  N  2 XZ   -0.000000   0.770761   0.000000  -0.000000   0.000000
   70  N  2 YZ    0.770776  -0.000000   0.000000  -0.000000   0.000000

                     21         22         23         24         25
                    0.1306     0.1409     0.1409     0.1412     0.1414
                     AG         B3G        B2G        B1U        B2U 
    1  N  1  S    0.004651   0.000000   0.000000  -0.019656   0.000000
    2  N  1  S   -0.014165   0.000000   0.000000   0.016599   0.000000
    3  N  1  S   -0.215227   0.000000   0.000000   1.799578   0.000000
    4  N  1  X    0.000000   0.000000   0.154577   0.000000   0.000000
    5  N  1  Y    0.000000   0.154576   0.000000   0.000000  -0.141122
    6  N  1  Z    0.087864   0.000000   0.000000  -0.026801   0.000000
    7  N  1  X    0.000000   0.000000   0.136146   0.000000   0.000000
    8  N  1  Y    0.000000   0.136144   0.000000   0.000000  -0.199230
    9  N  1  Z    0.068496   0.000000   0.000000   1.194424   0.000000
   10  N  1 XX   -0.004733   0.000000   0.000000  -0.002826   0.000000
   11  N  1 YY   -0.004733   0.000000   0.000000  -0.002826   0.000000
   12  N  1 ZZ    0.009466   0.000000   0.000000   0.005651   0.000000
   13  N  1 XY    0.000000   0.000000   0.000000   0.000000   0.000000
   14  N  1 XZ    0.000000   0.000000  -0.009337   0.000000   0.000000
   15  N  1 YZ    0.000000  -0.009337   0.000000   0.000000  -0.019741
   16  N  1  S   -0.785037   0.000000   0.000000  20.076955   0.000000
   17  N  1  X    0.000000   0.000000   4.002436   0.000000   0.000000
   18  N  1  Y    0.000000   4.002507   0.000000   0.000000   1.004221
   19  N  1  Z    0.710059   0.000000   0.000000   5.551000   0.000000
   20  N  1 XX   -0.026920   0.000000   0.000000  -0.134031   0.000000
   21  N  1 YY   -0.026920   0.000000   0.000000  -0.134031   0.000000
   22  N  1 ZZ    0.053840   0.000000   0.000000   0.268062   0.000000
   23  N  1 XY    0.000000   0.000000   0.000000   0.000000   0.000000
   24  N  1 XZ    0.000000   0.000000   0.066041   0.000000   0.000000
   25  N  1 YZ    0.000000   0.066043   0.000000   0.000000   0.003366
   26  N  1  S    0.160540   0.000000   0.000000  -4.555389   0.000000
   27  N  1  X    0.000000   0.000000   6.032403   0.000000   0.000000
   28  N  1  Y    0.000000   6.032417   0.000000   0.000000  -0.590198
   29  N  1  Z    3.667112   0.000000   0.000000  -1.096580   0.000000
   30  N  1 XX   -0.586047   0.000000   0.000000  -0.984195   0.000000
   31  N  1 YY   -0.586047   0.000000   0.000000  -0.984195   0.000000
   32  N  1 ZZ    1.172095   0.000000   0.000000   1.968391   0.000000
   33  N  1 XY    0.000000   0.000000   0.000000   0.000000   0.000000
   34  N  1 XZ    0.000000   0.000000   2.115524   0.000000   0.000000
   35  N  1 YZ    0.000000   2.115543   0.000000   0.000000  -0.481783
   36  N  2  S    0.004651   0.000000   0.000000   0.019656   0.000000
   37  N  2  S   -0.014165   0.000000   0.000000  -0.016599   0.000000
   38  N  2  S   -0.215227   0.000000   0.000000  -1.799578   0.000000
   39  N  2  X    0.000000   0.000000  -0.154577   0.000000   0.000000
   40  N  2  Y    0.000000  -0.154576   0.000000   0.000000  -0.141122
   41  N  2  Z   -0.087864   0.000000   0.000000  -0.026801   0.000000
   42  N  2  X    0.000000   0.000000  -0.136146   0.000000   0.000000
   43  N  2  Y    0.000000  -0.136144   0.000000   0.000000  -0.199230
   44  N  2  Z   -0.068496   0.000000   0.000000   1.194424   0.000000
   45  N  2 XX   -0.004733   0.000000   0.000000   0.002826   0.000000
   46  N  2 YY   -0.004733   0.000000   0.000000   0.002826   0.000000
   47  N  2 ZZ    0.009466   0.000000   0.000000  -0.005651   0.000000
   48  N  2 XY    0.000000   0.000000   0.000000   0.000000   0.000000
   49  N  2 XZ    0.000000   0.000000  -0.009337   0.000000   0.000000
   50  N  2 YZ    0.000000  -0.009337   0.000000   0.000000   0.019741
   51  N  2  S   -0.785037   0.000000   0.000000 -20.076955   0.000000
   52  N  2  X    0.000000   0.000000  -4.002436   0.000000   0.000000
   53  N  2  Y    0.000000  -4.002507   0.000000   0.000000   1.004221
   54  N  2  Z   -0.710059   0.000000   0.000000   5.551000   0.000000
   55  N  2 XX   -0.026920   0.000000   0.000000   0.134031   0.000000
   56  N  2 YY   -0.026920   0.000000   0.000000   0.134031   0.000000
   57  N  2 ZZ    0.053840   0.000000   0.000000  -0.268062   0.000000
   58  N  2 XY    0.000000   0.000000   0.000000   0.000000   0.000000
   59  N  2 XZ    0.000000   0.000000   0.066041   0.000000   0.000000
   60  N  2 YZ    0.000000   0.066043   0.000000   0.000000  -0.003366
   61  N  2  S    0.160540   0.000000   0.000000   4.555389   0.000000
   62  N  2  X    0.000000   0.000000  -6.032403   0.000000   0.000000
   63  N  2  Y    0.000000  -6.032417   0.000000   0.000000  -0.590198
   64  N  2  Z   -3.667112   0.000000   0.000000  -1.096580   0.000000
   65  N  2 XX   -0.586047   0.000000   0.000000   0.984195   0.000000
   66  N  2 YY   -0.586047   0.000000   0.000000   0.984195   0.000000
   67  N  2 ZZ    1.172095   0.000000   0.000000  -1.968391   0.000000
   68  N  2 XY    0.000000   0.000000   0.000000   0.000000   0.000000
   69  N  2 XZ    0.000000   0.000000   2.115524   0.000000   0.000000
   70  N  2 YZ    0.000000   2.115543   0.000000   0.000000   0.481783

                     26         27         28         29         30
                    0.1414     0.1511     0.1511     0.1513     0.1513
                     B3U        AU         B1U        B2U        B3U 
    1  N  1  S    0.000000  -0.000000   0.000000  -0.000000  -0.000000
    2  N  1  S    0.000000  -0.000000   0.000000  -0.000000  -0.000000
    3  N  1  S    0.000000  -0.000000  -0.000000  -0.000000  -0.000000
    4  N  1  X   -0.141122  -0.000000   0.000000  -0.000000  -0.044363
    5  N  1  Y    0.000000  -0.000000   0.000000  -0.044363  -0.000000
    6  N  1  Z    0.000000  -0.000000  -0.000000  -0.000000  -0.000000
    7  N  1  X   -0.199230  -0.000000   0.000000  -0.000000  -0.037049
    8  N  1  Y    0.000000  -0.000000   0.000000  -0.037049  -0.000000
    9  N  1  Z    0.000000  -0.000000  -0.000000  -0.000000  -0.000000
   10  N  1 XX    0.000000  -0.000000  -0.004817  -0.000000  -0.000000
   11  N  1 YY    0.000000  -0.000000   0.004817  -0.000000  -0.000000
   12  N  1 ZZ    0.000000  -0.000000  -0.000000  -0.000000  -0.000000
   13  N  1 XY    0.000000   0.005565   0.000000  -0.000000  -0.000000
   14  N  1 XZ   -0.019741  -0.000000   0.000000  -0.000000   0.000646
   15  N  1 YZ    0.000000  -0.000000   0.000000   0.000646  -0.000000
   16  N  1  S    0.000000  -0.000000   0.000000  -0.000000  -0.000000
   17  N  1  X    1.004221  -0.000000   0.000000  -0.000000  -0.341763
   18  N  1  Y    0.000000  -0.000000   0.000000  -0.341762  -0.000000
   19  N  1  Z    0.000000  -0.000000   0.000000  -0.000000  -0.000000
   20  N  1 XX    0.000000  -0.000000   0.007298  -0.000000  -0.000000
   21  N  1 YY    0.000000  -0.000000  -0.007298  -0.000000  -0.000000
   22  N  1 ZZ    0.000000  -0.000000  -0.000000  -0.000000  -0.000000
   23  N  1 XY    0.000000  -0.008451   0.000000  -0.000000  -0.000000
   24  N  1 XZ    0.003366  -0.000000   0.000000  -0.000000  -0.003635
   25  N  1 YZ    0.000000  -0.000000   0.000000  -0.003635  -0.000000
   26  N  1  S    0.000000  -0.000000  -0.000000  -0.000000  -0.000000
   27  N  1  X   -0.590198  -0.000000   0.000000  -0.000000   0.047516
   28  N  1  Y    0.000000  -0.000000   0.000000   0.047516  -0.000000
   29  N  1  Z    0.000000  -0.000000  -0.000000  -0.000000  -0.000000
   30  N  1 XX    0.000000  -0.000000  -2.135728  -0.000000  -0.000000
   31  N  1 YY    0.000000  -0.000000   2.135728  -0.000000  -0.000000
   32  N  1 ZZ    0.000000  -0.000000  -0.000000  -0.000000  -0.000000
   33  N  1 XY    0.000000   2.466138   0.000000  -0.000000  -0.000000
   34  N  1 XZ   -0.481782  -0.000000   0.000000  -0.000000   1.853521
   35  N  1 YZ    0.000000  -0.000000   0.000000   1.853521  -0.000000
   36  N  2  S    0.000000  -0.000000  -0.000000  -0.000000  -0.000000
   37  N  2  S    0.000000  -0.000000  -0.000000  -0.000000  -0.000000
   38  N  2  S    0.000000  -0.000000   0.000000  -0.000000  -0.000000
   39  N  2  X   -0.141122  -0.000000   0.000000  -0.000000  -0.044363
   40  N  2  Y    0.000000  -0.000000   0.000000  -0.044363  -0.000000
   41  N  2  Z    0.000000  -0.000000  -0.000000  -0.000000  -0.000000
   42  N  2  X   -0.199230  -0.000000   0.000000  -0.000000  -0.037049
   43  N  2  Y    0.000000  -0.000000   0.000000  -0.037049  -0.000000
   44  N  2  Z    0.000000  -0.000000  -0.000000  -0.000000  -0.000000
   45  N  2 XX    0.000000  -0.000000   0.004817  -0.000000  -0.000000
   46  N  2 YY    0.000000  -0.000000  -0.004817  -0.000000  -0.000000
   47  N  2 ZZ    0.000000  -0.000000   0.000000  -0.000000  -0.000000
   48  N  2 XY    0.000000  -0.005565   0.000000  -0.000000  -0.000000
   49  N  2 XZ    0.019741  -0.000000   0.000000  -0.000000  -0.000646
   50  N  2 YZ    0.000000  -0.000000   0.000000  -0.000646  -0.000000
   51  N  2  S    0.000000  -0.000000  -0.000000  -0.000000  -0.000000
   52  N  2  X    1.004221  -0.000000   0.000000  -0.000000  -0.341763
   53  N  2  Y    0.000000  -0.000000   0.000000  -0.341762  -0.000000
   54  N  2  Z    0.000000  -0.000000   0.000000  -0.000000  -0.000000
   55  N  2 XX    0.000000  -0.000000  -0.007298  -0.000000  -0.000000
   56  N  2 YY    0.000000  -0.000000   0.007298  -0.000000  -0.000000
   57  N  2 ZZ    0.000000  -0.000000   0.000000  -0.000000  -0.000000
   58  N  2 XY    0.000000   0.008451   0.000000  -0.000000  -0.000000
   59  N  2 XZ   -0.003366  -0.000000   0.000000  -0.000000   0.003635
   60  N  2 YZ    0.000000  -0.000000   0.000000   0.003635  -0.000000
   61  N  2  S    0.000000  -0.000000   0.000000  -0.000000  -0.000000
   62  N  2  X   -0.590198  -0.000000   0.000000  -0.000000   0.047516
   63  N  2  Y    0.000000  -0.000000   0.000000   0.047516  -0.000000
   64  N  2  Z    0.000000  -0.000000  -0.000000  -0.000000  -0.000000
   65  N  2 XX    0.000000  -0.000000   2.135728  -0.000000  -0.000000
   66  N  2 YY    0.000000  -0.000000  -2.135728  -0.000000  -0.000000
   67  N  2 ZZ    0.000000  -0.000000   0.000000  -0.000000  -0.000000
   68  N  2 XY    0.000000  -2.466138   0.000000  -0.000000  -0.000000
   69  N  2 XZ    0.481782  -0.000000   0.000000  -0.000000  -1.853521
   70  N  2 YZ    0.000000  -0.000000   0.000000  -1.853521  -0.000000

                     31         32         33         34         35
                    0.1575     0.2508     0.3217     0.3217     0.3679
                     B1U        AG         B3G        B2G        B1U 
    1  N  1  S   -0.001364  -0.005946   0.000000   0.000000  -0.074704
    2  N  1  S    0.070466  -0.101074   0.000000   0.000000  -0.235363
    3  N  1  S    0.815970  -0.910512   0.000000   0.000000   3.602112
    4  N  1  X   -0.000000  -0.000000   0.000000  -0.230376  -0.000000
    5  N  1  Y   -0.000000  -0.000000  -0.230375   0.000000  -0.000000
    6  N  1  Z   -0.016105  -0.013316   0.000000   0.000000   0.068494
    7  N  1  X   -0.000000  -0.000000   0.000000  -0.325923  -0.000000
    8  N  1  Y   -0.000000  -0.000000  -0.325923   0.000000  -0.000000
    9  N  1  Z    0.434104   0.135726   0.000000   0.000000   3.184073
   10  N  1 XX    0.007692   0.018626   0.000000   0.000000  -0.015062
   11  N  1 YY    0.007692   0.018626   0.000000   0.000000  -0.015062
   12  N  1 ZZ   -0.015384  -0.037252   0.000000   0.000000   0.030123
   13  N  1 XY   -0.000000  -0.000000   0.000000   0.000000  -0.000000
   14  N  1 XZ   -0.000000  -0.000000   0.000000  -0.014654  -0.000000
   15  N  1 YZ   -0.000000  -0.000000  -0.014654   0.000000  -0.000000
   16  N  1  S   14.096115  -1.612660   0.000000   0.000000  55.687028
   17  N  1  X   -0.000000  -0.000000   0.000000  10.295078  -0.000000
   18  N  1  Y   -0.000000  -0.000000  10.295064   0.000000  -0.000000
   19  N  1  Z    5.183492   5.217217   0.000000   0.000000  14.674627
   20  N  1 XX   -0.053299  -0.078401   0.000000   0.000000  -0.334046
   21  N  1 YY   -0.053299  -0.078401   0.000000   0.000000  -0.334046
   22  N  1 ZZ    0.106597   0.156801   0.000000   0.000000   0.668092
   23  N  1 XY   -0.000000  -0.000000   0.000000   0.000000  -0.000000
   24  N  1 XZ   -0.000000  -0.000000   0.000000   0.099110  -0.000000
   25  N  1 YZ   -0.000000  -0.000000   0.099114   0.000000  -0.000000
   26  N  1  S   -6.294829   0.612646   0.000000   0.000000  -4.701405
   27  N  1  X   -0.000000  -0.000000   0.000000   4.808492  -0.000000
   28  N  1  Y   -0.000000  -0.000000   4.808443   0.000000  -0.000000
   29  N  1  Z   -1.655217   3.550440   0.000000   0.000000  -1.453756
   30  N  1 XX    0.345203  -1.032163   0.000000   0.000000  -0.697867
   31  N  1 YY    0.345203  -1.032163   0.000000   0.000000  -0.697867
   32  N  1 ZZ   -0.690406   2.064327   0.000000   0.000000   1.395734
   33  N  1 XY   -0.000000  -0.000000   0.000000   0.000000  -0.000000
   34  N  1 XZ   -0.000000  -0.000000   0.000000   2.920111  -0.000000
   35  N  1 YZ   -0.000000  -0.000000   2.920099   0.000000  -0.000000
   36  N  2  S    0.001364  -0.005946   0.000000   0.000000   0.074704
   37  N  2  S   -0.070466  -0.101074   0.000000   0.000000   0.235363
   38  N  2  S   -0.815970  -0.910512   0.000000   0.000000  -3.602112
   39  N  2  X   -0.000000  -0.000000   0.000000   0.230376  -0.000000
   40  N  2  Y   -0.000000  -0.000000   0.230375   0.000000  -0.000000
   41  N  2  Z   -0.016105   0.013316   0.000000   0.000000   0.068494
   42  N  2  X   -0.000000  -0.000000   0.000000   0.325923  -0.000000
   43  N  2  Y   -0.000000  -0.000000   0.325923   0.000000  -0.000000
   44  N  2  Z    0.434104  -0.135726   0.000000   0.000000   3.184073
   45  N  2 XX   -0.007692   0.018626   0.000000   0.000000   0.015062
   46  N  2 YY   -0.007692   0.018626   0.000000   0.000000   0.015062
   47  N  2 ZZ    0.015384  -0.037252   0.000000   0.000000  -0.030123
   48  N  2 XY   -0.000000  -0.000000   0.000000   0.000000  -0.000000
   49  N  2 XZ   -0.000000  -0.000000   0.000000  -0.014654  -0.000000
   50  N  2 YZ   -0.000000  -0.000000  -0.014654   0.000000  -0.000000
   51  N  2  S  -14.096115  -1.612660   0.000000   0.000000 -55.687028
   52  N  2  X   -0.000000  -0.000000   0.000000 -10.295078  -0.000000
   53  N  2  Y   -0.000000  -0.000000 -10.295064   0.000000  -0.000000
   54  N  2  Z    5.183492  -5.217217   0.000000   0.000000  14.674627
   55  N  2 XX    0.053299  -0.078401   0.000000   0.000000   0.334046
   56  N  2 YY    0.053299  -0.078401   0.000000   0.000000   0.334046
   57  N  2 ZZ   -0.106597   0.156801   0.000000   0.000000  -0.668092
   58  N  2 XY   -0.000000  -0.000000   0.000000   0.000000  -0.000000
   59  N  2 XZ   -0.000000  -0.000000   0.000000   0.099110  -0.000000
   60  N  2 YZ   -0.000000  -0.000000   0.099114   0.000000  -0.000000
   61  N  2  S    6.294829   0.612646   0.000000   0.000000   4.701405
   62  N  2  X   -0.000000  -0.000000   0.000000  -4.808492  -0.000000
   63  N  2  Y   -0.000000  -0.000000  -4.808443   0.000000  -0.000000
   64  N  2  Z   -1.655217  -3.550440   0.000000   0.000000  -1.453756
   65  N  2 XX   -0.345203  -1.032163   0.000000   0.000000   0.697867
   66  N  2 YY   -0.345203  -1.032163   0.000000   0.000000   0.697867
   67  N  2 ZZ    0.690406   2.064327   0.000000   0.000000  -1.395734
   68  N  2 XY   -0.000000  -0.000000   0.000000   0.000000  -0.000000
   69  N  2 XZ   -0.000000  -0.000000   0.000000   2.920111  -0.000000
   70  N  2 YZ   -0.000000  -0.000000   2.920099   0.000000  -0.000000

                     36         37         38         39         40
                    0.4835     0.4835     0.5494     0.6562     0.6768
                     B1G        AG         B1U        AG         B2U 
    1  N  1  S   -0.000000   0.000000   0.011488  -0.006889   0.000000
    2  N  1  S   -0.000000   0.000000   0.179687   0.014234   0.000000
    3  N  1  S   -0.000000   0.000000   0.535203  -1.328091   0.000000
    4  N  1  X   -0.000000   0.000000   0.000000   0.000000   0.000000
    5  N  1  Y   -0.000000   0.000000   0.000000   0.000000   0.104862
    6  N  1  Z   -0.000000  -0.000000   0.368413   0.241015   0.000000
    7  N  1  X   -0.000000   0.000000   0.000000   0.000000   0.000000
    8  N  1  Y   -0.000000   0.000000   0.000000   0.000000  -0.638007
    9  N  1  Z   -0.000000   0.000000   0.828367  -0.098195   0.000000
   10  N  1 XX   -0.000000   0.015595   0.013502  -0.012631   0.000000
   11  N  1 YY   -0.000000  -0.015595   0.013502  -0.012631   0.000000
   12  N  1 ZZ   -0.000000   0.000000  -0.027005   0.025263   0.000000
   13  N  1 XY    0.018008   0.000000   0.000000   0.000000   0.000000
   14  N  1 XZ   -0.000000   0.000000   0.000000   0.000000   0.000000
   15  N  1 YZ   -0.000000   0.000000   0.000000   0.000000   0.024718
   16  N  1  S   -0.000000   0.000000   1.223197  -0.558782   0.000000
   17  N  1  X   -0.000000   0.000000   0.000000   0.000000   0.000000
   18  N  1  Y   -0.000000   0.000000   0.000000   0.000000   0.475159
   19  N  1  Z   -0.000000  -0.000000  -0.202040   3.968808   0.000000
   20  N  1 XX   -0.000000   0.501140   0.259347  -0.517736   0.000000
   21  N  1 YY   -0.000000  -0.501140   0.259347  -0.517736   0.000000
   22  N  1 ZZ   -0.000000  -0.000000  -0.518694   1.035472   0.000000
   23  N  1 XY    0.578667   0.000000   0.000000   0.000000   0.000000
   24  N  1 XZ   -0.000000   0.000000   0.000000   0.000000   0.000000
   25  N  1 YZ   -0.000000   0.000000   0.000000   0.000000   0.796396
   26  N  1  S   -0.000000  -0.000000   1.008570   0.355178   0.000000
   27  N  1  X   -0.000000   0.000000   0.000000   0.000000   0.000000
   28  N  1  Y   -0.000000   0.000000   0.000000   0.000000  -0.163743
   29  N  1  Z   -0.000000  -0.000000   0.274378   1.403414   0.000000
   30  N  1 XX   -0.000000  -0.166222  -0.188779  -0.532049   0.000000
   31  N  1 YY   -0.000000   0.166222  -0.188779  -0.532049   0.000000
   32  N  1 ZZ   -0.000000  -0.000000   0.377558   1.064098   0.000000
   33  N  1 XY   -0.191932   0.000000   0.000000   0.000000   0.000000
   34  N  1 XZ   -0.000000   0.000000   0.000000   0.000000   0.000000
   35  N  1 YZ   -0.000000   0.000000   0.000000   0.000000  -0.405744
   36  N  2  S   -0.000000   0.000000  -0.011488  -0.006889   0.000000
   37  N  2  S   -0.000000   0.000000  -0.179687   0.014234   0.000000
   38  N  2  S   -0.000000   0.000000  -0.535203  -1.328091   0.000000
   39  N  2  X   -0.000000   0.000000   0.000000   0.000000   0.000000
   40  N  2  Y   -0.000000   0.000000   0.000000   0.000000   0.104862
   41  N  2  Z   -0.000000   0.000000   0.368413  -0.241015   0.000000
   42  N  2  X   -0.000000   0.000000   0.000000   0.000000   0.000000
   43  N  2  Y   -0.000000   0.000000   0.000000   0.000000  -0.638007
   44  N  2  Z   -0.000000   0.000000   0.828367   0.098195   0.000000
   45  N  2 XX   -0.000000   0.015595  -0.013502  -0.012631   0.000000
   46  N  2 YY   -0.000000  -0.015595  -0.013502  -0.012631   0.000000
   47  N  2 ZZ   -0.000000   0.000000   0.027005   0.025263   0.000000
   48  N  2 XY    0.018008   0.000000   0.000000   0.000000   0.000000
   49  N  2 XZ   -0.000000   0.000000   0.000000   0.000000   0.000000
   50  N  2 YZ   -0.000000   0.000000   0.000000   0.000000  -0.024718
   51  N  2  S   -0.000000   0.000000  -1.223197  -0.558782   0.000000
   52  N  2  X   -0.000000   0.000000   0.000000   0.000000   0.000000
   53  N  2  Y   -0.000000   0.000000   0.000000   0.000000   0.475159
   54  N  2  Z   -0.000000   0.000000  -0.202040  -3.968808   0.000000
   55  N  2 XX   -0.000000   0.501140  -0.259347  -0.517736   0.000000
   56  N  2 YY   -0.000000  -0.501140  -0.259347  -0.517736   0.000000
   57  N  2 ZZ   -0.000000  -0.000000   0.518694   1.035472   0.000000
   58  N  2 XY    0.578667   0.000000   0.000000   0.000000   0.000000
   59  N  2 XZ   -0.000000   0.000000   0.000000   0.000000   0.000000
   60  N  2 YZ   -0.000000   0.000000   0.000000   0.000000  -0.796396
   61  N  2  S   -0.000000  -0.000000  -1.008570   0.355178   0.000000
   62  N  2  X   -0.000000   0.000000   0.000000   0.000000   0.000000
   63  N  2  Y   -0.000000   0.000000   0.000000   0.000000  -0.163743
   64  N  2  Z   -0.000000   0.000000   0.274378  -1.403414   0.000000
   65  N  2 XX   -0.000000  -0.166222   0.188779  -0.532049   0.000000
   66  N  2 YY   -0.000000   0.166222   0.188779  -0.532049   0.000000
   67  N  2 ZZ   -0.000000  -0.000000  -0.377558   1.064098   0.000000
   68  N  2 XY   -0.191932   0.000000   0.000000   0.000000   0.000000
   69  N  2 XZ   -0.000000   0.000000   0.000000   0.000000   0.000000
   70  N  2 YZ   -0.000000   0.000000   0.000000   0.000000   0.405744

                     41         42         43         44         45
                    0.6768     0.7366     0.7366     0.8775     0.8775
                     B3U        AU         B1U        B2U        B3U 
    1  N  1  S    0.000000  -0.000000   0.000000   0.000000   0.000000
    2  N  1  S    0.000000  -0.000000   0.000000   0.000000   0.000000
    3  N  1  S    0.000000  -0.000000  -0.000000   0.000000   0.000000
    4  N  1  X    0.104862  -0.000000   0.000000   0.000000  -0.678822
    5  N  1  Y    0.000000  -0.000000   0.000000  -0.678822   0.000000
    6  N  1  Z    0.000000  -0.000000   0.000000   0.000000   0.000000
    7  N  1  X   -0.638007  -0.000000   0.000000   0.000000   0.715359
    8  N  1  Y    0.000000  -0.000000   0.000000   0.715359   0.000000
    9  N  1  Z    0.000000  -0.000000  -0.000000   0.000000   0.000000
   10  N  1 XX    0.000000  -0.000000  -0.012175   0.000000   0.000000
   11  N  1 YY    0.000000  -0.000000   0.012175   0.000000   0.000000
   12  N  1 ZZ    0.000000  -0.000000   0.000000   0.000000   0.000000
   13  N  1 XY    0.000000  -0.014059   0.000000   0.000000   0.000000
   14  N  1 XZ    0.024718  -0.000000   0.000000   0.000000  -0.054806
   15  N  1 YZ    0.000000  -0.000000   0.000000  -0.054806   0.000000
   16  N  1  S    0.000000  -0.000000  -0.000000   0.000000   0.000000
   17  N  1  X    0.475158  -0.000000   0.000000   0.000000  -0.402885
   18  N  1  Y    0.000000  -0.000000   0.000000  -0.402885   0.000000
   19  N  1  Z    0.000000  -0.000000  -0.000000   0.000000   0.000000
   20  N  1 XX    0.000000  -0.000000   1.016036   0.000000   0.000000
   21  N  1 YY    0.000000  -0.000000  -1.016036   0.000000   0.000000
   22  N  1 ZZ    0.000000  -0.000000  -0.000000   0.000000   0.000000
   23  N  1 XY    0.000000   1.173217   0.000000   0.000000   0.000000
   24  N  1 XZ    0.796396  -0.000000   0.000000   0.000000   0.282424
   25  N  1 YZ    0.000000  -0.000000   0.000000   0.282425   0.000000
   26  N  1  S    0.000000  -0.000000   0.000000   0.000000   0.000000
   27  N  1  X   -0.163743  -0.000000   0.000000   0.000000   0.169968
   28  N  1  Y    0.000000  -0.000000   0.000000   0.169968   0.000000
   29  N  1  Z    0.000000  -0.000000   0.000000   0.000000   0.000000
   30  N  1 XX    0.000000  -0.000000  -0.498824   0.000000   0.000000
   31  N  1 YY    0.000000  -0.000000   0.498824   0.000000   0.000000
   32  N  1 ZZ    0.000000  -0.000000  -0.000000   0.000000   0.000000
   33  N  1 XY    0.000000  -0.575944   0.000000   0.000000   0.000000
   34  N  1 XZ   -0.405744  -0.000000   0.000000   0.000000  -0.143724
   35  N  1 YZ    0.000000  -0.000000   0.000000  -0.143724   0.000000
   36  N  2  S    0.000000  -0.000000  -0.000000   0.000000   0.000000
   37  N  2  S    0.000000  -0.000000  -0.000000   0.000000   0.000000
   38  N  2  S    0.000000  -0.000000   0.000000   0.000000   0.000000
   39  N  2  X    0.104862  -0.000000   0.000000   0.000000  -0.678822
   40  N  2  Y    0.000000  -0.000000   0.000000  -0.678822   0.000000
   41  N  2  Z    0.000000  -0.000000   0.000000   0.000000   0.000000
   42  N  2  X   -0.638007  -0.000000   0.000000   0.000000   0.715359
   43  N  2  Y    0.000000  -0.000000   0.000000   0.715359   0.000000
   44  N  2  Z    0.000000  -0.000000  -0.000000   0.000000   0.000000
   45  N  2 XX    0.000000  -0.000000   0.012175   0.000000   0.000000
   46  N  2 YY    0.000000  -0.000000  -0.012175   0.000000   0.000000
   47  N  2 ZZ    0.000000  -0.000000   0.000000   0.000000   0.000000
   48  N  2 XY    0.000000   0.014059   0.000000   0.000000   0.000000
   49  N  2 XZ   -0.024718  -0.000000   0.000000   0.000000   0.054806
   50  N  2 YZ    0.000000  -0.000000   0.000000   0.054806   0.000000
   51  N  2  S    0.000000  -0.000000   0.000000   0.000000   0.000000
   52  N  2  X    0.475158  -0.000000   0.000000   0.000000  -0.402885
   53  N  2  Y    0.000000  -0.000000   0.000000  -0.402885   0.000000
   54  N  2  Z    0.000000  -0.000000  -0.000000   0.000000   0.000000
   55  N  2 XX    0.000000  -0.000000  -1.016036   0.000000   0.000000
   56  N  2 YY    0.000000  -0.000000   1.016036   0.000000   0.000000
   57  N  2 ZZ    0.000000  -0.000000   0.000000   0.000000   0.000000
   58  N  2 XY    0.000000  -1.173217   0.000000   0.000000   0.000000
   59  N  2 XZ   -0.796396  -0.000000   0.000000   0.000000  -0.282424
   60  N  2 YZ    0.000000  -0.000000   0.000000  -0.282425   0.000000
   61  N  2  S    0.000000  -0.000000  -0.000000   0.000000   0.000000
   62  N  2  X   -0.163743  -0.000000   0.000000   0.000000   0.169968
   63  N  2  Y    0.000000  -0.000000   0.000000   0.169968   0.000000
   64  N  2  Z    0.000000  -0.000000   0.000000   0.000000   0.000000
   65  N  2 XX    0.000000  -0.000000   0.498824   0.000000   0.000000
   66  N  2 YY    0.000000  -0.000000  -0.498824   0.000000   0.000000
   67  N  2 ZZ    0.000000  -0.000000   0.000000   0.000000   0.000000
   68  N  2 XY    0.000000   0.575944   0.000000   0.000000   0.000000
   69  N  2 XZ    0.405744  -0.000000   0.000000   0.000000   0.143724
   70  N  2 YZ    0.000000  -0.000000   0.000000   0.143724   0.000000

                     46         47         48         49         50
                    0.8915     0.8915     0.9208     1.0113     1.0555
                     B3G        B2G        B1U        AG         B1U 
    1  N  1  S   -0.000000  -0.000000  -0.150324  -0.181462  -0.050173
    2  N  1  S   -0.000000  -0.000000  -0.012203  -0.538695  -0.202652
    3  N  1  S   -0.000000  -0.000000  19.137997   2.263691  -0.076881
    4  N  1  X   -0.000000   0.379207   0.000000  -0.000000   0.000000
    5  N  1  Y    0.379208  -0.000000   0.000000  -0.000000   0.000000
    6  N  1  Z   -0.000000  -0.000000  -0.049038   0.521406  -0.763097
    7  N  1  X   -0.000000   2.335910   0.000000  -0.000000   0.000000
    8  N  1  Y    2.335910  -0.000000   0.000000  -0.000000   0.000000
    9  N  1  Z   -0.000000  -0.000000  12.622012  -1.414458   0.819844
   10  N  1 XX   -0.000000  -0.000000  -0.019670  -0.002877  -0.121888
   11  N  1 YY   -0.000000  -0.000000  -0.019670  -0.002877  -0.121888
   12  N  1 ZZ   -0.000000  -0.000000   0.039340   0.005755   0.243775
   13  N  1 XY   -0.000000  -0.000000   0.000000  -0.000000   0.000000
   14  N  1 XZ   -0.000000  -0.050122   0.000000  -0.000000   0.000000
   15  N  1 YZ   -0.050122  -0.000000   0.000000  -0.000000   0.000000
   16  N  1  S   -0.000000  -0.000000  51.090379  -0.388694   4.753696
   17  N  1  X   -0.000000   5.783587   0.000000  -0.000000   0.000000
   18  N  1  Y    5.783557  -0.000000   0.000000  -0.000000   0.000000
   19  N  1  Z   -0.000000  -0.000000  12.408883  -2.062905   0.792057
   20  N  1 XX   -0.000000  -0.000000  -1.521080   0.488364   0.272534
   21  N  1 YY   -0.000000  -0.000000  -1.521080   0.488364   0.272534
   22  N  1 ZZ   -0.000000  -0.000000   3.042161  -0.976729  -0.545067
   23  N  1 XY   -0.000000  -0.000000   0.000000  -0.000000   0.000000
   24  N  1 XZ   -0.000000   2.350794   0.000000  -0.000000   0.000000
   25  N  1 YZ    2.350794  -0.000000   0.000000  -0.000000   0.000000
   26  N  1  S   -0.000000  -0.000000  -2.567531  -0.084912   0.510179
   27  N  1  X   -0.000000   1.855616   0.000000  -0.000000   0.000000
   28  N  1  Y    1.855597  -0.000000   0.000000  -0.000000   0.000000
   29  N  1  Z   -0.000000  -0.000000  -0.830161  -1.001220   0.129340
   30  N  1 XX   -0.000000  -0.000000  -0.535586   0.362770  -0.185961
   31  N  1 YY   -0.000000  -0.000000  -0.535586   0.362770  -0.185961
   32  N  1 ZZ   -0.000000  -0.000000   1.071172  -0.725539   0.371921
   33  N  1 XY   -0.000000  -0.000000   0.000000  -0.000000   0.000000
   34  N  1 XZ   -0.000000   1.345902   0.000000  -0.000000   0.000000
   35  N  1 YZ    1.345892  -0.000000   0.000000  -0.000000   0.000000
   36  N  2  S   -0.000000  -0.000000   0.150324  -0.181462   0.050173
   37  N  2  S   -0.000000  -0.000000   0.012203  -0.538695   0.202652
   38  N  2  S   -0.000000  -0.000000 -19.137997   2.263691   0.076881
   39  N  2  X   -0.000000  -0.379207   0.000000  -0.000000   0.000000
   40  N  2  Y   -0.379208  -0.000000   0.000000  -0.000000   0.000000
   41  N  2  Z   -0.000000  -0.000000  -0.049038  -0.521406  -0.763097
   42  N  2  X   -0.000000  -2.335910   0.000000  -0.000000   0.000000
   43  N  2  Y   -2.335910  -0.000000   0.000000  -0.000000   0.000000
   44  N  2  Z   -0.000000  -0.000000  12.622012   1.414458   0.819844
   45  N  2 XX   -0.000000  -0.000000   0.019670  -0.002877   0.121888
   46  N  2 YY   -0.000000  -0.000000   0.019670  -0.002877   0.121888
   47  N  2 ZZ   -0.000000  -0.000000  -0.039340   0.005755  -0.243775
   48  N  2 XY   -0.000000  -0.000000   0.000000  -0.000000   0.000000
   49  N  2 XZ   -0.000000  -0.050122   0.000000  -0.000000   0.000000
   50  N  2 YZ   -0.050122  -0.000000   0.000000  -0.000000   0.000000
   51  N  2  S   -0.000000  -0.000000 -51.090379  -0.388694  -4.753696
   52  N  2  X   -0.000000  -5.783587   0.000000  -0.000000   0.000000
   53  N  2  Y   -5.783557  -0.000000   0.000000  -0.000000   0.000000
   54  N  2  Z   -0.000000  -0.000000  12.408883   2.062905   0.792057
   55  N  2 XX   -0.000000  -0.000000   1.521080   0.488364  -0.272534
   56  N  2 YY   -0.000000  -0.000000   1.521080   0.488364  -0.272534
   57  N  2 ZZ   -0.000000  -0.000000  -3.042161  -0.976729   0.545067
   58  N  2 XY   -0.000000  -0.000000   0.000000  -0.000000   0.000000
   59  N  2 XZ   -0.000000   2.350794   0.000000  -0.000000   0.000000
   60  N  2 YZ    2.350794  -0.000000   0.000000  -0.000000   0.000000
   61  N  2  S   -0.000000  -0.000000   2.567531  -0.084912  -0.510179
   62  N  2  X   -0.000000  -1.855616   0.000000  -0.000000   0.000000
   63  N  2  Y   -1.855597  -0.000000   0.000000  -0.000000   0.000000
   64  N  2  Z   -0.000000  -0.000000  -0.830161   1.001220   0.129340
   65  N  2 XX   -0.000000  -0.000000   0.535586   0.362770   0.185961
   66  N  2 YY   -0.000000  -0.000000   0.535586   0.362770   0.185961
   67  N  2 ZZ   -0.000000  -0.000000  -1.071172  -0.725539  -0.371921
   68  N  2 XY   -0.000000  -0.000000   0.000000  -0.000000   0.000000
   69  N  2 XZ   -0.000000   1.345902   0.000000  -0.000000   0.000000
   70  N  2 YZ    1.345892  -0.000000   0.000000  -0.000000   0.000000

                     51         52         53         54         55
                    1.1833     1.1833     1.6800     1.9442     1.9442
                     B3G        B2G        AG         B2U        B3U 
    1  N  1  S   -0.000000  -0.000000  -0.722555  -0.000000  -0.000000
    2  N  1  S   -0.000000  -0.000000  -1.419873  -0.000000  -0.000000
    3  N  1  S   -0.000000  -0.000000  -0.285887  -0.000000  -0.000000
    4  N  1  X   -0.000000  -0.606355  -0.000000  -0.000000  -0.192987
    5  N  1  Y   -0.606355  -0.000000  -0.000000  -0.192987  -0.000000
    6  N  1  Z   -0.000000  -0.000000  -0.269659  -0.000000  -0.000000
    7  N  1  X   -0.000000   4.894906  -0.000000  -0.000000   0.250069
    8  N  1  Y    4.894906  -0.000000  -0.000000   0.250069  -0.000000
    9  N  1  Z   -0.000000  -0.000000   1.586364  -0.000000  -0.000000
   10  N  1 XX   -0.000000  -0.000000   0.128825  -0.000000  -0.000000
[...]

     ATOMIC MULLIKEN POPULATION IN EACH MOLECULAR ORBITAL

                      1          2          3          4          5

                  2.000000   2.000000   2.000000   2.000000   2.000000

    1             1.000000   1.000000   1.000000   1.000000   1.000000
    2             1.000000   1.000000   1.000000   1.000000   1.000000

                      6          7

                  2.000000   2.000000

    1             1.000000   1.000000
    2             1.000000   1.000000

               ----- POPULATIONS IN EACH AO -----
                             MULLIKEN      LOWDIN
              1  N  1  S      2.01498     1.84571
              2  N  1  S      0.85236     0.62195
              3  N  1  S      0.98895     0.33257
              4  N  1  X      0.62618     0.55260
              5  N  1  Y      0.62618     0.55260
              6  N  1  Z      0.94942     0.87721
              7  N  1  X      0.33424     0.34182
              8  N  1  Y      0.33424     0.34182
              9  N  1  Z      0.09875     0.40378
             10  N  1 XX      0.01720     0.14243
             11  N  1 YY      0.00000     0.14243
             12  N  1 ZZ      0.00000     0.20275
             13  N  1 XY      0.01747     0.00000
             14  N  1 XZ      0.01747     0.02159
             15  N  1 YZ      0.00000     0.02159
             16  N  1  S      0.14767     0.09479
             17  N  1  X      0.01434     0.03852
             18  N  1  Y      0.01434     0.03852
             19  N  1  Z     -0.06261     0.05899
             20  N  1 XX     -0.01044     0.03382
             21  N  1 YY      0.00000     0.03382
             22  N  1 ZZ      0.00000     0.18117
             23  N  1 XY      0.00771     0.00000
             24  N  1 XZ      0.00771     0.04131
             25  N  1 YZ      0.00000     0.04131
             26  N  1  S     -0.00020     0.00701
             27  N  1  X     -0.00041     0.00214
             28  N  1  Y     -0.00041     0.00214
             29  N  1  Z      0.00123     0.00535
             30  N  1 XX      0.00269     0.00036
             31  N  1 YY      0.00000     0.00036
             32  N  1 ZZ      0.00000     0.01551
             33  N  1 XY      0.00047     0.00000
             34  N  1 XZ      0.00047     0.00201
             35  N  1 YZ      0.00000     0.00201
             36  N  2  S      2.01498     1.84571
             37  N  2  S      0.85236     0.62195
             38  N  2  S      0.98895     0.33257
             39  N  2  X      0.62618     0.55260
             40  N  2  Y      0.62618     0.55260
             41  N  2  Z      0.94942     0.87721
             42  N  2  X      0.33424     0.34182
             43  N  2  Y      0.33424     0.34182
             44  N  2  Z      0.09875     0.40378
             45  N  2 XX      0.01720     0.14243
             46  N  2 YY      0.00000     0.14243
             47  N  2 ZZ      0.00000     0.20275
             48  N  2 XY      0.01747     0.00000
             49  N  2 XZ      0.01747     0.02159
             50  N  2 YZ      0.00000     0.02159
             51  N  2  S      0.14767     0.09479
             52  N  2  X      0.01434     0.03852
             53  N  2  Y      0.01434     0.03852
             54  N  2  Z     -0.06261     0.05899
             55  N  2 XX     -0.01044     0.03382
             56  N  2 YY      0.00000     0.03382
             57  N  2 ZZ      0.00000     0.18117
             58  N  2 XY      0.00771     0.00000
             59  N  2 XZ      0.00771     0.04131
             60  N  2 YZ      0.00000     0.04131
             61  N  2  S     -0.00020     0.00701
             62  N  2  X     -0.00041     0.00214
             63  N  2  Y     -0.00041     0.00214
             64  N  2  Z      0.00123     0.00535
             65  N  2 XX      0.00269     0.00036
             66  N  2 YY      0.00000     0.00036
             67  N  2 ZZ      0.00000     0.01551
             68  N  2 XY      0.00047     0.00000
             69  N  2 XZ      0.00047     0.00201
             70  N  2 YZ      0.00000     0.00201

          ----- MULLIKEN ATOMIC OVERLAP POPULATIONS -----
          (OFF-DIAGONAL ELEMENTS NEED TO BE MULTIPLIED BY 2)

             1           2

    1    7.5939740
    2   -0.5939740   7.5939740

          TOTAL MULLIKEN AND LOWDIN ATOMIC POPULATIONS
       ATOM         MULL.POP.    CHARGE          LOW.POP.     CHARGE
    1 N             7.000000    0.000000         7.000000    0.000000
    2 N             7.000000    0.000000         7.000000    0.000000

          MULLIKEN SPHERICAL HARMONIC POPULATIONS
       ATOM           S       P       D      F      G      H      I    TOTAL
    1 N             4.00    2.94    0.06   0.00   0.00   0.00   0.00    7.00
    2 N             4.00    2.94    0.06   0.00   0.00   0.00   0.00    7.00

          -------------------------------
          BOND ORDER AND VALENCE ANALYSIS     BOND ORDER THRESHOLD=0.050
          -------------------------------

                   BOND                       BOND                       BOND
  ATOM PAIR DIST  ORDER      ATOM PAIR DIST  ORDER      ATOM PAIR DIST  ORDER
    1   2  1.098  1.821

                       TOTAL       BONDED        FREE
      ATOM            VALENCE     VALENCE     VALENCE
    1 N                 1.821       1.821       0.000
    2 N                 1.821       1.821       0.000

          ---------------------
          ELECTROSTATIC MOMENTS
          ---------------------

 POINT   1           X           Y           Z (BOHR)    CHARGE
                 0.000000    0.000000    0.000000       -0.00 (A.U.)
         DX          DY          DZ         /D/  (DEBYE)
     0.000000    0.000000    0.000000    0.000000
 ...... END OF PROPERTY EVALUATION ......
 STEP CPU TIME =     0.01 TOTAL CPU TIME =        1.7 (    0.0 MIN)
 TOTAL WALL CLOCK TIME=        1.8 SECONDS, CPU UTILIZATION IS  93.89%

 -----------------------------------------------------------------------
                    TDDFT CALCULATION FOR SCFTYP=RHF 
                          CODED BY MAHITO CHIBA
 NATIONAL INSTITUTE OF ADVANCED INDUSTRIAL SCIENCE AND TECHNOLOGY, JAPAN
 -----------------------------------------------------------------------

 REGENERATING AO INTEGRAL LIST IN C1 SYMMETRY FOR TDDFT ITERATIONS...

          --------------------
          2 ELECTRON INTEGRALS
          --------------------

 THE -PK- OPTION IS OFF, THE INTEGRALS ARE NOT IN SUPERMATRIX FORM.
 STORING   15000 INTEGRALS/RECORD ON DISK, USING 12 BYTES/INTEGRAL.
 TWO ELECTRON INTEGRAL EVALUATION REQUIRES   90696 WORDS OF MEMORY.
 II,JST,KST,LST =  1  1  1  1 NREC =         1 INTLOC =    1
 II,JST,KST,LST =  2  1  1  1 NREC =         1 INTLOC =    2
 II,JST,KST,LST =  3  1  1  1 NREC =         1 INTLOC =    7
 II,JST,KST,LST =  4  1  1  1 NREC =         1 INTLOC =   22
 II,JST,KST,LST =  5  1  1  1 NREC =         1 INTLOC =   67
 II,JST,KST,LST =  6  1  1  1 NREC =         1 INTLOC =  214
 II,JST,KST,LST =  7  1  1  1 NREC =         1 INTLOC = 1189
 II,JST,KST,LST =  8  1  1  1 NREC =         1 INTLOC = 1589
 II,JST,KST,LST =  9  1  1  1 NREC =         1 INTLOC = 2864
 II,JST,KST,LST = 10  1  1  1 NREC =         1 INTLOC = 7967
 II,JST,KST,LST = 11  1  1  1 NREC =         1 INTLOC = 9538
 II,JST,KST,LST = 12  1  1  1 NREC =         1 INTLOC =14065
 II,JST,KST,LST = 13  1  1  1 NREC =         2 INTLOC =14002
 II,JST,KST,LST = 14  1  1  1 NREC =         3 INTLOC = 6048
 II,JST,KST,LST = 15  1  1  1 NREC =         3 INTLOC =13834
 II,JST,KST,LST = 16  1  1  1 NREC =         4 INTLOC = 7420
 II,JST,KST,LST = 17  1  1  1 NREC =         6 INTLOC = 3257
 II,JST,KST,LST = 18  1  1  1 NREC =         8 INTLOC = 5184
 II,JST,KST,LST = 19  1  1  1 NREC =        14 INTLOC = 1049
 II,JST,KST,LST = 20  1  1  1 NREC =        15 INTLOC = 5802
 II,JST,KST,LST = 21  1  1  1 NREC =        19 INTLOC = 4178
 II,JST,KST,LST = 22  1  1  1 NREC =        29 INTLOC = 2503
 II,JST,KST,LST = 23  1  1  1 NREC =        31 INTLOC = 5254
 II,JST,KST,LST = 24  1  1  1 NREC =        37 INTLOC =10417
 TOTAL NUMBER OF NONZERO TWO-ELECTRON INTEGRALS =              783419
         53 INTEGRAL RECORDS WERE STORED ON DISK FILE  8.
  ...... END OF TWO-ELECTRON INTEGRALS .....
 STEP CPU TIME =     0.17 TOTAL CPU TIME =        1.9 (    0.0 MIN)
 TOTAL WALL CLOCK TIME=        2.0 SECONDS, CPU UTILIZATION IS  93.94%
  
 -TDDFT RUNTIME PARAMETERS-
    TRIPLET  = F
    NONEQ    = T
    NSTATE   =                    6
    IROOT    =                    1
    NTRIAL   =                    5
    MAXVEC   =                   50
    ILENG    =                  200
    MAXGRD   =                 9166
    NRAD     =                   24
    NLEB     =                  194
 GAS PHASE COMPUTATION
  
 FOR AN EULER-MACLAURIN QUADRATURE USING  24 RADIAL POINTS:
 SMALLEST GAUSSIAN PRIMITIVE EXPONENT=        0.0100000000 OF TYPE -S-
 ON ATOM NUMBER   1 HAS RADIAL NORMALIZATION=  0.994567
  LARGEST GAUSSIAN PRIMITIVE EXPONENT=     9046.0000000000 OF TYPE -S-
 ON ATOM NUMBER   1 HAS RADIAL NORMALIZATION=  1.013407

          **************************************************
          *                                                *
          * WARNING: QUESTIONABLE SELECTION OF RADIAL GRID *
          *                                                *
          **************************************************

 THIS RUN HAS REQUESTED NRAD=  24 IN $DFT OR $TDDFT
 ATOM=    1 HAS LARGE EXPONENT=          9046.000000000000000
 RECOMMEND NRAD ABOVE  50 FOR ZETA'S ABOVE 1E+4
 RECOMMEND NRAD ABOVE  75 FOR ZETA'S ABOVE 1E+5
 RECOMMEND NRAD ABOVE 125 FOR ZETA'S ABOVE 1E+6
 ATOM=    1 HAS SMALL EXPONENT=             0.010000000000000
 RECOMMEND NRAD ABOVE  75 FOR ZETA'S BELOW 1E-3
 RECOMMEND NRAD ABOVE 100 FOR ZETA'S BELOW 1E-4
 RECOMMEND NRAD ABOVE 125 FOR ZETA'S BELOW 1E-5
  
 MEM1  =      994700 MEM2  =       17399 MEMGRID=      155535
 MEMPCM=           0 MEMEFP=           0
 TOTAL MEMORY REQUIRED FOR TD-DFT ITERATIONS IS     1167635 WORDS.

 INITIAL VECTORS / MXVEC                     6 /                  300
 ITERATION #                     1
    CURRENT VECTORS    1 TO   6 (   6 VECTORS)
    STATE NUMBER   1  ENERGY =    9.503042 EV
    STATE NUMBER   2  ENERGY =    9.503042 EV
    STATE NUMBER   3  ENERGY =    9.613144 EV
    STATE NUMBER   4  ENERGY =    9.798075 EV
    STATE NUMBER   5  ENERGY =   11.187316 EV
    STATE NUMBER   6  ENERGY =   18.016556 EV
    MAX ERROR =  4.664E-01 / 1.000E-07
 ITERATION #                     2
    CURRENT VECTORS    7 TO  18 (  12 VECTORS)
    STATE NUMBER   1  ENERGY =    9.273457 EV
    STATE NUMBER   2  ENERGY =    9.273458 EV
    STATE NUMBER   3  ENERGY =    9.378704 EV
    STATE NUMBER   4  ENERGY =    9.755079 EV
    STATE NUMBER   5  ENERGY =    9.820985 EV
    STATE NUMBER   6  ENERGY =   11.099904 EV
    MAX ERROR =  5.664E-03 / 1.000E-07
 ITERATION #                     3
    CURRENT VECTORS   19 TO  30 (  12 VECTORS)
    STATE NUMBER   1  ENERGY =    9.267743 EV
    STATE NUMBER   2  ENERGY =    9.267743 EV
    STATE NUMBER   3  ENERGY =    9.347876 EV
    STATE NUMBER   4  ENERGY =    9.754970 EV
    STATE NUMBER   5  ENERGY =    9.755044 EV
    STATE NUMBER   6  ENERGY =   11.073378 EV
    MAX ERROR =  1.753E-04 / 1.000E-07
 ITERATION #                     4
    CURRENT VECTORS   31 TO  42 (  12 VECTORS)
    STATE NUMBER   1  ENERGY =    9.266768 EV
    STATE NUMBER   2  ENERGY =    9.266769 EV
    STATE NUMBER   3  ENERGY =    9.347726 EV
    STATE NUMBER   4  ENERGY =    9.754966 EV
    STATE NUMBER   5  ENERGY =    9.754970 EV
    STATE NUMBER   6  ENERGY =   11.069706 EV
    MAX ERROR =  1.290E-05 / 1.000E-07
 ITERATION #                     5
    CURRENT VECTORS   43 TO  52 (  10 VECTORS)
    STATE NUMBER   1  ENERGY =    9.266635 EV
    STATE NUMBER   2  ENERGY =    9.266636 EV
    STATE NUMBER   3  ENERGY =    9.347710 EV
    STATE NUMBER   4  ENERGY =    9.754963 EV
    STATE NUMBER   5  ENERGY =    9.754966 EV
    STATE NUMBER   6  ENERGY =   11.069568 EV
    MAX ERROR =  1.850E-06 / 1.000E-07
 ITERATION #                     6
    CURRENT VECTORS   53 TO  58 (   6 VECTORS)
    STATE NUMBER   1  ENERGY =    9.266617 EV
    STATE NUMBER   2  ENERGY =    9.266617 EV
    STATE NUMBER   3  ENERGY =    9.347710 EV
    STATE NUMBER   4  ENERGY =    9.754963 EV
    STATE NUMBER   5  ENERGY =    9.754966 EV
    STATE NUMBER   6  ENERGY =   11.069557 EV
    MAX ERROR =  2.572E-07 / 1.000E-07
 ITERATION #                     7
    CURRENT VECTORS   59 TO  64 (   6 VECTORS)
    STATE NUMBER   1  ENERGY =    9.266614 EV
    STATE NUMBER   2  ENERGY =    9.266615 EV
    STATE NUMBER   3  ENERGY =    9.347710 EV
    STATE NUMBER   4  ENERGY =    9.754963 EV
    STATE NUMBER   5  ENERGY =    9.754966 EV
    STATE NUMBER   6  ENERGY =   11.069556 EV
    MAX ERROR =  7.508E-08 / 1.000E-07
  
   ---------------------------------  
     R-TDDFT CALCULATION CONVERGED
   ---------------------------------  
 NUMBER OF USED VECTORS / MAX =  64 / 300
 NUMBER OF ITERATIONS   / MAX =   7 / 100
 NUMBER OF SINGLE EXCITATIONS =   399
 NUMBER OF ATOMIC ORBITALS    =  70
 NUMBER OF ELECTRONS          =          14.0015935

          -------------------
          SINGLET EXCITATIONS
          -------------------

 STATE #   1  ENERGY =    9.266614 EV
 OSCILLATOR STRENGTH =    0.000000
 LAMBDA DIAGNOSTIC   =    0.692 (RYDBERG/CHARGE TRANSFER CHARACTER)
 SYMMETRY OF STATE   =    B3G 
                 EXCITATION  DE-EXCITATION
     OCC     VIR  AMPLITUDE      AMPLITUDE
      I       A     X(I->A)        Y(A->I)
     ---     ---   --------       --------
      3       8   -0.049755      -0.016417
      7       8   -0.996748       0.042681
      7      16    0.043606      -0.005748
      7      22    0.036505      -0.006937

 STATE #   2  ENERGY =    9.266615 EV
 OSCILLATOR STRENGTH =    0.000000
 LAMBDA DIAGNOSTIC   =    0.692 (RYDBERG/CHARGE TRANSFER CHARACTER)
 SYMMETRY OF STATE   =    B2G 
                 EXCITATION  DE-EXCITATION
     OCC     VIR  AMPLITUDE      AMPLITUDE
      I       A     X(I->A)        Y(A->I)
     ---     ---   --------       --------
      3       9    0.049755       0.016417
      7       9    0.996748      -0.042681
      7      17   -0.043606       0.005748
      7      23   -0.036505       0.006937

 STATE #   3  ENERGY =    9.347710 EV
 OSCILLATOR STRENGTH =    0.000000
 LAMBDA DIAGNOSTIC   =    0.549 (RYDBERG/CHARGE TRANSFER CHARACTER)
 SYMMETRY OF STATE   =    AU  
                 EXCITATION  DE-EXCITATION
     OCC     VIR  AMPLITUDE      AMPLITUDE
      I       A     X(I->A)        Y(A->I)
     ---     ---   --------       --------
      6       8   -0.703907       0.021629
      5       9    0.703905      -0.021628
      6      16    0.047313      -0.003097
      5      17   -0.047313       0.003158
      6      22    0.042808      -0.004336
      5      23   -0.042809       0.004249

 STATE #   4  ENERGY =    9.754963 EV
 OSCILLATOR STRENGTH =    0.000000
 LAMBDA DIAGNOSTIC   =    0.550 (RYDBERG/CHARGE TRANSFER CHARACTER)
 SYMMETRY OF STATE   =    AU  
                 EXCITATION  DE-EXCITATION
     OCC     VIR  AMPLITUDE      AMPLITUDE
      I       A     X(I->A)        Y(A->I)
     ---     ---   --------       --------
      6       8   -0.704872      -0.005325
      5       9   -0.704874      -0.005326
      6      16    0.039292       0.000674
      5      17    0.039292       0.000628
      6      22    0.032855       0.000984
      5      23    0.032855       0.001061

 STATE #   5  ENERGY =    9.754966 EV
 OSCILLATOR STRENGTH =    0.000000
 LAMBDA DIAGNOSTIC   =    0.873 (RYDBERG/CHARGE TRANSFER CHARACTER)
 SYMMETRY OF STATE   =    B1U 
                 EXCITATION  DE-EXCITATION
     OCC     VIR  AMPLITUDE      AMPLITUDE
      I       A     X(I->A)        Y(A->I)
     ---     ---   --------       --------
      5       8    0.704874       0.005325
      6       9   -0.704874      -0.005325
      5      16   -0.039286      -0.000666
      6      17    0.039286       0.000666
      5      22   -0.032856      -0.001001
      6      23    0.032856       0.001001

 STATE #   6  ENERGY =   11.069556 EV
 OSCILLATOR STRENGTH =    0.000000
 LAMBDA DIAGNOSTIC   =    0.209 (RYDBERG/CHARGE TRANSFER CHARACTER)
 SYMMETRY OF STATE   =    AG  
                 EXCITATION  DE-EXCITATION
     OCC     VIR  AMPLITUDE      AMPLITUDE
      I       A     X(I->A)        Y(A->I)
     ---     ---   --------       --------
      7      10    0.973492       0.001161
      7      14    0.208589       0.016873
      7      18   -0.055755       0.003972
      7      21   -0.044985      -0.010564

                          SUMMARY OF TDDFT RESULTS

   STATE             ENERGY     EXCITATION  TRANSITION DIPOLE, A.U.  OSCILLATOR
   0 ->             HARTREE          EV         X       Y       Z     STRENGTH
   0  AG        -109.4907954102    0.000
   1  B3G       -109.1502535844    9.267     0.0000 -0.0000 -0.0000    0.0000
   2  B2G       -109.1502535686    9.267     0.0000  0.0000  0.0000    0.0000
   3  AU        -109.1472733759    9.348    -0.0000 -0.0000 -0.0000    0.0000
   4  AU        -109.1323070901    9.755     0.0000  0.0000  0.0000    0.0000
   5  B1U       -109.1323070019    9.755     0.0000 -0.0000 -0.0000    0.0000
   6  AG        -109.0839966797   11.070     0.0000  0.0000  0.0000    0.0000
  
 TRANSITION        EXCITATION            TRANSITION DIPOLE, A.U.     OSCILLATOR
                       EV              X       Y       Z       DIP    STRENGTH

  1  ->  2           0.000          0.0000  0.0000 -0.0000   0.0000    0.0000
  1  ->  3           0.081          0.2803  0.0000  0.0000   0.2803    0.0002
  1  ->  4           0.488          0.2518 -0.0000 -0.0000   0.2518    0.0008
  1  ->  5           0.488         -0.0000 -0.2518  0.0000   0.2518    0.0008
  1  ->  6           1.803         -0.0000  0.0000  0.0000   0.0000    0.0000
  2  ->  3           0.081         -0.0000  0.2803 -0.0000   0.2803    0.0002
  2  ->  4           0.488         -0.0000 -0.2518 -0.0000   0.2518    0.0008
  2  ->  5           0.488         -0.2518  0.0000  0.0000   0.2518    0.0008
  2  ->  6           1.803         -0.0000 -0.0000 -0.0000   0.0000    0.0000
  3  ->  4           0.407         -0.0000 -0.0000  0.0000   0.0000    0.0000
  3  ->  5           0.407          0.0000  0.0000  0.0000   0.0000    0.0000
  3  ->  6           1.722         -0.0000  0.0000  0.0000   0.0000    0.0000
  4  ->  5           0.000          0.0000  0.0000 -0.0000   0.0000    0.0000
  4  ->  6           1.315         -0.0000 -0.0000  0.0000   0.0000    0.0000
  5  ->  6           1.315         -0.0000  0.0000 -0.0000   0.0000    0.0000

 SELECTING EXCITED STATE IROOT=   1 AT E=     -109.1502535844
 AS THE STATE OF INTEREST.

 ..... DONE WITH TD-DFT EXCITATION ENERGIES .....
 STEP CPU TIME =     9.92 TOTAL CPU TIME =       11.8 (    0.2 MIN)
 TOTAL WALL CLOCK TIME=       12.0 SECONDS, CPU UTILIZATION IS  98.17%
              1177442  WORDS OF DYNAMIC MEMORY USED
 EXECUTION OF GAMESS TERMINATED NORMALLY Tue Nov 29 02:43:21 2016
 DDI: 263640 bytes (0.3 MB / 0 MWords) used by master data server.

 ----------------------------------------
 CPU timing information for all processes
 ========================================
 0: 11.729 + 0.63 = 11.793
 ----------------------------------------
 ddikick.x: exited gracefully.
unset echo
----- accounting info -----
Files used on the master node compute-3-0 were:
-rw-rw-r-- 1 sarom sarom   73418 Nov 29  2016 .//tddft-n2.dat
-rw-rw-r-- 1 sarom sarom    2971 Nov 29  2016 .//tddft-n2.F05
-rw-rw-r-- 1 sarom sarom 9540848 Nov 29  2016 .//tddft-n2.F08
-rw-rw-r-- 1 sarom sarom 1832320 Nov 29  2016 .//tddft-n2.F10
-rw-rw-r-- 1 sarom sarom  366680 Nov 29  2016 .//tddft-n2.F22
-rw-rw-r-- 1 sarom sarom    2971 Nov 28 17:27 .//tddft-n2.inp
-rw-rw-r-- 1 sarom sarom  114620 Nov 29  2016 .//tddft-n2.log
Tue Nov 29 02:43:24 CST 2016
0.198u 0.081s 0:15.49 1.7%	0+0k 0+144io 0pf+0w
