----- GAMESS execution script 'rungms' -----
This job is running on host compute-3-0
under operating system Linux at Tue Nov 29 02:43:04 CST 2016
Available scratch disk space (Kbyte units) at beginning of the job is
Filesystem            1K-blocks       Used  Available Use% Mounted on
bolt.local:/export/home/sarom
                     9590469632 1553479680 7549821952  18% /home/sarom
Copying input file tddft-co-tammd.inp to your run's scratch directory...
cp tddft-co-tammd.inp .//tddft-co-tammd.F05
unset echo
/home/sarom/gamessGH/ddikick.x /home/sarom/gamessGH/gamess.00.x tddft-co-tammd -ddi 1 1 localhost -scr ./

 Distributed Data Interface kickoff program.
 Initiating 1 compute processes on 1 nodes to run the following command:
 /home/sarom/gamessGH/gamess.00.x tddft-co-tammd 

          ******************************************************
          *         GAMESS VERSION = 18 AUG 2016 (R1)          *
          *             FROM IOWA STATE UNIVERSITY             *
          * M.W.SCHMIDT, K.K.BALDRIDGE, J.A.BOATZ, S.T.ELBERT, *
          *   M.S.GORDON, J.H.JENSEN, S.KOSEKI, N.MATSUNAGA,   *
          *          K.A.NGUYEN, S.J.SU, T.L.WINDUS,           *
          *       TOGETHER WITH M.DUPUIS, J.A.MONTGOMERY       *
          *         J.COMPUT.CHEM.  14, 1347-1363(1993)        *
          **************** 64 BIT LINUX VERSION ****************

  SINCE 1993, STUDENTS AND POSTDOCS WORKING AT IOWA STATE UNIVERSITY
  AND ALSO IN THEIR VARIOUS JOBS AFTER LEAVING ISU HAVE MADE IMPORTANT
  CONTRIBUTIONS TO THE CODE:
     IVANA ADAMOVIC, CHRISTINE AIKENS, YURI ALEXEEV, POOJA ARORA,
     ANDREY ASADCHEV, ROB BELL, PRADIPTA BANDYOPADHYAY, JONATHAN BENTZ,
     BRETT BODE, KURT BRORSEN, CALEB CARLIN, GALINA CHABAN, WEI CHEN,
     CHEOL HO CHOI, PAUL DAY, ALBERT DEFUSCO, NUWAN DESILVA, TIM DUDLEY,
     DMITRI FEDOROV, GRAHAM FLETCHER, MARK FREITAG, KURT GLAESEMANN,
     DAN KEMP, GRANT MERRILL, NORIYUKI MINEZAWA, JONATHAN MULLIN,
     TAKESHI NAGATA, SEAN NEDD, HEATHER NETZLOFF, BOSILJKA NJEGIC, RYAN OLSON,
     MIKE PAK, SPENCER PRUITT, LUKE ROSKOP, JIM SHOEMAKER, LYUDMILA SLIPCHENKO,
     TONY SMITH, SAROM SOK LEANG, JIE SONG, TETSUYA TAKETSUGU, SIMON WEBB,
     PENG XU, SOOHAENG YOO, FEDERICO ZAHARIEV

  ADDITIONAL CODE HAS BEEN PROVIDED BY COLLABORATORS IN OTHER GROUPS:
     IOWA STATE UNIVERSITY:
          JOE IVANIC, AARON WEST, LAIMUTIS BYTAUTAS, KLAUS RUEDENBERG
     UNIVERSITY OF TOKYO: KIMIHIKO HIRAO, TAKAHITO NAKAJIMA,
          TAKAO TSUNEDA, MUNEAKI KAMIYA, SUSUMU YANAGISAWA,
          KIYOSHI YAGI, MAHITO CHIBA, SEIKEN TOKURA, NAOAKI KAWAKAMI
     UNIVERSITY OF AARHUS: FRANK JENSEN
     UNIVERSITY OF IOWA: VISVALDAS KAIRYS, HUI LI
     NATIONAL INST. OF STANDARDS AND TECHNOLOGY: WALT STEVENS, DAVID GARMER
     UNIVERSITY OF PISA: BENEDETTA MENNUCCI, JACOPO TOMASI
     UNIVERSITY OF MEMPHIS: HENRY KURTZ, PRAKASHAN KORAMBATH
     UNIVERSITY OF ALBERTA: TOBY ZENG, MARIUSZ KLOBUKOWSKI
     UNIVERSITY OF NEW ENGLAND: MARK SPACKMAN
     MIE UNIVERSITY: HIROAKI UMEDA
     NAT. INST. OF ADVANCED INDUSTRIAL SCIENCE AND TECHNOLOGY: KAZUO KITAURA
     MICHIGAN STATE UNIVERSITY:
          KAROL KOWALSKI, MARTA WLOCH, JEFFREY GOUR, JESSE LUTZ,
          WEI LI, PIOTR PIECUCH
     UNIVERSITY OF SILESIA: MONIKA MUSIAL, STANISLAW KUCHARSKI
     FACULTES UNIVERSITAIRES NOTRE-DAME DE LA PAIX:
          OLIVIER QUINET, BENOIT CHAMPAGNE
     UNIVERSITY OF CALIFORNIA - SANTA BARBARA: BERNARD KIRTMAN
     INSTITUTE FOR MOLECULAR SCIENCE:
          KAZUYA ISHIMURA, MICHIO KATOUDA, AND SHIGERU NAGASE
     UNIVERSITY OF NOTRE DAME: ANNA POMOGAEVA, DAN CHIPMAN
     KYUSHU UNIVERSITY:
          HARUYUKI NAKANO,
          FENG LONG GU, JACEK KORCHOWIEC, MARCIN MAKOWSKI, AND YURIKO AOKI,
          HIROTOSHI MORI AND EISAKU MIYOSHI
     PENNSYLVANIA STATE UNIVERSITY:
          TZVETELIN IORDANOV, CHET SWALINA, JONATHAN SKONE,
          SHARON HAMMES-SCHIFFER
     WASEDA UNIVERSITY:
          MASATO KOBAYASHI, TOMOKO AKAMA, TSUGUKI TOUMA,
          TAKESHI YOSHIKAWA, YASUHIRO IKABATA, JUNJI SEINO,
          YUYA NAKAJIMA, HIROMI NAKAI
     NANJING UNIVERSITY: SHUHUA LI
     UNIVERSITY OF NEBRASKA:
          PEIFENG SU, DEJUN SI, NANDUN THELLAMUREGE, YALI WANG, HUI LI
     UNIVERSITY OF ZURICH: ROBERTO PEVERATI, KIM BALDRIDGE
     N. COPERNICUS UNIVERSITY AND JACKSON STATE UNIVERSITY:
          MARIA BARYSZ
     UNIVERSITY OF COPENHAGEN: Jimmy Kromann, CASPER STEINMANN
     TOKYO INSTITUTE OF TECHNOLOGY: HIROYA NAKATA
     NAGOYA UNIVERSITY: YOSHIO NISHIMOTO, STEPHAN IRLE
     MOSCOW STATE UNIVERSITY: VLADIMIR MIRONOV

 EXECUTION OF GAMESS BEGUN Tue Nov 29 02:43:04 2016

            ECHO OF THE FIRST FEW INPUT CARDS -
 INPUT CARD>!    Tamm/Dancoff gradient test, from Federico, in 2010.                        
 INPUT CARD>!                                                                               
 INPUT CARD>!     FINAL R-PBE0 E= -113.1873774650, 17 iters                                 
 INPUT CARD>!  STATE        ENERGY     EXCITATION  TRANSITION DIPOLE, A.U.  OSCILLATOR      
 INPUT CARD>!              HARTREE          EV         X       Y       Z     STRENGTH       
 INPUT CARD>!  0  A1   -113.1873774650     .000                                             
 INPUT CARD>!  1  E    -112.8754647808    8.488      .6902   .2027   .0000     .108         
 INPUT CARD>!  2  E    -112.8754647808    8.488     -.2027   .6902   .0000     .108         
 INPUT CARD>!  3  A1   -112.8414016402    9.414      .0000   .0000   .0000     .000         
 INPUT CARD>!    state 1 has RMS gradient= 0.084169928                                      
 INPUT CARD>!                                                                               
 INPUT CARD>!   this run takes 7 seconds using 2.66 GHz Cloverton ( 3 Apr 2015)             
 INPUT CARD>!   results have not changed since 2010.                                        
 INPUT CARD>!                                                                               
 INPUT CARD> $contrl scftyp=rhf dfttyp=pbe0 tddft=excite runtyp=gradient $end               
 INPUT CARD> $system timlim=10 mwords=7 $end                                                
 INPUT CARD> $tddft  nstate=3 mult=1 iroot=1 tammd=.t. $end                                 
 INPUT CARD> $guess  guess=huckel $end                                                      
 INPUT CARD> $basis  gbasis=N31 ngauss=6 diffsp=.T. ndfunc=1 $end                           
 INPUT CARD> $data                                                                          
 INPUT CARD>CO...excitation to the three lowest singlet states                              
 INPUT CARD>Cnv 4                                                                           
 INPUT CARD>                                                                                
 INPUT CARD>C    6.0   0.0   0.0   0.0                                                      
 INPUT CARD>O    8.0   0.0   0.0   1.1497297                                                
 INPUT CARD> $end                                                                           
    7000000 WORDS OF MEMORY AVAILABLE

     BASIS OPTIONS
     -------------
     GBASIS=N31          IGAUSS=       6      POLAR=POPN31  
     NDFUNC=       1     NFFUNC=       0     DIFFSP=       T
     NPFUNC=       0      DIFFS=       F     BASNAM=        


     RUN TITLE
     ---------
 CO...excitation to the three lowest singlet states                              

 THE POINT GROUP OF THE MOLECULE IS CNV     
 THE ORDER OF THE PRINCIPAL AXIS IS     4

 ATOM      ATOMIC                      COORDINATES (BOHR)
           CHARGE         X                   Y                   Z
 C           6.0     0.0000000000        0.0000000000        0.0000000000
 O           8.0     0.0000000000        0.0000000000        2.1726740929

          INTERNUCLEAR DISTANCES (ANGS.)
          ------------------------------

                1 C          2 O     

   1 C       0.0000000    1.1497297 *
   2 O       1.1497297 *  0.0000000  

  * ... LESS THAN  3.000


     ATOMIC BASIS SET
     ----------------
 THE CONTRACTED PRIMITIVE FUNCTIONS HAVE BEEN UNNORMALIZED
 THE CONTRACTED BASIS FUNCTIONS ARE NOW NORMALIZED TO UNITY

  SHELL TYPE  PRIMITIVE        EXPONENT          CONTRACTION COEFFICIENT(S)

 C         

      1   S       1          3047.5248800    0.001834737132
      1   S       2           457.3695180    0.014037322813
      1   S       3           103.9486850    0.068842622264
      1   S       4            29.2101553    0.232184443216
      1   S       5             9.2866630    0.467941348435
      1   S       6             3.1639270    0.362311985337

      2   L       7             7.8682723   -0.119332419775    0.068999066591
      2   L       8             1.8812885   -0.160854151696    0.316423960957
      2   L       9             0.5442493    1.143456437840    0.744308290898

      3   L      10             0.1687145    1.000000000000    1.000000000000

      4   L      11             0.0438000    1.000000000000    1.000000000000

      5   D      12             0.8000000    1.000000000000

 O         

      6   S      13          5484.6716600    0.001831074430
      6   S      14           825.2349460    0.013950172200
      6   S      15           188.0469580    0.068445078098
      6   S      16            52.9645000    0.232714335992
      6   S      17            16.8975704    0.470192897984
      6   S      18             5.7996353    0.358520852987

      7   L      19            15.5396162   -0.110777549525    0.070874268231
      7   L      20             3.5999336   -0.148026262701    0.339752839147
      7   L      21             1.0137618    1.130767015354    0.727158577316

      8   L      22             0.2700058    1.000000000000    1.000000000000

      9   L      23             0.0845000    1.000000000000    1.000000000000

     10   D      24             0.8000000    1.000000000000

 TOTAL NUMBER OF BASIS SET SHELLS             =   10
 NUMBER OF CARTESIAN GAUSSIAN BASIS FUNCTIONS =   38
 NUMBER OF ELECTRONS                          =   14
 CHARGE OF MOLECULE                           =    0
 SPIN MULTIPLICITY                            =    1
 NUMBER OF OCCUPIED ORBITALS (ALPHA)          =    7
 NUMBER OF OCCUPIED ORBITALS (BETA )          =    7
 TOTAL NUMBER OF ATOMS                        =    2
 THE NUCLEAR REPULSION ENERGY IS       22.0925909486

 THIS MOLECULE IS RECOGNIZED AS BEING LINEAR,
 ORBITAL LZ DEGENERACY TOLERANCE ETOLLZ= 1.00E-06

     LEBEDEV GRID-BASED DFT OPTIONS
     ------------------------------
     DFTTYP=PBE0    
     NRAD  =      96     NLEB  =     302
     NRAD0 =      24     NLEB0 =     110
     SWOFF =    5.00E-03 (PURE SCF -> DFT)
     SWITCH=    3.00E-04 (COARSE -> TIGHT GRID)
     THRESH=    0.00E+00 GTHRE=    1.00E+00

 GRIMME'S EMPIRICAL DISPERSION CORRECTION= F

     $CONTRL OPTIONS
     ---------------
 SCFTYP=RHF          RUNTYP=GRADIENT     EXETYP=RUN     
 MPLEVL=       0     CITYP =NONE         CCTYP =NONE         VBTYP =NONE    
 DFTTYP=PBE0         TDDFT =EXCITE  
 MULT  =       1     ICHARG=       0     NZVAR =       0     COORD =UNIQUE  
 PP    =NONE         RELWFN=NONE         LOCAL =NONE         NUMGRD=       F
 ISPHER=      -1     NOSYM =       0     MAXIT =      30     UNITS =ANGS    
 PLTORB=       F     MOLPLT=       F     AIMPAC=       F     FRIEND=        
 NPRINT=       7     IREST =       0     GEOM  =INPUT   
 NORMF =       0     NORMP =       0     ITOL  =      20     ICUT  =       9
 INTTYP=BEST         GRDTYP=BEST         QMTTOL= 1.0E-06

     $SYSTEM OPTIONS
     ---------------
  REPLICATED MEMORY=     7000000 WORDS (ON EVERY NODE).
 DISTRIBUTED MEMDDI=           0 MILLION WORDS IN AGGREGATE,
 MEMDDI DISTRIBUTED OVER   1 PROCESSORS IS           0 WORDS/PROCESSOR.
 TOTAL MEMORY REQUESTED ON EACH PROCESSOR=     7000000 WORDS.
 TIMLIM=          10.00 MINUTES, OR       0.0 DAYS.
 PARALL= F  BALTYP=  DLB     KDIAG=    0  COREFL= F
 MXSEQ2=     300 MXSEQ3=     150  mem10=         0

          ----------------
          PROPERTIES INPUT
          ----------------

     MOMENTS            FIELD           POTENTIAL          DENSITY
 IEMOM =       1   IEFLD =       0   IEPOT =       0   IEDEN =       0
 WHERE =COMASS     WHERE =NUCLEI     WHERE =NUCLEI     WHERE =NUCLEI  
 OUTPUT=BOTH       OUTPUT=BOTH       OUTPUT=BOTH       OUTPUT=BOTH    
 IEMINT=       0   IEFINT=       0                     IEDINT=       0
                                                       MORB  =       0
          EXTRAPOLATION IN EFFECT
          DIIS IN EFFECT
 ORBITAL PRINTING OPTION: NPREO=     1    38     2     1

     -------------------------------
     INTEGRAL TRANSFORMATION OPTIONS
     -------------------------------
     NWORD  =            0
     CUTOFF = 1.0E-09     MPTRAN =       0
     DIRTRF =       F     AOINTS =DUP     

          ----------------------
          INTEGRAL INPUT OPTIONS
          ----------------------
 NOPK  =       1 NORDER=       0 SCHWRZ=       F

          ----------------------
          TDDFT INPUT PARAMETERS
          ----------------------
 NSTATE=       3  IROOT=       1   MULT=       1
 MAXVEC=      50 NTRIAL=       5 CNVTOL=  1.00E-07
 TDPRP =       F  TAMMD=       T    TPA=       F
 ALPHA =       F   BETA=       F  PFREQ=    0.00    0.00
   NRAD=      48   NLEB=     110

     ------------------------------------------
     THE POINT GROUP IS CNV, NAXIS= 4, ORDER= 8
     ------------------------------------------

     DIMENSIONS OF THE SYMMETRY SUBSPACES ARE
 A1  =   18     A2  =    0     B1  =    2     B2  =    2     E   =    8

 ..... DONE SETTING UP THE RUN .....
 STEP CPU TIME =     0.01 TOTAL CPU TIME =        0.0 (    0.0 MIN)
 TOTAL WALL CLOCK TIME=        0.1 SECONDS, CPU UTILIZATION IS   9.09%

                    --------------------------------
                    SINGLE POINT ENERGY AND GRADIENT
                    --------------------------------

          ********************
          1 ELECTRON INTEGRALS
          ********************
 ...... END OF ONE-ELECTRON INTEGRALS ......
 STEP CPU TIME =     0.00 TOTAL CPU TIME =        0.0 (    0.0 MIN)
 TOTAL WALL CLOCK TIME=        0.1 SECONDS, CPU UTILIZATION IS   9.09%

          -------------
          GUESS OPTIONS
          -------------
          GUESS =HUCKEL            NORB  =       0          NORDER=       0
          MIX   =       F          PRTMO =       F          PUNMO =       F
          TOLZ  = 1.0E-08          TOLE  = 1.0E-05
          SYMDEN=       F          PURIFY=       F

 INITIAL GUESS ORBITALS GENERATED BY HUCKEL   ROUTINE.
 HUCKEL GUESS REQUIRES     12706 WORDS.

 SYMMETRIES FOR INITIAL GUESS ORBITALS FOLLOW.   BOTH SET(S).
     7 ORBITALS ARE OCCUPIED (    2 CORE ORBITALS).
     3=A1       4=A1       5=E        6=E        7=A1       8=E        9=E   
    10=A1      11=A1      12=A1      13=A1      14=A1      15=A1      16=A1  
    17=A1  
 ...... END OF INITIAL ORBITAL SELECTION ......
 STEP CPU TIME =     0.00 TOTAL CPU TIME =        0.0 (    0.0 MIN)
 TOTAL WALL CLOCK TIME=        0.1 SECONDS, CPU UTILIZATION IS   8.33%

                    ----------------------
                    AO INTEGRAL TECHNOLOGY
                    ----------------------
     S,P,L SHELL ROTATED AXIS INTEGRALS, REPROGRAMMED BY
        KAZUYA ISHIMURA (IMS) AND JOSE SIERRA (SYNSTAR).
     S,P,D,L SHELL ROTATED AXIS INTEGRALS PROGRAMMED BY
        KAZUYA ISHIMURA (INSTITUTE FOR MOLECULAR SCIENCE).
     S,P,D,F,G SHELL TO TOTAL QUARTET ANGULAR MOMENTUM SUM 5,
        ERIC PROGRAM BY GRAHAM FLETCHER (ELORET AND NASA ADVANCED
        SUPERCOMPUTING DIVISION, AMES RESEARCH CENTER).
     S,P,D,F,G,L SHELL GENERAL RYS QUADRATURE PROGRAMMED BY
        MICHEL DUPUIS (PACIFIC NORTHWEST NATIONAL LABORATORY).

          --------------------
          2 ELECTRON INTEGRALS
          --------------------

 THE -PK- OPTION IS OFF, THE INTEGRALS ARE NOT IN SUPERMATRIX FORM.
 STORING   15000 INTEGRALS/RECORD ON DISK, USING 12 BYTES/INTEGRAL.
 TWO ELECTRON INTEGRAL EVALUATION REQUIRES   90451 WORDS OF MEMORY.
 II,JST,KST,LST =  1  1  1  1 NREC =         1 INTLOC =    1
 II,JST,KST,LST =  2  1  1  1 NREC =         1 INTLOC =    2
 II,JST,KST,LST =  3  1  1  1 NREC =         1 INTLOC =   34
 II,JST,KST,LST =  4  1  1  1 NREC =         1 INTLOC =  214
 II,JST,KST,LST =  5  1  1  1 NREC =         1 INTLOC =  776
 II,JST,KST,LST =  6  1  1  1 NREC =         1 INTLOC = 2864
 II,JST,KST,LST =  7  1  1  1 NREC =         1 INTLOC = 4164
 II,JST,KST,LST =  8  1  1  1 NREC =         1 INTLOC =10804
 II,JST,KST,LST =  9  1  1  1 NREC =         2 INTLOC = 6472
 II,JST,KST,LST = 10  1  1  1 NREC =         3 INTLOC = 7422
 TOTAL NUMBER OF NONZERO TWO-ELECTRON INTEGRALS =               72578
          5 INTEGRAL RECORDS WERE STORED ON DISK FILE  8.
  ...... END OF TWO-ELECTRON INTEGRALS .....
 STEP CPU TIME =     0.05 TOTAL CPU TIME =        0.1 (    0.0 MIN)
 TOTAL WALL CLOCK TIME=        0.3 SECONDS, CPU UTILIZATION IS  21.43%

          --------------------------
              R-PBE0 SCF CALCULATION
          --------------------------

     NUCLEAR ENERGY =        22.0925909486
     MAXIT =   30     NPUNCH=    2
     EXTRAP=T  DAMP=F  SHIFT=F  RSTRCT=F  DIIS=T  DEM=F  SOSCF=F
         DENSITY MATRIX CONVERGENCE THRESHOLD=  1.00E-06
     COARSE -> FINE DFT GRID SWITCH THRESHOLD=  3.00E-04 (SWITCH IN $DFT)
                   HF -> DFT SWITCH THRESHOLD=  5.00E-03 (SWOFF IN $DFT)
     MEMORY REQUIRED FOR RHF ITERS=    145367 WORDS.

 DFT CODE IS SWITCHING FROM THE FINE GRID NRAD= 96,  NLEB=  302
                      TO THE COARSE GRID NRAD0= 24, NLEB0=  110

     EXCHANGE FUNCTIONAL   =PBE&HFX   
     CORRELATION FUNCTIONAL=PBE       
     DFT THRESHOLD         =.690E-07
     GRID CHANGE THRESHOLD =.300E-03
 FOR AN EULER-MACLAURIN QUADRATURE USING  96 RADIAL POINTS:
 SMALLEST GAUSSIAN PRIMITIVE EXPONENT=        0.0438000000 OF TYPE -P-
 ON ATOM NUMBER   1 HAS RADIAL NORMALIZATION=  1.000000
  LARGEST GAUSSIAN PRIMITIVE EXPONENT=     5484.6716600000 OF TYPE -S-
 ON ATOM NUMBER   2 HAS RADIAL NORMALIZATION=  1.000000
 DFT IS SWITCHED OFF, PERFORMING PURE SCF UNTIL SWOFF THRESHOLD IS REACHED.

 ITER EX DEM     TOTAL ENERGY        E CHANGE  DENSITY CHANGE    DIIS ERROR
   1  0  0     -112.2805399043  -112.2805399043   0.305183504   0.633040713
          * * *   INITIATING DIIS PROCEDURE   * * *
   2  1  0     -112.6559856197    -0.3754457154   0.244388435   0.243361547
   3  2  0     -112.6738466929    -0.0178610732   0.116242518   0.209754754
   4  3  0     -112.7383485834    -0.0645018905   0.012384094   0.017413024
   5  4  0     -112.7387479118    -0.0003993284   0.003480606   0.003710130
 CONVERGED TO SWOFF, SO DFT CALCULATION IS NOW SWITCHED ON.
          * * *   INITIATING DIIS PROCEDURE   * * *
   6  5  0     -113.1803703120    -0.4416224003   0.076571691   0.075766887
   7  6  0     -113.1856494427    -0.0052791307   0.057123744   0.050991826
   8  7  0     -113.1824923215     0.0031571213   0.038410938   0.070816983
   9  8  0     -113.1892608937    -0.0067685723   0.003590619   0.003223326
  10  9  0     -113.1892932507    -0.0000323570   0.000193514   0.000423681
 DFT CODE IS SWITCHING BACK TO THE FINE GRID
          * * *   INITIATING DIIS PROCEDURE   * * *
  11 10  0     -113.1873712503     0.0019220004   0.002370023   0.002373830
  12 11  0     -113.1873771491    -0.0000058988   0.000626007   0.000392551
  13 12  0     -113.1873766264     0.0000005227   0.000398603   0.000783350
  14 13  0     -113.1873774595    -0.0000008331   0.000057565   0.000037784
  15 14  0     -113.1873774648    -0.0000000053   0.000009811   0.000011153
  16 15  0     -113.1873774650    -0.0000000002   0.000001057   0.000002174
  17 16  0     -113.1873774650    -0.0000000000   0.000000217   0.000000404

          -----------------
          DENSITY CONVERGED
          -----------------
     TIME TO FORM FOCK OPERATORS=       1.4 SECONDS (       0.1 SEC/ITER)
     TIME TO SOLVE SCF EQUATIONS=       0.0 SECONDS (       0.0 SEC/ITER)

 FINAL R-PBE0 ENERGY IS     -113.1873774650 AFTER  17 ITERATIONS
 DFT EXCHANGE + CORRELATION ENERGY =       -10.4005457544
 TOTAL ELECTRON NUMBER             =        13.9999998371

 LZ VALUE ANALYSIS FOR THE MOS
 ----------------------------------------
 MO     1 (    1) HAS LZ(WEIGHT)= 0.00(100.0%) 
 MO     2 (    2) HAS LZ(WEIGHT)= 0.00(100.0%) 
 MO     3 (    3) HAS LZ(WEIGHT)= 0.00(100.0%) 
 MO     4 (    4) HAS LZ(WEIGHT)= 0.00(100.0%) 
 MO     5 (    5) HAS LZ(WEIGHT)=-1.00( 50.0%)  1.00( 50.0%) 
 MO     6 (    5) HAS LZ(WEIGHT)=-1.00( 50.0%)  1.00( 50.0%) 
 MO     7 (    6) HAS LZ(WEIGHT)= 0.00(100.0%) 
 MO     8 (    7) HAS LZ(WEIGHT)=-1.00( 50.0%)  1.00( 50.0%) 
 MO     9 (    7) HAS LZ(WEIGHT)=-1.00( 50.0%)  1.00( 50.0%) 
 MO    10 (    8) HAS LZ(WEIGHT)= 0.00(100.0%) 
 MO    11 (    9) HAS LZ(WEIGHT)= 0.00(100.0%) 
 MO    12 (   10) HAS LZ(WEIGHT)=-1.00( 50.0%)  1.00( 50.0%) 
 MO    13 (   10) HAS LZ(WEIGHT)=-1.00( 50.0%)  1.00( 50.0%) 
 MO    14 (   11) HAS LZ(WEIGHT)= 0.00(100.0%) 
 MO    15 (   12) HAS LZ(WEIGHT)=-1.00( 50.0%)  1.00( 50.0%) 
 MO    16 (   12) HAS LZ(WEIGHT)=-1.00( 50.0%)  1.00( 50.0%) 
 MO    17 (   13) HAS LZ(WEIGHT)= 0.00(100.0%) 
 MO    18 (   14) HAS LZ(WEIGHT)= 0.00(100.0%) 
 MO    19 (   15) HAS LZ(WEIGHT)=-1.00( 50.0%)  1.00( 50.0%) 
 MO    20 (   15) HAS LZ(WEIGHT)=-1.00( 50.0%)  1.00( 50.0%) 
 MO    21 (   16) HAS LZ(WEIGHT)= 0.00(100.0%) 
 MO    22 (   17) HAS LZ(WEIGHT)= 0.00(100.0%) 
 MO    23 (   18) HAS LZ(WEIGHT)=-1.00( 50.0%)  1.00( 50.0%) 
 MO    24 (   18) HAS LZ(WEIGHT)=-1.00( 50.0%)  1.00( 50.0%) 
 MO    25 (   19) HAS LZ(WEIGHT)= 0.00(100.0%) 
 MO    26 (   20) HAS LZ(WEIGHT)=-2.00( 50.0%)  2.00( 50.0%) 
 MO    27 (   20) HAS LZ(WEIGHT)=-2.00( 50.0%)  2.00( 50.0%) 
 MO    28 (   21) HAS LZ(WEIGHT)= 0.00(100.0%) 
 MO    29 (   22) HAS LZ(WEIGHT)=-1.00( 50.0%)  1.00( 50.0%) 
 MO    30 (   22) HAS LZ(WEIGHT)=-1.00( 50.0%)  1.00( 50.0%) 
 MO    31 (   23) HAS LZ(WEIGHT)=-2.00( 50.0%)  2.00( 50.0%) 
 MO    32 (   23) HAS LZ(WEIGHT)=-2.00( 50.0%)  2.00( 50.0%) 
 MO    33 (   24) HAS LZ(WEIGHT)= 0.00(100.0%) 
 MO    34 (   25) HAS LZ(WEIGHT)=-1.00( 50.0%)  1.00( 50.0%) 
 MO    35 (   25) HAS LZ(WEIGHT)=-1.00( 50.0%)  1.00( 50.0%) 
 MO    36 (   26) HAS LZ(WEIGHT)= 0.00(100.0%) 
 MO    37 (   27) HAS LZ(WEIGHT)= 0.00(100.0%) 
 MO    38 (   28) HAS LZ(WEIGHT)= 0.00(100.0%) 

          ------------
          EIGENVECTORS
          ------------

                      1          2          3          4          5
                  -19.3472   -10.3700    -1.1925    -0.5999    -0.4892
                     A1         A1         A1         A1         E   
    1  C  1  S    0.000027   0.993543  -0.113971   0.137470  -0.000000
    2  C  1  S    0.000353   0.046391   0.217298  -0.304437  -0.000000
    3  C  1  X   -0.000000   0.000000  -0.000000  -0.000000   0.317169
    4  C  1  Y   -0.000000   0.000000  -0.000000  -0.000000  -0.000000
    5  C  1  Z   -0.000034   0.004036   0.213775  -0.114168  -0.000000
    6  C  1  S   -0.000429  -0.011732   0.069764  -0.291575  -0.000000
    7  C  1  X   -0.000000   0.000000  -0.000000  -0.000000   0.108245
    8  C  1  Y   -0.000000   0.000000  -0.000000  -0.000000  -0.000000
    9  C  1  Z   -0.000788  -0.001534  -0.011021  -0.018512  -0.000000
   10  C  1  S    0.001702  -0.001767   0.018546  -0.001474  -0.000000
   11  C  1  X   -0.000000   0.000000  -0.000000  -0.000000   0.014993
   12  C  1  Y   -0.000000   0.000000  -0.000000  -0.000000  -0.000000
   13  C  1  Z    0.000948  -0.000623   0.017375   0.007009  -0.000000
   14  C  1 XX   -0.000102  -0.008268  -0.021416   0.012414  -0.000000
   15  C  1 YY   -0.000102  -0.008268  -0.021416   0.012414  -0.000000
   16  C  1 ZZ   -0.000783  -0.006317   0.031826  -0.001412  -0.000000
   17  C  1 XY   -0.000000   0.000000  -0.000000  -0.000000  -0.000000
   18  C  1 XZ   -0.000000   0.000000  -0.000000  -0.000000   0.040887
   19  C  1 YZ   -0.000000   0.000000  -0.000000  -0.000000  -0.000000
   20  O  2  S    0.992922  -0.000342  -0.201854  -0.114159  -0.000000
   21  O  2  S    0.024951   0.000367   0.444746   0.267929  -0.000000
   22  O  2  X   -0.000000   0.000000  -0.000000  -0.000000   0.564012
   23  O  2  Y   -0.000000   0.000000  -0.000000  -0.000000  -0.000000
   24  O  2  Z   -0.001364   0.000324  -0.172411   0.482629  -0.000000
   25  O  2  S    0.013184  -0.002870   0.373960   0.437392  -0.000000
   26  O  2  X   -0.000000   0.000000  -0.000000  -0.000000   0.334701
   27  O  2  Y   -0.000000   0.000000  -0.000000  -0.000000  -0.000000
   28  O  2  Z    0.000048   0.002628  -0.036283   0.197611  -0.000000
   29  O  2  S   -0.004502   0.007254  -0.048215   0.055986  -0.000000
   30  O  2  X   -0.000000   0.000000  -0.000000  -0.000000   0.024467
   31  O  2  Y   -0.000000   0.000000  -0.000000  -0.000000  -0.000000
   32  O  2  Z    0.000011  -0.003708   0.001632   0.002284  -0.000000
   33  O  2 XX   -0.007858   0.000429  -0.005362   0.007335  -0.000000
   34  O  2 YY   -0.007858   0.000429  -0.005362   0.007335  -0.000000
   35  O  2 ZZ   -0.007469  -0.000911   0.010514  -0.024351  -0.000000
   36  O  2 XY   -0.000000   0.000000  -0.000000  -0.000000  -0.000000
   37  O  2 XZ   -0.000000   0.000000  -0.000000  -0.000000  -0.035287
   38  O  2 YZ   -0.000000   0.000000  -0.000000  -0.000000  -0.000000

                      6          7          8          9         10
                   -0.4892    -0.3967    -0.0357    -0.0357     0.0396
                     E          A1         E          E          A1  
    1  C  1  S   -0.000000  -0.139780   0.000000   0.000000   0.031559
    2  C  1  S   -0.000000   0.276433   0.000000   0.000000  -0.122224
    3  C  1  X   -0.000000   0.000000   0.510958   0.000000   0.000000
    4  C  1  Y    0.317169   0.000000   0.000000   0.510958   0.000000
    5  C  1  Z   -0.000000  -0.445743   0.000000   0.000000   0.109751
    6  C  1  S   -0.000000   0.521106   0.000000   0.000000   0.215792
    7  C  1  X   -0.000000   0.000000   0.522417   0.000000   0.000000
    8  C  1  Y    0.108245   0.000000   0.000000   0.522417   0.000000
    9  C  1  Z   -0.000000  -0.142750   0.000000   0.000000   0.394941
   10  C  1  S   -0.000000   0.080953   0.000000   0.000000   2.217343
   11  C  1  X   -0.000000   0.000000   0.386654   0.000000   0.000000
   12  C  1  Y    0.014993   0.000000   0.000000   0.386654   0.000000
   13  C  1  Z   -0.000000  -0.023295   0.000000   0.000000   0.811754
   14  C  1 XX   -0.000000   0.014460   0.000000   0.000000   0.001786
   15  C  1 YY   -0.000000   0.014460   0.000000   0.000000   0.001786
   16  C  1 ZZ   -0.000000  -0.039501   0.000000   0.000000   0.005421
   17  C  1 XY   -0.000000   0.000000   0.000000   0.000000   0.000000
   18  C  1 XZ   -0.000000   0.000000  -0.015167   0.000000   0.000000
   19  C  1 YZ    0.040887   0.000000   0.000000  -0.015167   0.000000
   20  O  2  S   -0.000000   0.011818   0.000000   0.000000   0.030132
   21  O  2  S   -0.000000  -0.032793   0.000000   0.000000  -0.112922
   22  O  2  X   -0.000000   0.000000  -0.391884   0.000000   0.000000
   23  O  2  Y    0.564012   0.000000   0.000000  -0.391884   0.000000
   24  O  2  Z   -0.000000   0.289525   0.000000   0.000000  -0.060911
   25  O  2  S   -0.000000  -0.016499   0.000000   0.000000  -0.200654
   26  O  2  X   -0.000000   0.000000  -0.340513   0.000000   0.000000
   27  O  2  Y    0.334701   0.000000   0.000000  -0.340513   0.000000
   28  O  2  Z   -0.000000   0.128521   0.000000   0.000000   0.057861
   29  O  2  S   -0.000000   0.030362   0.000000   0.000000  -1.755580
   30  O  2  X   -0.000000   0.000000  -0.258640   0.000000   0.000000
   31  O  2  Y    0.024467   0.000000   0.000000  -0.258640   0.000000
   32  O  2  Z   -0.000000   0.020444   0.000000   0.000000   0.393230
   33  O  2 XX   -0.000000   0.004616   0.000000   0.000000  -0.004304
   34  O  2 YY   -0.000000   0.004616   0.000000   0.000000  -0.004304
   35  O  2 ZZ   -0.000000  -0.000632   0.000000   0.000000  -0.019500
   36  O  2 XY   -0.000000   0.000000   0.000000   0.000000   0.000000
   37  O  2 XZ   -0.000000   0.000000  -0.011828   0.000000   0.000000
   38  O  2 YZ   -0.035287   0.000000   0.000000  -0.011828   0.000000

                     11         12         13         14         15
                    0.0693     0.0814     0.0814     0.1941     0.2232
                     A1         E          E          A1         E   
    1  C  1  S   -0.052306  -0.000000  -0.000000  -0.061419   0.000000
    2  C  1  S    0.107795  -0.000000  -0.000000   0.022708   0.000000
    3  C  1  X   -0.000000  -0.302159  -0.000000  -0.000000   0.047393
    4  C  1  Y   -0.000000  -0.000000  -0.302159  -0.000000   0.000000
    5  C  1  Z   -0.068719  -0.000000  -0.000000  -0.001774   0.000000
    6  C  1  S    0.315109  -0.000000  -0.000000   1.337260   0.000000
    7  C  1  X   -0.000000  -0.420459  -0.000000  -0.000000  -0.147600
    8  C  1  Y   -0.000000  -0.000000  -0.420459  -0.000000   0.000000
    9  C  1  Z   -0.178842  -0.000000  -0.000000  -0.055249   0.000000
   10  C  1  S   -0.408670  -0.000000  -0.000000   0.052762   0.000000
   11  C  1  X   -0.000000   1.156201  -0.000000  -0.000000  -1.104517
   12  C  1  Y   -0.000000  -0.000000   1.156201  -0.000000   0.000000
   13  C  1  Z    1.199008  -0.000000  -0.000000  -0.633738   0.000000
   14  C  1 XX    0.003296  -0.000000  -0.000000  -0.030891   0.000000
   15  C  1 YY    0.003296  -0.000000  -0.000000  -0.030891   0.000000
   16  C  1 ZZ   -0.031063  -0.000000  -0.000000  -0.011376   0.000000
   17  C  1 XY   -0.000000  -0.000000  -0.000000  -0.000000   0.000000
   18  C  1 XZ   -0.000000  -0.011783  -0.000000  -0.000000  -0.002729
   19  C  1 YZ   -0.000000  -0.000000  -0.011783  -0.000000   0.000000
   20  O  2  S    0.021999  -0.000000  -0.000000   0.019160   0.000000
   21  O  2  S   -0.082355  -0.000000  -0.000000  -0.014840   0.000000
   22  O  2  X   -0.000000   0.042670  -0.000000  -0.000000  -0.241208
   23  O  2  Y   -0.000000  -0.000000   0.042670  -0.000000   0.000000
   24  O  2  Z    0.023061  -0.000000  -0.000000  -0.116569   0.000000
   25  O  2  S   -0.039041  -0.000000  -0.000000  -0.198883   0.000000
   26  O  2  X   -0.000000   0.112768  -0.000000  -0.000000  -0.449467
   27  O  2  Y   -0.000000  -0.000000   0.112768  -0.000000   0.000000
   28  O  2  Z   -0.002337  -0.000000  -0.000000  -0.206558   0.000000
   29  O  2  S   -0.218186  -0.000000  -0.000000  -0.445457   0.000000
   30  O  2  X   -0.000000  -0.081916  -0.000000  -0.000000   1.905001
   31  O  2  Y   -0.000000  -0.000000  -0.081916  -0.000000   0.000000
   32  O  2  Z   -0.196399  -0.000000  -0.000000   1.955121   0.000000
   33  O  2 XX   -0.006244  -0.000000  -0.000000   0.001121   0.000000
   34  O  2 YY   -0.006244  -0.000000  -0.000000   0.001121   0.000000
   35  O  2 ZZ    0.004161  -0.000000  -0.000000   0.052045   0.000000
   36  O  2 XY   -0.000000  -0.000000  -0.000000  -0.000000   0.000000
   37  O  2 XZ   -0.000000   0.014873  -0.000000  -0.000000   0.019171
   38  O  2 YZ   -0.000000  -0.000000   0.014873  -0.000000   0.000000

                     16         17         18         19         20
                    0.2232     0.2745     0.4302     0.6559     0.6559
                     E          A1         A1         E          E   
    1  C  1  S    0.000000   0.031113  -0.113752   0.000000   0.000000
    2  C  1  S    0.000000  -0.018860   0.180431   0.000000   0.000000
    3  C  1  X    0.000000   0.000000  -0.000000  -1.034210   0.000000
    4  C  1  Y    0.047393   0.000000  -0.000000   0.000000  -1.034210
    5  C  1  Z    0.000000   0.104096   0.160469   0.000000   0.000000
    6  C  1  S    0.000000  -1.327989   3.938546   0.000000   0.000000
    7  C  1  X    0.000000   0.000000  -0.000000   1.568430   0.000000
    8  C  1  Y   -0.147600   0.000000  -0.000000   0.000000   1.568430
    9  C  1  Z    0.000000  -0.016196   2.782406   0.000000   0.000000
   10  C  1  S    0.000000  -2.964969   1.637415   0.000000   0.000000
   11  C  1  X    0.000000   0.000000  -0.000000  -0.450857   0.000000
   12  C  1  Y   -1.104517   0.000000  -0.000000   0.000000  -0.450857
   13  C  1  Z    0.000000  -1.559728  -0.067240   0.000000   0.000000
   14  C  1 XX    0.000000   0.035084   0.017085   0.000000   0.000000
   15  C  1 YY    0.000000   0.035084   0.017085   0.000000   0.000000
   16  C  1 ZZ    0.000000  -0.043800  -0.026838   0.000000   0.000000
   17  C  1 XY    0.000000   0.000000  -0.000000   0.000000   0.000000
   18  C  1 XZ    0.000000   0.000000  -0.000000  -0.025854   0.000000
   19  C  1 YZ   -0.002729   0.000000  -0.000000   0.000000  -0.025854
   20  O  2  S    0.000000   0.104689   0.066321   0.000000   0.000000
   21  O  2  S    0.000000  -0.098774  -0.034462   0.000000   0.000000
   22  O  2  X    0.000000   0.000000  -0.000000   0.078963   0.000000
   23  O  2  Y   -0.241208   0.000000  -0.000000   0.000000   0.078963
   24  O  2  Z    0.000000  -0.004050   0.327043   0.000000   0.000000
   25  O  2  S    0.000000  -1.553614  -1.994140   0.000000   0.000000
   26  O  2  X    0.000000   0.000000  -0.000000  -0.202693   0.000000
   27  O  2  Y   -0.449467   0.000000  -0.000000   0.000000  -0.202693
   28  O  2  Z    0.000000  -0.216094   1.260792   0.000000   0.000000
   29  O  2  S    0.000000   5.618236  -3.821206   0.000000   0.000000
   30  O  2  X    0.000000   0.000000  -0.000000  -0.223689   0.000000
   31  O  2  Y    1.905001   0.000000  -0.000000   0.000000  -0.223689
   32  O  2  Z    0.000000  -0.734523   1.235023   0.000000   0.000000
   33  O  2 XX    0.000000   0.074436   0.036538   0.000000   0.000000
   34  O  2 YY    0.000000   0.074436   0.036538   0.000000   0.000000
   35  O  2 ZZ    0.000000   0.080296   0.017513   0.000000   0.000000
   36  O  2 XY    0.000000   0.000000  -0.000000   0.000000   0.000000
   37  O  2 XZ    0.000000   0.000000  -0.000000   0.078139   0.000000
   38  O  2 YZ    0.019171   0.000000  -0.000000   0.000000   0.078139

                     21         22         23         24         25
                    0.7487     1.0463     1.1619     1.1619     1.1689
                     A1         A1         E          E          A1  
    1  C  1  S   -0.030192  -0.043140  -0.000000  -0.000000   0.048852
    2  C  1  S   -0.175430  -1.945241  -0.000000  -0.000000  -0.643761
    3  C  1  X   -0.000000  -0.000000  -0.120268  -0.000000   0.000000
    4  C  1  Y   -0.000000  -0.000000  -0.000000  -0.120268   0.000000
    5  C  1  Z    1.114403  -0.127616  -0.000000  -0.000000   0.156551
    6  C  1  S    0.923757   4.511258  -0.000000  -0.000000   5.015882
    7  C  1  X   -0.000000  -0.000000  -0.180301  -0.000000   0.000000
    8  C  1  Y   -0.000000  -0.000000  -0.000000  -0.180301   0.000000
    9  C  1  Z   -0.883752   0.982719  -0.000000  -0.000000   2.175330
   10  C  1  S   -0.262239   0.600220  -0.000000  -0.000000   1.233583
   11  C  1  X   -0.000000  -0.000000   0.476509  -0.000000   0.000000
   12  C  1  Y   -0.000000  -0.000000  -0.000000   0.476509   0.000000
   13  C  1  Z    0.387595   0.086262  -0.000000  -0.000000   0.469330
   14  C  1 XX    0.020295  -0.042306  -0.000000  -0.000000  -0.121848
   15  C  1 YY    0.020295  -0.042306  -0.000000  -0.000000  -0.121848
   16  C  1 ZZ   -0.165626  -0.121122  -0.000000  -0.000000   0.283351
   17  C  1 XY   -0.000000  -0.000000  -0.000000  -0.000000   0.000000
   18  C  1 XZ   -0.000000  -0.000000  -0.028575  -0.000000   0.000000
   19  C  1 YZ   -0.000000  -0.000000  -0.000000  -0.028575   0.000000
   20  O  2  S    0.045751  -0.012623  -0.000000  -0.000000   0.015624
   21  O  2  S   -0.145449   0.239676  -0.000000  -0.000000   0.009520
   22  O  2  X   -0.000000  -0.000000  -0.958038  -0.000000   0.000000
   23  O  2  Y   -0.000000  -0.000000  -0.000000  -0.958038   0.000000
   24  O  2  Z    0.294088   0.140943  -0.000000  -0.000000  -0.825681
   25  O  2  S   -0.042802  -0.943955  -0.000000  -0.000000  -1.691761
   26  O  2  X   -0.000000  -0.000000   1.682375  -0.000000   0.000000
   27  O  2  Y   -0.000000  -0.000000  -0.000000   1.682375   0.000000
   28  O  2  Z    0.497813  -0.404996  -0.000000  -0.000000   2.709252
   29  O  2  S   -0.213550  -2.623120  -0.000000  -0.000000  -3.956055
   30  O  2  X   -0.000000  -0.000000  -1.097077  -0.000000   0.000000
   31  O  2  Y   -0.000000  -0.000000  -0.000000  -1.097077   0.000000
   32  O  2  Z   -0.158421   1.693386  -0.000000  -0.000000   0.506873
   33  O  2 XX   -0.064276   0.150242  -0.000000  -0.000000   0.002960
   34  O  2 YY   -0.064276   0.150242  -0.000000  -0.000000   0.002960
   35  O  2 ZZ    0.173772  -0.096880  -0.000000  -0.000000  -0.172860
   36  O  2 XY   -0.000000  -0.000000  -0.000000  -0.000000   0.000000
   37  O  2 XZ   -0.000000  -0.000000   0.039123  -0.000000   0.000000
   38  O  2 YZ   -0.000000  -0.000000  -0.000000   0.039123   0.000000

                     26         27         28         29         30
                    1.4773     1.4773     1.4897     1.5307     1.5307
                     B1         B2         A1         E          E   
    1  C  1  S    0.000000   0.000000  -0.030602  -0.000000  -0.000000
    2  C  1  S    0.000000   0.000000  -0.166778  -0.000000  -0.000000
    3  C  1  X    0.000000   0.000000  -0.000000  -0.272652  -0.000000
    4  C  1  Y    0.000000   0.000000  -0.000000  -0.000000  -0.272652
    5  C  1  Z    0.000000   0.000000  -0.062727  -0.000000  -0.000000
    6  C  1  S    0.000000   0.000000  -1.695749  -0.000000  -0.000000
    7  C  1  X    0.000000   0.000000  -0.000000   0.146902  -0.000000
    8  C  1  Y    0.000000   0.000000  -0.000000  -0.000000   0.146902
    9  C  1  Z    0.000000   0.000000  -1.415916  -0.000000  -0.000000
   10  C  1  S    0.000000   0.000000   1.177277  -0.000000  -0.000000
   11  C  1  X    0.000000   0.000000  -0.000000  -0.062283  -0.000000
   12  C  1  Y    0.000000   0.000000  -0.000000  -0.000000  -0.062283
   13  C  1  Z    0.000000   0.000000   0.749805  -0.000000  -0.000000
   14  C  1 XX    0.613776   0.000000   0.083535  -0.000000  -0.000000
   15  C  1 YY   -0.613776   0.000000   0.083535  -0.000000  -0.000000
   16  C  1 ZZ    0.000000   0.000000  -0.112822  -0.000000  -0.000000
   17  C  1 XY    0.000000   0.708727  -0.000000  -0.000000  -0.000000
   18  C  1 XZ    0.000000   0.000000  -0.000000   0.628773  -0.000000
   19  C  1 YZ    0.000000   0.000000  -0.000000  -0.000000   0.628773
   20  O  2  S    0.000000   0.000000  -0.096568  -0.000000  -0.000000
   21  O  2  S    0.000000   0.000000  -1.984451  -0.000000  -0.000000
   22  O  2  X    0.000000   0.000000  -0.000000  -0.132271  -0.000000
   23  O  2  Y    0.000000   0.000000  -0.000000  -0.000000  -0.132271
   24  O  2  Z    0.000000   0.000000   0.002408  -0.000000  -0.000000
   25  O  2  S    0.000000   0.000000   5.808798  -0.000000  -0.000000
   26  O  2  X    0.000000   0.000000  -0.000000  -0.155659  -0.000000
   27  O  2  Y    0.000000   0.000000  -0.000000  -0.000000  -0.155659
   28  O  2  Z    0.000000   0.000000  -0.906918  -0.000000  -0.000000
   29  O  2  S    0.000000   0.000000  -2.482119  -0.000000  -0.000000
   30  O  2  X    0.000000   0.000000  -0.000000   0.102008  -0.000000
   31  O  2  Y    0.000000   0.000000  -0.000000  -0.000000   0.102008
   32  O  2  Z    0.000000   0.000000  -0.002342  -0.000000  -0.000000
   33  O  2 XX    0.525096   0.000000  -0.363308  -0.000000  -0.000000
   34  O  2 YY   -0.525096   0.000000  -0.363308  -0.000000  -0.000000
   35  O  2 ZZ    0.000000   0.000000  -0.634557  -0.000000  -0.000000
   36  O  2 XY    0.000000   0.606329  -0.000000  -0.000000  -0.000000
   37  O  2 XZ    0.000000   0.000000  -0.000000  -0.581476  -0.000000
   38  O  2 YZ    0.000000   0.000000  -0.000000  -0.000000  -0.581476

                     31         32         33         34         35
                    1.9341     1.9341     2.4591     2.6003     2.6003
                     B1         B2         A1         E          E   
    1  C  1  S    0.000000  -0.000000  -0.112655  -0.000000  -0.000000
    2  C  1  S    0.000000  -0.000000  -0.495145  -0.000000  -0.000000
    3  C  1  X    0.000000  -0.000000  -0.000000   0.327110  -0.000000
    4  C  1  Y    0.000000  -0.000000  -0.000000  -0.000000   0.327110
    5  C  1  Z    0.000000  -0.000000   0.059760  -0.000000  -0.000000
    6  C  1  S    0.000000  -0.000000   1.797837  -0.000000  -0.000000
    7  C  1  X    0.000000  -0.000000  -0.000000   0.341032  -0.000000
    8  C  1  Y    0.000000  -0.000000  -0.000000  -0.000000   0.341032
    9  C  1  Z    0.000000  -0.000000   0.854427  -0.000000  -0.000000
   10  C  1  S    0.000000  -0.000000   0.498754  -0.000000  -0.000000
   11  C  1  X    0.000000  -0.000000  -0.000000  -0.129282  -0.000000
   12  C  1  Y    0.000000  -0.000000  -0.000000  -0.000000  -0.129282
   13  C  1  Z    0.000000  -0.000000   0.041923  -0.000000  -0.000000
   14  C  1 XX   -0.625189  -0.000000  -0.640833  -0.000000  -0.000000
   15  C  1 YY    0.625189  -0.000000  -0.640833  -0.000000  -0.000000
   16  C  1 ZZ    0.000000  -0.000000   1.076816  -0.000000  -0.000000
   17  C  1 XY    0.000000  -0.721905  -0.000000  -0.000000  -0.000000
   18  C  1 XZ    0.000000  -0.000000  -0.000000   1.064785  -0.000000
   19  C  1 YZ    0.000000  -0.000000  -0.000000  -0.000000   1.064785
   20  O  2  S    0.000000  -0.000000  -0.009934  -0.000000  -0.000000
   21  O  2  S    0.000000  -0.000000  -0.766658  -0.000000  -0.000000
   22  O  2  X    0.000000  -0.000000  -0.000000  -0.024271  -0.000000
   23  O  2  Y    0.000000  -0.000000  -0.000000  -0.000000  -0.024271
   24  O  2  Z    0.000000  -0.000000   0.647580  -0.000000  -0.000000
   25  O  2  S    0.000000  -0.000000   0.201410  -0.000000  -0.000000
   26  O  2  X    0.000000  -0.000000  -0.000000  -0.634600  -0.000000
   27  O  2  Y    0.000000  -0.000000  -0.000000  -0.000000  -0.634600
   28  O  2  Z    0.000000  -0.000000  -0.211755  -0.000000  -0.000000
   29  O  2  S    0.000000  -0.000000  -1.439987  -0.000000  -0.000000
   30  O  2  X    0.000000  -0.000000  -0.000000   0.147831  -0.000000
   31  O  2  Y    0.000000  -0.000000  -0.000000  -0.000000   0.147831
   32  O  2  Z    0.000000  -0.000000   0.584441  -0.000000  -0.000000
   33  O  2 XX    0.701324  -0.000000  -0.248750  -0.000000  -0.000000
   34  O  2 YY   -0.701324  -0.000000  -0.248750  -0.000000  -0.000000
   35  O  2 ZZ    0.000000  -0.000000   0.124065  -0.000000  -0.000000
   36  O  2 XY    0.000000   0.809819  -0.000000  -0.000000  -0.000000
   37  O  2 XZ    0.000000  -0.000000  -0.000000   1.077609  -0.000000
   38  O  2 YZ    0.000000  -0.000000  -0.000000  -0.000000   1.077609

                     36         37         38
                    3.0339     4.0179     4.1834
                     A1         A1         A1  
    1  C  1  S   -0.107999   0.180701  -0.472456
    2  C  1  S   -1.625114  -1.019353   2.512322
    3  C  1  X    0.000000   0.000000  -0.000000
    4  C  1  Y    0.000000   0.000000  -0.000000
    5  C  1  Z   -1.559333   0.500157  -0.165987
    6  C  1  S   -2.280866  -1.374146   1.925560
    7  C  1  X    0.000000   0.000000  -0.000000
    8  C  1  Y    0.000000   0.000000  -0.000000
    9  C  1  Z   -1.327456  -0.651277   0.062402
   10  C  1  S   -0.102236   0.824709   0.660816
   11  C  1  X    0.000000   0.000000  -0.000000
   12  C  1  Y    0.000000   0.000000  -0.000000
   13  C  1  Z    0.049233   0.449968   0.345658
   14  C  1 XX    0.378467   0.616632  -1.705680
   15  C  1 YY    0.378467   0.616632  -1.705680
   16  C  1 ZZ   -0.860673   1.118771  -1.811189
   17  C  1 XY    0.000000   0.000000  -0.000000
   18  C  1 XZ    0.000000   0.000000  -0.000000
   19  C  1 YZ    0.000000   0.000000  -0.000000
   20  O  2  S   -0.104671  -0.525252  -0.227688
   21  O  2  S   -0.476587  -0.460653  -0.081279
   22  O  2  X    0.000000   0.000000  -0.000000
   23  O  2  Y    0.000000   0.000000  -0.000000
   24  O  2  Z   -0.401477   0.346679  -0.166679
   25  O  2  S    3.830838   5.603524   2.519335
   26  O  2  X    0.000000   0.000000  -0.000000
   27  O  2  Y    0.000000   0.000000  -0.000000
   28  O  2  Z   -2.390247  -0.138475  -0.271725
   29  O  2  S    0.526308  -1.752585  -2.226967
   30  O  2  X    0.000000   0.000000  -0.000000
   31  O  2  Y    0.000000   0.000000  -0.000000
   32  O  2  Z    0.027271  -0.195736   0.611356
   33  O  2 XX   -0.878606  -1.701176  -0.787148
   34  O  2 YY   -0.878606  -1.701176  -0.787148
   35  O  2 ZZ    1.457873  -1.992112  -0.602225
   36  O  2 XY    0.000000   0.000000  -0.000000
   37  O  2 XZ    0.000000   0.000000  -0.000000
   38  O  2 YZ    0.000000   0.000000  -0.000000
 ...... END OF RHF CALCULATION ......
 STEP CPU TIME =     1.44 TOTAL CPU TIME =        1.5 (    0.0 MIN)
 TOTAL WALL CLOCK TIME=        4.3 SECONDS, CPU UTILIZATION IS  35.29%

     ---------------------------------------------------------------------
     PROPERTIES FOR THE PBE0     DFT FUNCTIONAL (RHF  TYPE) DENSITY MATRIX
     ---------------------------------------------------------------------

          -----------------
          ENERGY COMPONENTS
          -----------------

         WAVEFUNCTION NORMALIZATION =       1.0000000000

                ONE ELECTRON ENERGY =    -197.3574077118
                TWO ELECTRON ENERGY =      62.0774392982
           NUCLEAR REPULSION ENERGY =      22.0925909486
                                      ------------------
                       TOTAL ENERGY =    -113.1873774650

 ELECTRON-ELECTRON POTENTIAL ENERGY =      62.0774392982
  NUCLEUS-ELECTRON POTENTIAL ENERGY =    -309.5404450988
   NUCLEUS-NUCLEUS POTENTIAL ENERGY =      22.0925909486
                                      ------------------
             TOTAL POTENTIAL ENERGY =    -225.3704148520
               TOTAL KINETIC ENERGY =     112.1830373870
                 VIRIAL RATIO (V/T) =       2.0089526911

          ---------------------------------------
          MULLIKEN AND LOWDIN POPULATION ANALYSES
          ---------------------------------------

     ATOMIC MULLIKEN POPULATION IN EACH MOLECULAR ORBITAL

                      1          2          3          4          5

                  2.000000   2.000000   2.000000   2.000000   2.000000

    1            -0.000132   1.999686   0.562510   0.469158   0.519863
    2             2.000132   0.000314   1.437490   1.530842   1.480137

                      6          7

                  2.000000   2.000000

    1             0.519863   1.786664
    2             1.480137   0.213336

               ----- POPULATIONS IN EACH AO -----
                             MULLIKEN      LOWDIN
              1  C  1  S      1.99444     1.97591
              2  C  1  S      0.84506     0.45253
              3  C  1  X      0.35767     0.31215
              4  C  1  Y      0.35767     0.31215
              5  C  1  Z      0.83031     0.76790
              6  C  1  S      0.93969     0.43422
              7  C  1  X      0.13133     0.18353
              8  C  1  Y      0.13133     0.18353
              9  C  1  Z      0.09895     0.30303
             10  C  1  S      0.10096     0.15041
             11  C  1  X      0.00899     0.01732
             12  C  1  Y      0.00899     0.01732
             13  C  1  Z      0.01773     0.02762
             14  C  1 XX     -0.01107     0.16789
             15  C  1 YY     -0.01107     0.16789
             16  C  1 ZZ      0.01288     0.22538
             17  C  1 XY      0.00000     0.00000
             18  C  1 XZ      0.02187     0.03777
             19  C  1 YZ      0.02187     0.03777
             20  O  2  S      1.99295     1.97642
             21  O  2  S      0.94586     0.73058
             22  O  2  X      0.90131     0.83801
             23  O  2  Y      0.90131     0.83801
             24  O  2  Z      1.02716     0.95437
             25  O  2  S      0.92281     0.40858
             26  O  2  X      0.54266     0.51435
             27  O  2  Y      0.54266     0.51435
             28  O  2  Z      0.31811     0.44980
             29  O  2  S     -0.01388     0.17415
             30  O  2  X      0.02453     0.08382
             31  O  2  Y      0.02453     0.08382
             32  O  2  Z     -0.01301     0.13456
             33  O  2 XX     -0.00200     0.15640
             34  O  2 YY     -0.00200     0.15640
             35  O  2 ZZ      0.00610     0.18597
             36  O  2 XY      0.00000     0.00000
             37  O  2 XZ      0.01163     0.01303
             38  O  2 YZ      0.01163     0.01303

          ----- MULLIKEN ATOMIC OVERLAP POPULATIONS -----
          (OFF-DIAGONAL ELEMENTS NEED TO BE MULTIPLIED BY 2)

             1           2

    1    5.3472413
    2    0.5103714   7.6320158

          TOTAL MULLIKEN AND LOWDIN ATOMIC POPULATIONS
       ATOM         MULL.POP.    CHARGE          LOW.POP.     CHARGE
    1 C             5.857613    0.142387         5.774330    0.225670
    2 O             8.142387   -0.142387         8.225670   -0.225670

          -------------------------------
          BOND ORDER AND VALENCE ANALYSIS     BOND ORDER THRESHOLD=0.050
          -------------------------------

                   BOND                       BOND                       BOND
  ATOM PAIR DIST  ORDER      ATOM PAIR DIST  ORDER      ATOM PAIR DIST  ORDER
    1   2  1.150  2.314

                       TOTAL       BONDED        FREE
      ATOM            VALENCE     VALENCE     VALENCE
    1 C                 2.314       2.314       0.000
    2 O                 2.314       2.314      -0.000

          ---------------------
          ELECTROSTATIC MOMENTS
          ---------------------

 POINT   1           X           Y           Z (BOHR)    CHARGE
                 0.000000    0.000000    1.241359       -0.00 (A.U.)
         DX          DY          DZ         /D/  (DEBYE)
     0.000000    0.000000   -0.007680    0.007680
 ...... END OF PROPERTY EVALUATION ......
 STEP CPU TIME =     0.00 TOTAL CPU TIME =        1.5 (    0.0 MIN)
 TOTAL WALL CLOCK TIME=        4.3 SECONDS, CPU UTILIZATION IS  35.13%

 -----------------------------------------------------------------------
                    TDDFT CALCULATION FOR SCFTYP=RHF 
                          CODED BY MAHITO CHIBA
 NATIONAL INSTITUTE OF ADVANCED INDUSTRIAL SCIENCE AND TECHNOLOGY, JAPAN
 -----------------------------------------------------------------------

 REGENERATING AO INTEGRAL LIST IN C1 SYMMETRY FOR TDDFT ITERATIONS...

          --------------------
          2 ELECTRON INTEGRALS
          --------------------

 THE -PK- OPTION IS OFF, THE INTEGRALS ARE NOT IN SUPERMATRIX FORM.
 STORING   15000 INTEGRALS/RECORD ON DISK, USING 12 BYTES/INTEGRAL.
 TWO ELECTRON INTEGRAL EVALUATION REQUIRES   90451 WORDS OF MEMORY.
 II,JST,KST,LST =  1  1  1  1 NREC =         1 INTLOC =    1
 II,JST,KST,LST =  2  1  1  1 NREC =         1 INTLOC =    2
 II,JST,KST,LST =  3  1  1  1 NREC =         1 INTLOC =   34
 II,JST,KST,LST =  4  1  1  1 NREC =         1 INTLOC =  214
 II,JST,KST,LST =  5  1  1  1 NREC =         1 INTLOC =  776
 II,JST,KST,LST =  6  1  1  1 NREC =         1 INTLOC = 2864
 II,JST,KST,LST =  7  1  1  1 NREC =         1 INTLOC = 4164
 II,JST,KST,LST =  8  1  1  1 NREC =         1 INTLOC =10804
 II,JST,KST,LST =  9  1  1  1 NREC =         2 INTLOC = 6472
 II,JST,KST,LST = 10  1  1  1 NREC =         3 INTLOC = 7422
 TOTAL NUMBER OF NONZERO TWO-ELECTRON INTEGRALS =               72578
          5 INTEGRAL RECORDS WERE STORED ON DISK FILE  8.
  ...... END OF TWO-ELECTRON INTEGRALS .....
 STEP CPU TIME =     0.02 TOTAL CPU TIME =        1.5 (    0.0 MIN)
 TOTAL WALL CLOCK TIME=        4.3 SECONDS, CPU UTILIZATION IS  35.51%
  
 -TDDFT RUNTIME PARAMETERS-
    TRIPLET  = F
    NONEQ    = T
    NSTATE   =                    3
    IROOT    =                    1
    NTRIAL   =                    5
    MAXVEC   =                   50
    ILENG    =                  200
    MAXGRD   =                10388
    NRAD     =                   48
    NLEB     =                  110
 GAS PHASE COMPUTATION
  
 FOR AN EULER-MACLAURIN QUADRATURE USING  48 RADIAL POINTS:
 SMALLEST GAUSSIAN PRIMITIVE EXPONENT=        0.0438000000 OF TYPE -P-
 ON ATOM NUMBER   1 HAS RADIAL NORMALIZATION=  0.999996
  LARGEST GAUSSIAN PRIMITIVE EXPONENT=     5484.6716600000 OF TYPE -S-
 ON ATOM NUMBER   2 HAS RADIAL NORMALIZATION=  1.000000
  
 MEM1  =      188818 MEM2  =        5156 MEMGRID=      139125
 MEMPCM=           0 MEMEFP=           0
 TOTAL MEMORY REQUIRED FOR TD-DFT ITERATIONS IS      333100 WORDS.

 INITIAL VECTORS / MXVEC                     5 /                  150
 ITERATION #                     1
    CURRENT VECTORS    1 TO   5 (   5 VECTORS)
    STATE NUMBER   1  ENERGY =    8.854075 EV
    STATE NUMBER   2  ENERGY =    8.854075 EV
    STATE NUMBER   3  ENERGY =    9.708910 EV
    MAX ERROR =  1.252E-02 / 1.000E-07
 ITERATION #                     2
    CURRENT VECTORS    6 TO   8 (   3 VECTORS)
    STATE NUMBER   1  ENERGY =    8.501975 EV
    STATE NUMBER   2  ENERGY =    8.501975 EV
    STATE NUMBER   3  ENERGY =    9.580977 EV
    MAX ERROR =  5.719E-04 / 1.000E-07
 ITERATION #                     3
    CURRENT VECTORS    9 TO  11 (   3 VECTORS)
    STATE NUMBER   1  ENERGY =    8.488120 EV
    STATE NUMBER   2  ENERGY =    8.488120 EV
    STATE NUMBER   3  ENERGY =    9.424168 EV
    MAX ERROR =  2.398E-04 / 1.000E-07
 ITERATION #                     4
    CURRENT VECTORS   12 TO  14 (   3 VECTORS)
    STATE NUMBER   1  ENERGY =    8.487585 EV
    STATE NUMBER   2  ENERGY =    8.487585 EV
    STATE NUMBER   3  ENERGY =    9.414558 EV
    MAX ERROR =  3.722E-06 / 1.000E-07
 ITERATION #                     5
    CURRENT VECTORS   15 TO  17 (   3 VECTORS)
    STATE NUMBER   1  ENERGY =    8.487576 EV
    STATE NUMBER   2  ENERGY =    8.487576 EV
    STATE NUMBER   3  ENERGY =    9.414481 EV
    MAX ERROR =  6.428E-09 / 1.000E-07
  
   ---------------------------------  
     R-TDDFT CALCULATION CONVERGED
   ---------------------------------  
 NUMBER OF USED VECTORS / MAX =  17 / 150
 NUMBER OF ITERATIONS   / MAX =   5 / 100
 NUMBER OF SINGLE EXCITATIONS =   217
 NUMBER OF ATOMIC ORBITALS    =  38
 NUMBER OF ELECTRONS          =          13.9997742

          -------------------
          SINGLET EXCITATIONS
          -------------------

 THIS IS A NON-ABELIAN POINT GROUP, AS A RESULT,
 SOME STATE SYMMETRY LABELS MAY NOT BE CORRECTLY PRINTED BELOW


 STATE #   1  ENERGY =    8.487576 EV
 OSCILLATOR STRENGTH =    0.107603
 LAMBDA DIAGNOSTIC   =    0.704 (RYDBERG/CHARGE TRANSFER CHARACTER)
 SYMMETRY OF STATE   =    E   
                 EXCITATION  DE-EXCITATION
     OCC     VIR  AMPLITUDE      AMPLITUDE
      I       A     X(I->A)        Y(A->I)
     ---     ---   --------       --------
      3       8    0.032676       0.000000
      4       8   -0.149099       0.000000
      7       8    0.861628       0.000000
      4       9    0.081074       0.000000
      7       9   -0.468518       0.000000
      4      12   -0.041766       0.000000

 STATE #   2  ENERGY =    8.487576 EV
 OSCILLATOR STRENGTH =    0.107603
 LAMBDA DIAGNOSTIC   =    0.704 (RYDBERG/CHARGE TRANSFER CHARACTER)
 SYMMETRY OF STATE   =    E   
                 EXCITATION  DE-EXCITATION
     OCC     VIR  AMPLITUDE      AMPLITUDE
      I       A     X(I->A)        Y(A->I)
     ---     ---   --------       --------
      4       8   -0.081074       0.000000
      7       8    0.468518       0.000000
      3       9    0.032676       0.000000
      4       9   -0.149099       0.000000
      7       9    0.861628       0.000000
      4      13   -0.041766       0.000000

 STATE #   3  ENERGY =    9.414481 EV
 OSCILLATOR STRENGTH =    0.000000
 LAMBDA DIAGNOSTIC   =    0.483 (RYDBERG/CHARGE TRANSFER CHARACTER)
 SYMMETRY OF STATE   =    A1  
                 EXCITATION  DE-EXCITATION
     OCC     VIR  AMPLITUDE      AMPLITUDE
      I       A     X(I->A)        Y(A->I)
     ---     ---   --------       --------
      6       8    0.701101       0.000000
      5       9   -0.701101       0.000000
      6      12    0.081867       0.000000
      5      13   -0.081904       0.000000
      6      15    0.036083       0.000000
      5      16   -0.036020       0.000000

 THIS IS A NON-ABELIAN POINT GROUP, AS A RESULT,
 SOME STATE SYMMETRY LABELS MAY NOT BE CORRECTLY PRINTED BELOW


                          SUMMARY OF TDDFT RESULTS

   STATE             ENERGY     EXCITATION  TRANSITION DIPOLE, A.U.  OSCILLATOR
   0 ->             HARTREE          EV         X       Y       Z     STRENGTH
   0  A1        -113.1873774650    0.000
   1  E         -112.8754647808    8.488    -0.6320  0.3436  0.0000    0.1076
   2  E         -112.8754647808    8.488    -0.3436 -0.6320 -0.0000    0.1076
   3  A1        -112.8414016402    9.414     0.0000  0.0000  0.0000    0.0000
  
 TRANSITION        EXCITATION            TRANSITION DIPOLE, A.U.     OSCILLATOR
                       EV              X       Y       Z       DIP    STRENGTH

  1  ->  2           0.000         -0.0000  0.0000 -0.0000   0.0000    0.0000
  1  ->  3           0.927          0.1178  0.2167  0.0000   0.2466    0.0014
  2  ->  3           0.927         -0.2167  0.1178  0.0000   0.2466    0.0014

 SELECTING EXCITED STATE IROOT=   1 AT E=     -112.8754647808
 AS THE STATE OF INTEREST.

 ..... DONE WITH TD-DFT EXCITATION ENERGIES .....
 STEP CPU TIME =     1.26 TOTAL CPU TIME =        2.8 (    0.0 MIN)
 TOTAL WALL CLOCK TIME=        5.6 SECONDS, CPU UTILIZATION IS  49.91%

 -----------------------------------------------------------------------
                   TD-DFT ENERGY GRADIENT CALCULATION
                   CODED BY MAHITO CHIBA (AIST, JAPAN)
 -----------------------------------------------------------------------

    -------------------------
       START Z-VECTOR LOOP
    -------------------------
 INITIAL ERROR =  2.351E-02, MUST CONVERGE TO 1.000E-10
 ITER# 1 ERROR =  7.088E-03
 ITER# 2 ERROR =  2.587E-04
 ITER# 3 ERROR =  9.113E-06
 ITER# 4 ERROR =  2.388E-07
 ITER# 5 ERROR =  6.935E-09
 ITER# 6 ERROR =  6.301E-11
    -------------------------
        Z-VECTOR CONVERGED          
    -------------------------
 MAXIMUM MEMORY DURING TDDFT RESPONSES=    214618 WORDS.

 TDDFT NATURAL ORBITAL OCCUPATION NUMBERS FOR EXCITED STATE    1 ARE
  2.0000 2.0000 2.0000 1.9999 1.9996 1.9979 1.0117 0.9928 0.0023 0.0017
  0.0003 0.0001 0.0000 0.0000 0.0000 0.0000 0.0000 0.0000 0.0000 0.0000
  0.0000 0.0000 0.0000 0.0000-0.0000-0.0000-0.0000-0.0000-0.0000-0.0000
 -0.0000-0.0000-0.0000-0.0000-0.0000-0.0003-0.0003-0.0056
 THERE ARE    13.0091 ELECTRONS IN PRINCIPAL TDDFT NATURAL ORBITALS.
 THERE ARE     0.9909 ELECTRONS IN SECONDARY TDDFT NATURAL ORBITALS.

          ----------------------
          TDDFT NATURAL ORBITALS
          ----------------------

                      1          2          3          4          5

                    2.0000     2.0000     2.0000     1.9999     1.9996

    1  C  1  S   -0.000000   0.102930   0.993150  -0.051768  -0.000000
    2  C  1  S   -0.000000   0.002349   0.024200  -0.099821  -0.000000
    3  C  1  X   -0.156608  -0.000000  -0.000000   0.000000  -0.306176
    4  C  1  Y   -0.287973  -0.000000  -0.000000  -0.000000   0.166505
    5  C  1  Z    0.000000  -0.002819  -0.019907  -0.170452  -0.000000
    6  C  1  S   -0.000000  -0.002316  -0.018089   0.044850   0.000000
    7  C  1  X   -0.052309  -0.000000  -0.000000   0.000000  -0.110277
    8  C  1  Y   -0.096185  -0.000000  -0.000000  -0.000000   0.059969
    9  C  1  Z   -0.000000  -0.000754   0.000071   0.013549   0.000000
   10  C  1  S    0.000000   0.001238  -0.004170  -0.016441  -0.000000
   11  C  1  X   -0.007468  -0.000000  -0.000000   0.000000  -0.026937
   12  C  1  Y   -0.013730  -0.000000   0.000000  -0.000000   0.014647
   13  C  1  Z    0.000000   0.000603  -0.002928  -0.019407  -0.000000
   14  C  1 XX   -0.000000  -0.000653  -0.005933   0.017047   0.000000
   15  C  1 YY   -0.000000  -0.000666  -0.006084   0.016383   0.000000
   16  C  1 ZZ    0.000000  -0.002045  -0.010404  -0.027709  -0.000000
   17  C  1 XY    0.000000  -0.000012  -0.000135  -0.000591  -0.000000
   18  C  1 XZ   -0.018538  -0.000000  -0.000000   0.000000  -0.033551
   19  C  1 YZ   -0.034090  -0.000000  -0.000000  -0.000000   0.018246
   20  O  2  S   -0.000000   0.990761  -0.078987   0.224670   0.000000
   21  O  2  S    0.000000   0.017783  -0.055261  -0.511821  -0.000000
   22  O  2  X   -0.269805  -0.000000  -0.000000   0.000000  -0.486292
   23  O  2  Y   -0.496126  -0.000000  -0.000000  -0.000000   0.264457
   24  O  2  Z    0.000000   0.000218   0.013827   0.006279   0.000000
   25  O  2  S    0.000000   0.006812  -0.048873  -0.494155  -0.000000
   26  O  2  X   -0.157130  -0.000000  -0.000000   0.000000  -0.274036
   27  O  2  Y   -0.288938  -0.000000  -0.000000  -0.000000   0.149028
   28  O  2  Z    0.000000   0.000322   0.002344  -0.032083  -0.000000
   29  O  2  S   -0.000000  -0.003083   0.013122   0.029372   0.000000
   30  O  2  X   -0.009363  -0.000000  -0.000000  -0.000000  -0.010963
   31  O  2  Y   -0.017222  -0.000000  -0.000000  -0.000000   0.005964
   32  O  2  Z    0.000000  -0.000383  -0.003686  -0.001291  -0.000000
   33  O  2 XX    0.000000  -0.007692   0.001839   0.005194   0.000000
   34  O  2 YY    0.000000  -0.007733   0.001586   0.002804   0.000000
   35  O  2 ZZ    0.000000  -0.007569  -0.000412  -0.004387  -0.000000
   36  O  2 XY    0.000000  -0.000037  -0.000225  -0.002130  -0.000000
   37  O  2 XZ    0.017131   0.000000   0.000000  -0.000000   0.029209
   38  O  2 YZ    0.031503   0.000000   0.000000   0.000000  -0.015885

                      6          7          8          9         10

                    1.9979     1.0117     0.9928     0.0023     0.0017

    1  C  1  S    0.162405   0.109753   0.000000   0.000000   0.087009
    2  C  1  S   -0.413345  -0.223300  -0.000000  -0.000000  -0.244080
    3  C  1  X    0.000000  -0.000000   0.463772  -0.469970   0.000000
    4  C  1  Y    0.000000   0.000000  -0.252181   0.255547  -0.000000
    5  C  1  Z   -0.097343   0.505436   0.000000   0.000000   0.275796
    6  C  1  S   -0.372314  -0.338355  -0.000000  -0.000000  -0.145876
    7  C  1  X    0.000000  -0.000000   0.435921   0.070886   0.000000
    8  C  1  Y    0.000000   0.000000  -0.237036  -0.038543   0.000000
    9  C  1  Z    0.018378   0.225564   0.000000  -0.000000  -0.456310
   10  C  1  S   -0.017488  -0.048462  -0.000000   0.000000   0.664339
   11  C  1  X    0.000000  -0.000000   0.299606   1.005552  -0.000000
   12  C  1  Y    0.000000   0.000000  -0.162914  -0.546776  -0.000000
   13  C  1  Z    0.004285   0.025670   0.000000  -0.000000  -0.387853
   14  C  1 XX    0.020341   0.013648   0.000000   0.000000  -0.083556
   15  C  1 YY    0.017319  -0.014395  -0.000000   0.000000   0.079493
   16  C  1 ZZ   -0.009189   0.007513   0.000000   0.000000  -0.082705
   17  C  1 XY   -0.002694  -0.025003  -0.000000   0.000000   0.145289
   18  C  1 XZ    0.000000  -0.000000   0.009573  -0.037549   0.000000
   19  C  1 YZ    0.000000   0.000000  -0.005206   0.020417  -0.000000
   20  O  2  S   -0.039857   0.008230   0.000000  -0.000000  -0.039840
   21  O  2  S    0.104241   0.008930   0.000000   0.000000   0.434489
   22  O  2  X    0.000000   0.000000  -0.382991   0.181053  -0.000000
   23  O  2  Y    0.000000  -0.000000   0.208255  -0.098448  -0.000000
   24  O  2  Z    0.454484  -0.364526  -0.000000  -0.000000  -0.181588
   25  O  2  S    0.273803  -0.181644  -0.000000   0.000000  -0.023878
   26  O  2  X    0.000000   0.000000  -0.312354  -0.046076  -0.000000
   27  O  2  Y    0.000000  -0.000000   0.169845   0.025056  -0.000000
   28  O  2  Z    0.172276  -0.104780  -0.000000   0.000000   0.231903
   29  O  2  S    0.059704  -0.064312  -0.000000   0.000000  -0.387958
   30  O  2  X    0.000000   0.000000  -0.197065  -0.347259   0.000000
   31  O  2  Y    0.000000  -0.000000   0.107156   0.188822   0.000000
   32  O  2  Z   -0.001672  -0.020400  -0.000000  -0.000000  -0.159309
   33  O  2 XX    0.008165   0.000791  -0.000000  -0.000000   0.045556
   34  O  2 YY    0.008041  -0.000502  -0.000000  -0.000000   0.083839
   35  O  2 ZZ   -0.023424   0.013743   0.000000  -0.000000   0.018166
   36  O  2 XY   -0.000110  -0.001152  -0.000000   0.000000   0.034052
   37  O  2 XZ   -0.000000   0.000000  -0.009070   0.000234  -0.000000
   38  O  2 YZ   -0.000000  -0.000000   0.004932  -0.000126   0.000000

                     11         12         13         14         15

                    0.0003     0.0001     0.0000     0.0000     0.0000

    1  C  1  S    0.000004   0.000000  -0.000000  -0.000676  -0.112666
    2  C  1  S    0.000007  -0.000000   0.000001   0.004583   0.529406
    3  C  1  X   -0.000000   0.411276   0.578046   0.012109   0.019194
    4  C  1  Y   -0.000000  -0.223605  -0.314238  -0.006399   0.050730
    5  C  1  Z    0.000028   0.000000   0.000000   0.000919   0.130899
    6  C  1  S    0.000027  -0.000000   0.000005   0.007074   2.014405
    7  C  1  X    0.000000  -0.915951  -0.882029  -0.088230  -0.105538
    8  C  1  Y    0.000000   0.498086   0.479527   0.047786  -0.086365
    9  C  1  Z   -0.000001  -0.000000   0.000000   0.002226   0.631577
   10  C  1  S    0.000047  -0.000000  -0.000001  -0.003051  -0.540926
   11  C  1  X   -0.000000   0.541472   0.146652  -0.854107   0.535407
   12  C  1  Y   -0.000000  -0.294397  -0.079853   0.464246   0.915004
   13  C  1  Z   -0.000017  -0.000000  -0.000000  -0.001631  -0.261937
   14  C  1 XX    0.706382   0.000000  -0.000001  -0.002496  -0.282869
   15  C  1 YY   -0.706376   0.000000  -0.000001  -0.002295  -0.371706
   16  C  1 ZZ   -0.000016   0.000000  -0.000002  -0.002978  -0.483737
   17  C  1 XY    0.528239  -0.000000   0.000000   0.000179  -0.079225
   18  C  1 XZ    0.000000   0.462647  -0.059759  -0.096162  -0.060720
   19  C  1 YZ   -0.000000  -0.251593   0.032545   0.052396   0.052717
   20  O  2  S   -0.000001  -0.000000  -0.000000  -0.000452  -0.026013
   21  O  2  S    0.000046  -0.000000   0.000000   0.001402   0.246435
   22  O  2  X   -0.000000  -0.156674  -0.292180   0.424541  -0.058589
   23  O  2  Y   -0.000000   0.085212   0.158820  -0.230976  -0.074633
   24  O  2  Z   -0.000014   0.000000  -0.000001   0.000355   0.013811
   25  O  2  S   -0.000061   0.000000   0.000001   0.000008  -0.534054
   26  O  2  X   -0.000000   0.169591   0.273035  -1.172428   0.112361
   27  O  2  Y   -0.000000  -0.092235  -0.148502   0.637445   0.036955
   28  O  2  Z    0.000051  -0.000000   0.000001   0.001739   0.597590
   29  O  2  S   -0.000038   0.000000  -0.000000  -0.001529  -0.886644
   30  O  2  X    0.000000  -0.052054   0.560327   1.777009  -0.285770
   31  O  2  Y    0.000000   0.028231  -0.304503  -0.965912  -0.451835
   32  O  2  Z   -0.000010  -0.000000   0.000002   0.000513   0.164722
   33  O  2 XX    0.095233  -0.000000  -0.000001  -0.000621   0.122003
   34  O  2 YY   -0.095231  -0.000000  -0.000001  -0.000826  -0.020629
   35  O  2 ZZ    0.000008   0.000000  -0.000001  -0.002890  -0.237012
   36  O  2 XY    0.071114  -0.000000   0.000000  -0.000182  -0.127166
   37  O  2 XZ   -0.000000  -0.319601   0.531848  -0.296901  -0.048017
   38  O  2 YZ    0.000000   0.173799  -0.289256   0.161314   0.051187

                     16         17         18         19         20

                    0.0000     0.0000     0.0000     0.0000     0.0000

    1  C  1  S    0.258621   0.066900   0.119810   0.074156   0.004016
    2  C  1  S   -1.035328  -1.262409   0.052239   0.011186   0.138275
    3  C  1  X   -0.034830   0.040487  -0.140872  -0.224172  -0.060092
    4  C  1  Y   -0.057864   0.123448  -0.252396  -0.321021  -0.110514
    5  C  1  Z    0.046791  -0.240634   0.095794   0.143487   0.299689
    6  C  1  S   -2.941581   0.526917  -0.283163  -1.058503   3.659638
    7  C  1  X    0.253860  -0.150523   0.264387   0.052049  -0.025064
    8  C  1  Y    0.510321   0.068000   0.533467   0.737198  -0.046108
    9  C  1  Z   -0.551281  -0.016730   0.372411  -0.649438   2.515897
   10  C  1  S   -0.556433   0.132125   0.787201   0.276369   0.793680
   11  C  1  X   -0.248360  -0.100855   0.014808   0.157125  -0.000677
   12  C  1  Y   -0.483366  -0.393042  -0.000128  -0.101103  -0.001226
   13  C  1  Z   -0.333757  -0.044802   0.818735   0.519736  -0.112446
   14  C  1 XX    0.944129   0.563749   0.294567   0.282295  -0.461824
   15  C  1 YY    1.024030   0.280092   0.342814  -0.012775  -0.663646
   16  C  1 ZZ    0.967023   0.414321   0.296249   0.213398   0.922505
   17  C  1 XY    0.071218  -0.252951   0.043025  -0.263135  -0.293924
   18  C  1 XZ   -0.043247  -0.091508  -0.170133  -0.307187  -0.127135
   19  C  1 YZ   -0.013243   0.357336  -0.240985   0.413049  -0.233833
   20  O  2  S   -0.176147   0.107230   0.167369  -0.151994  -0.037126
   21  O  2  S   -0.298574  -0.244381   0.041915   0.562708   0.132476
   22  O  2  X   -0.154155   0.222702   0.109485  -0.095089   0.047453
   23  O  2  Y   -0.270966   0.507726   0.214457   0.009742   0.087263
   24  O  2  Z    0.107316  -0.130027  -0.050315   0.147343   0.027531
   25  O  2  S    2.353457  -0.397314  -1.586955   0.706600  -2.236239
   26  O  2  X   -0.122201  -0.335948   0.004344   0.431854   0.006589
   27  O  2  Y   -0.290965  -1.138650  -0.062026  -0.180406   0.012150
   28  O  2  Z   -0.150145  -0.030800   0.828585  -0.318793   1.934762
   29  O  2  S    1.449860  -0.534099  -1.037399   0.017509  -2.149810
   30  O  2  X    0.343613   0.404326  -0.209151  -0.431926   0.035183
   31  O  2  Y    0.658676   0.948567  -0.358716  -0.405064   0.064675
   32  O  2  Z   -0.998228   0.411739  -0.858169  -0.268402   0.203430
   33  O  2 XX   -0.592868   0.257200   0.707554  -0.191333  -0.015296
   34  O  2 YY   -0.655036   0.079412   0.721840  -0.349946  -0.128727
   35  O  2 ZZ   -0.627606   0.852401   0.301103  -0.561864  -0.621867
   36  O  2 XY   -0.055404  -0.158394   0.012706  -0.141254   0.305565
   37  O  2 XZ   -0.010064  -0.090501   0.158010  -0.438527  -0.135908
   38  O  2 YZ    0.038154   0.283364   0.352243   0.029471  -0.249962

                     21         22         23         24         25

                    0.0000     0.0000     0.0000     0.0000    -0.0000

    1  C  1  S    0.194704   0.008136   0.023020   0.149716   0.000005
    2  C  1  S   -0.406404  -1.128690   0.319564  -0.427731  -0.000017
    3  C  1  X    0.012133   0.010409  -0.002556   0.010254   0.129557
    4  C  1  Y    0.022320   0.019141  -0.004698   0.018860   0.390200
    5  C  1  Z    0.107875   0.163118   0.119522   0.182781  -0.000010
    6  C  1  S    0.698990   5.562952  -0.972030   0.176890  -0.000748
    7  C  1  X    0.004937   0.004320  -0.001086   0.004209  -0.865495
    8  C  1  Y    0.009129   0.007940  -0.001974   0.007761  -0.523557
    9  C  1  Z    1.274150   2.568498  -0.529160   0.125120  -0.000566
   10  C  1  S   -2.624195   3.162377   0.243188   0.124313   0.000279
   11  C  1  X    0.000154   0.000116  -0.000021   0.000123   0.320118
   12  C  1  Y    0.000251   0.000214  -0.000053   0.000212  -0.060995
   13  C  1  Z   -1.568854   0.680314   0.025557  -0.463607   0.000371
   14  C  1 XX    0.428698   0.058634   0.347957   0.603937   0.000094
   15  C  1 YY    0.394834   0.228137  -0.340271   0.573722   0.000025
   16  C  1 ZZ    0.527703   0.602623   0.101235   0.336391  -0.000054
   17  C  1 XY    0.118730   0.286337  -0.231903  -0.287048  -0.000064
   18  C  1 XZ    0.025517   0.021996  -0.005434   0.021609  -0.879258
   19  C  1 YZ    0.047003   0.040446  -0.009957   0.039771   0.011476
   20  O  2  S    0.367370  -0.097424  -0.059536   0.092537  -0.000079
   21  O  2  S    1.597456   0.088229  -0.515115   0.155428   0.000020
   22  O  2  X   -0.009568  -0.008212   0.002014  -0.008087  -0.266842
   23  O  2  Y   -0.017581  -0.015103   0.003711  -0.014866  -0.183283
   24  O  2  Z   -0.028703   0.113963   0.008811   0.043346   0.000042
   25  O  2  S   -7.767689  -0.706764   1.827612  -1.144269   0.001162
   26  O  2  X   -0.001259  -0.001139   0.000304  -0.001091   1.017441
   27  O  2  Y   -0.002395  -0.002091   0.000523  -0.002039   0.248054
   28  O  2  Z    0.859819   1.281693  -0.112262   0.093809  -0.000359
   29  O  2  S    5.284463  -6.729920  -0.415619  -0.070017  -0.000322
   30  O  2  X   -0.007054  -0.006075   0.001492  -0.005971  -0.225510
   31  O  2  Y   -0.012938  -0.011171   0.002759  -0.010965   0.233873
   32  O  2  Z   -0.260765   2.253072  -0.077776   0.828342  -0.000125
   33  O  2 XX    1.181928  -0.298634  -0.835660   0.765346  -0.000169
   34  O  2 YY    1.548595  -0.088816   0.652600   0.420019  -0.000278
   35  O  2 ZZ    0.929114  -0.659465  -0.520001  -0.277856  -0.000154
   36  O  2 XY   -0.204267  -0.295318  -0.034154   0.620073  -0.000091
   37  O  2 XZ    0.027332   0.023523  -0.005800   0.023134  -0.562015
   38  O  2 YZ    0.050331   0.043255  -0.010635   0.042571   0.358378

                     26         27         28         29         30

                   -0.0000    -0.0000    -0.0000    -0.0000    -0.0000

    1  C  1  S    0.017603   0.074119  -0.119866  -0.067017   0.258639
    2  C  1  S   -0.145294   0.011283  -0.052316   1.262923  -1.035354
    3  C  1  X   -0.207370   0.224010  -0.140772   0.040480   0.034825
    4  C  1  Y   -0.381420   0.320644  -0.252225   0.123492   0.057861
    5  C  1  Z   -0.064965   0.143422  -0.095864   0.240626   0.046845
    6  C  1  S   -0.719351  -1.058522   0.283462  -0.527062  -2.941071
    7  C  1  X   -0.086178  -0.051849   0.264426  -0.150337  -0.253848
    8  C  1  Y   -0.158866  -0.737362   0.533092   0.067906  -0.510260
    9  C  1  Z   -0.512916  -0.649452  -0.372468   0.016470  -0.551245
   10  C  1  S   -0.221798   0.276583  -0.787402  -0.132474  -0.556542
   11  C  1  X   -0.002437  -0.157325   0.015693  -0.098696   0.248332
   12  C  1  Y   -0.004217   0.101144   0.000003  -0.393192   0.483267
   13  C  1  Z   -0.048608   0.519899  -0.819038   0.044363  -0.333639
   14  C  1 XX    0.186923   0.282173  -0.294681  -0.564226   0.944123
   15  C  1 YY    0.259239  -0.012812  -0.342987  -0.280480   1.024054
   16  C  1 ZZ   -0.191348   0.213276  -0.296328  -0.414670   0.966886
   17  C  1 XY    0.095436  -0.263062  -0.043077   0.253031   0.071244
   18  C  1 XZ   -0.438353   0.307181  -0.169831  -0.091321   0.043232
   19  C  1 YZ   -0.806738  -0.413873  -0.241032   0.357201   0.013274
   20  O  2  S    0.032683  -0.151970  -0.167400  -0.107338  -0.176178
   21  O  2  S    0.072747   0.562349  -0.041955   0.244414  -0.298503
   22  O  2  X    0.163807   0.095375   0.108920   0.221682   0.154184
   23  O  2  Y    0.301136  -0.009410   0.214166   0.507898   0.271043
   24  O  2  Z   -0.002009   0.147286   0.050358   0.130146   0.107085
   25  O  2  S    0.080482   0.707175   1.587273   0.398212   2.353578
   26  O  2  X    0.022412  -0.432359   0.005486  -0.333341   0.122161
   27  O  2  Y    0.041828   0.180408  -0.061795  -1.139505   0.290798
   28  O  2  Z   -0.440253  -0.318736  -0.828914   0.030127  -0.149752
   29  O  2  S    0.595763   0.016973   1.037634   0.534993   1.449622
   30  O  2  X    0.121439   0.432316  -0.210822   0.400349  -0.343575
   31  O  2  Y    0.223034   0.405284  -0.358491   0.949831  -0.658536
   32  O  2  Z    0.081023  -0.268556   0.858590  -0.411260  -0.998312
   33  O  2 XX    0.106441  -0.191352  -0.707736  -0.257672  -0.592920
   34  O  2 YY    0.135980  -0.349946  -0.722041  -0.079783  -0.655085
   35  O  2 ZZ    0.194384  -0.561701  -0.301040  -0.852740  -0.627842
   36  O  2 XY   -0.084136  -0.141232  -0.012723   0.158484  -0.055403
   37  O  2 XZ   -0.468701   0.438419   0.158395  -0.089834   0.010071
   38  O  2 YZ   -0.862466  -0.030345   0.352020   0.283145  -0.038097

                     31         32         33         34         35

                   -0.0000    -0.0000    -0.0000    -0.0000    -0.0000

    1  C  1  S   -0.112758  -0.115080   0.113254  -0.060094  -0.043033
    2  C  1  S    0.530321   0.670147  -1.235383  -2.038842   0.798383
    3  C  1  X   -0.019233   0.000007  -0.000000   0.000000  -0.000000
    4  C  1  Y   -0.050672   0.000001  -0.000000  -0.000000  -0.000000
    5  C  1  Z    0.131124  -0.081935   1.203999  -1.342890   0.125466
    6  C  1  S    2.015574  -1.690646   1.433792  -0.036194   0.748406
    7  C  1  X    0.105841  -0.000032  -0.000000  -0.000000   0.000000
    8  C  1  Y    0.086224  -0.000132  -0.000001   0.000000   0.000000
    9  C  1  Z    0.631726   0.053438  -0.441169  -0.256796   0.531241
   10  C  1  S   -0.541468   0.099594  -0.500484  -0.062484   0.171822
   11  C  1  X   -0.531905  -0.000130  -0.000000  -0.000000  -0.000000
   12  C  1  Y   -0.916619  -0.000196  -0.000001  -0.000000  -0.000000
   13  C  1  Z   -0.262003  -0.596318   0.470812   0.151810   0.222524
   14  C  1 XX   -0.283439  -0.205476   0.165627   0.281305   0.052593
   15  C  1 YY   -0.372093  -0.249146   0.289980   0.229626   0.059350
   16  C  1 ZZ   -0.484451   0.273590   1.162567  -0.499493  -0.307931
   17  C  1 XY   -0.079061  -0.038915   0.110870  -0.046031   0.006096
   18  C  1 XZ    0.061044   0.000049   0.000000   0.000000   0.000000
   19  C  1 YZ   -0.052830  -0.000026  -0.000000   0.000000  -0.000000
   20  O  2  S   -0.026162   0.054644  -0.034840  -0.071319  -0.018705
   21  O  2  S    0.246746  -0.130572  -0.308646   0.056296   0.906338
   22  O  2  X    0.056934   0.000041   0.000000  -0.000000  -0.000000
   23  O  2  Y    0.075593   0.000056   0.000001   0.000000  -0.000000
   24  O  2  Z    0.013565   0.941264   0.728307  -0.130087  -0.215515
   25  O  2  S   -0.533496  -0.263520   0.027301   1.536604  -1.572286
   26  O  2  X   -0.107799   0.000012   0.000001   0.000000   0.000000
   27  O  2  Y   -0.039707   0.000135   0.000000  -0.000000   0.000000
   28  O  2  Z    0.598102  -1.306155   0.404158  -1.946677   1.072439
   29  O  2  S   -0.886677   0.945843  -0.411879  -0.206952  -0.590167
   30  O  2  X    0.278808   0.000002  -0.000001   0.000000  -0.000000
   31  O  2  Y    0.455709  -0.000040  -0.000000   0.000000  -0.000000
   32  O  2  Z    0.164692   0.149345  -0.023642   0.215960  -0.024208
   33  O  2 XX    0.121649   0.080916  -0.186608  -0.566041  -0.420735
   34  O  2 YY   -0.020901   0.080423   0.026101  -0.218403   0.000753
   35  O  2 ZZ   -0.237964   0.458917  -0.619682   0.980059   0.383720
   36  O  2 XY   -0.127093  -0.000503   0.189752   0.310017   0.375634
   37  O  2 XZ    0.049141   0.000019   0.000000   0.000000   0.000000
   38  O  2 YZ   -0.051730  -0.000066  -0.000000  -0.000000  -0.000000

                     36         37         38

                   -0.0003    -0.0003    -0.0056

    1  C  1  S   -0.000000  -0.000000   0.004629
    2  C  1  S   -0.000000   0.000000   0.218783
    3  C  1  X   -0.535398   0.407435  -0.000000
    4  C  1  Y    0.291737   0.748638   0.000000
    5  C  1  Z   -0.000000   0.000000  -0.519919
    6  C  1  S   -0.000000   0.000000  -1.545186
    7  C  1  X    0.421622   0.047243   0.000000
    8  C  1  Y   -0.229270   0.087307   0.000000
    9  C  1  Z   -0.000000   0.000000  -0.957129
   10  C  1  S    0.000000  -0.000000  -0.516395
   11  C  1  X   -0.381695   0.024599  -0.000000
   12  C  1  Y    0.207488   0.044683  -0.000000
   13  C  1  Z    0.000000  -0.000000   0.032953
   14  C  1 XX   -0.000000  -0.000000  -0.382876
   15  C  1 YY   -0.000000  -0.000000  -0.053758
   16  C  1 ZZ   -0.000000  -0.000000   0.440081
   17  C  1 XY   -0.000000   0.000000   0.293443
   18  C  1 XZ    0.197427  -0.080158   0.000000
   19  C  1 YZ   -0.107416  -0.147099  -0.000000
   20  O  2  S    0.000000  -0.000000  -0.092995
   21  O  2  S   -0.000000   0.000000  -0.150747
   22  O  2  X   -0.631492   0.026777  -0.000000
   23  O  2  Y    0.343368   0.048401  -0.000000
   24  O  2  Z   -0.000000  -0.000000  -0.115244
   25  O  2  S   -0.000000  -0.000000   1.734733
   26  O  2  X    0.571249  -0.223910  -0.000000
   27  O  2  Y   -0.310951  -0.411108   0.000000
   28  O  2  Z   -0.000000   0.000000  -0.762294
   29  O  2  S   -0.000000  -0.000000   0.364439
   30  O  2  X    0.268667  -0.187020   0.000000
   31  O  2  Y   -0.146185  -0.343351   0.000000
   32  O  2  Z    0.000000   0.000000   0.026955
   33  O  2 XX    0.000000  -0.000000  -0.094442
   34  O  2 YY    0.000000  -0.000000  -0.085263
   35  O  2 ZZ    0.000000  -0.000000  -0.117580
   36  O  2 XY   -0.000000   0.000000   0.008184
   37  O  2 XZ   -0.149884  -0.021771   0.000000
   38  O  2 YZ    0.081422  -0.040288  -0.000000

 THE TDDFT NATURAL ORBITALS HAVE BEEN PUNCHED.
 ..... DONE WITH TD-DFT EXCITED STATE RESPONSE AND DENSITY MATRIX .....
 STEP CPU TIME =     1.03 TOTAL CPU TIME =        3.8 (    0.1 MIN)
 TOTAL WALL CLOCK TIME=        6.6 SECONDS, CPU UTILIZATION IS  57.64%

     ------------------------------------------
     PROPERTIES FOR THE PBE0     DFT FUNCTIONAL
      USING THE RELAXED DENSITY OF EXCITED STATE    1
     ------------------------------------------

          -----------------
          ENERGY COMPONENTS
          -----------------

         WAVEFUNCTION NORMALIZATION =       1.0000000000

                ONE ELECTRON ENERGY =    -196.8381075726
                TWO ELECTRON ENERGY =      61.8700518432
           NUCLEAR REPULSION ENERGY =      22.0925909486
                                      ------------------
                       TOTAL ENERGY =    -112.8754647808

 ELECTRON-ELECTRON POTENTIAL ENERGY =      61.8700518432
  NUCLEUS-ELECTRON POTENTIAL ENERGY =    -309.0960943853
   NUCLEUS-NUCLEUS POTENTIAL ENERGY =      22.0925909486
                                      ------------------
             TOTAL POTENTIAL ENERGY =    -225.1334515935
               TOTAL KINETIC ENERGY =     112.2579868127
                 VIRIAL RATIO (V/T) =       2.0055005259

          ---------------------------------------
          MULLIKEN AND LOWDIN POPULATION ANALYSES
          ---------------------------------------

     ATOMIC MULLIKEN POPULATION IN EACH MOLECULAR ORBITAL

                      1          2          3          4          5

                  2.000000   2.000000   2.000000   2.000000   2.000000

    1            -0.000132   1.999686   0.562510   0.469158   0.519863
    2             2.000132   0.000314   1.437490   1.530842   1.480137

                      6          7

                  2.000000   2.000000

    1             0.519863   1.786664
    2             1.480137   0.213336

               ----- POPULATIONS IN EACH AO -----
                             MULLIKEN      LOWDIN
              1  C  1  S      1.99331     1.97190
              2  C  1  S      0.77359     0.40464
              3  C  1  X      0.67358     0.60829
              4  C  1  Y      0.46345     0.41030
              5  C  1  Z      0.55323     0.49414
              6  C  1  S      0.58766     0.30401
              7  C  1  X      0.37036     0.37902
              8  C  1  Y      0.20327     0.24266
              9  C  1  Z      0.08304     0.23830
             10  C  1  S      0.04287     0.07899
             11  C  1  X      0.12334     0.10375
             12  C  1  Y      0.04302     0.04259
             13  C  1  Z      0.01696     0.02714
             14  C  1 XX     -0.03345     0.12058
             15  C  1 YY     -0.01942     0.13115
             16  C  1 ZZ      0.03237     0.22963
             17  C  1 XY      0.00029     0.00029
             18  C  1 XZ      0.01813     0.04366
             19  C  1 YZ      0.01978     0.03835
             20  O  2  S      1.99296     1.97649
             21  O  2  S      0.95534     0.73547
             22  O  2  X      1.03551     0.97784
             23  O  2  Y      0.94022     0.87808
             24  O  2  Z      0.83127     0.74723
             25  O  2  S      0.93410     0.39915
             26  O  2  X      0.54875     0.54228
             27  O  2  Y      0.53548     0.51547
             28  O  2  Z      0.29299     0.41732
             29  O  2  S     -0.02492     0.11659
             30  O  2  X     -0.01600     0.07997
             31  O  2  Y      0.00894     0.07997
             32  O  2  Z     -0.00680     0.11624
             33  O  2 XX     -0.00626     0.15316
             34  O  2 YY     -0.00305     0.15539
             35  O  2 ZZ      0.00974     0.18800
             36  O  2 XY      0.00001     0.00001
             37  O  2 XZ      0.01379     0.03265
             38  O  2 YZ      0.01256     0.01930

          ----- MULLIKEN ATOMIC OVERLAP POPULATIONS -----
          (OFF-DIAGONAL ELEMENTS NEED TO BE MULTIPLIED BY 2)

             1           2

    1    5.7783113
    2    0.1670839   7.8875208

          TOTAL MULLIKEN AND LOWDIN ATOMIC POPULATIONS
       ATOM         MULL.POP.    CHARGE          LOW.POP.     CHARGE
    1 C             5.945395    0.054605         5.869384    0.130616
    2 O             8.054605   -0.054605         8.130616   -0.130616

          -------------------------------
          BOND ORDER AND VALENCE ANALYSIS     BOND ORDER THRESHOLD=0.050
          -------------------------------

                   BOND                       BOND                       BOND
  ATOM PAIR DIST  ORDER      ATOM PAIR DIST  ORDER      ATOM PAIR DIST  ORDER
    1   2  1.150  1.774

                       TOTAL       BONDED        FREE
      ATOM            VALENCE     VALENCE     VALENCE
    1 C                 3.296       1.774       1.522
    2 O                 2.253       1.774       0.479

          ---------------------
          ELECTROSTATIC MOMENTS
          ---------------------

 POINT   1           X           Y           Z (BOHR)    CHARGE
                 0.000000    0.000000    1.241359       -0.00 (A.U.)
         DX          DY          DZ         /D/  (DEBYE)
    -0.000000    0.000000   -0.149120    0.149120
 ...... END OF PROPERTY EVALUATION ......
 STEP CPU TIME =     0.00 TOTAL CPU TIME =        3.8 (    0.1 MIN)
 TOTAL WALL CLOCK TIME=        6.6 SECONDS, CPU UTILIZATION IS  57.64%

 BEGINNING ONE ELECTRON GRADIENT...
 ..... END OF 1-ELECTRON GRADIENT ......
 STEP CPU TIME =     0.00 TOTAL CPU TIME =        3.8 (    0.1 MIN)
 TOTAL WALL CLOCK TIME=        6.6 SECONDS, CPU UTILIZATION IS  57.64%

          ----------------------
          GRADIENT OF THE ENERGY
          ----------------------
 MEMORY FOR GRID POINT CONTRIBUTIONS TO THE TD-DFT GRADIENT=    844792 WORDS.
 STEP CPU TIME =     1.76 TOTAL CPU TIME =        5.6 (    0.1 MIN)
 TOTAL WALL CLOCK TIME=        8.4 SECONDS, CPU UTILIZATION IS  66.15%

 THE MINIMUM MEMORY REQUIRED FOR THIS RUN IS      79211 WORDS.
 USING    1054731 WORDS FOR 2E- DERIVATIVE INTEGRAL CONTRIBUTIONS.
 THE COARSE/FINE SCHWARZ SCREENINGS SKIPPED            0/           0 BLOCKS.
 THE NUMBER OF GRADIENT INTEGRAL BLOCKS COMPUTED WAS      1300
 ...... END OF 2-ELECTRON GRADIENT ......
 STEP CPU TIME =     0.08 TOTAL CPU TIME =        5.6 (    0.1 MIN)
 TOTAL WALL CLOCK TIME=        8.5 SECONDS, CPU UTILIZATION IS  66.47%

                         ----------------------
                         GRADIENT OF THE ENERGY
                         ----------------------

 UNITS ARE HARTREE/BOHR    E'X               E'Y               E'Z 
    1 C                0.000000000       0.000000000       0.145786592
    2 O                0.000000000       0.000000000      -0.145786592

                   MAXIMUM GRADIENT =    0.145786592
                       RMS GRADIENT =    0.084169928
  $VIB   
          IVIB=   0 IATOM=   0 ICOORD=   0 E=     -112.8754647808
  0.000000000E+00 0.000000000E+00 1.457865917E-01 0.000000000E+00 0.000000000E+00
 -1.457865917E-01
 -2.173064129E-10 1.181574787E-10-1.491197772E-01

..... END OF SINGLE POINT GRADIENT .....
 STEP CPU TIME =     0.00 TOTAL CPU TIME =        5.6 (    0.1 MIN)
 TOTAL WALL CLOCK TIME=        8.5 SECONDS, CPU UTILIZATION IS  66.47%
               844792  WORDS OF DYNAMIC MEMORY USED
 EXECUTION OF GAMESS TERMINATED NORMALLY Tue Nov 29 02:43:13 2016
 DDI: 263640 bytes (0.3 MB / 0 MWords) used by master data server.

 ----------------------------------------
 CPU timing information for all processes
 ========================================
 0: 5.583 + 0.81 = 5.665
 ----------------------------------------
 ddikick.x: exited gracefully.
unset echo
----- accounting info -----
Files used on the master node compute-3-0 were:
-rw-rw-r-- 1 sarom sarom   48754 Nov 29  2016 .//tddft-co-tammd.dat
-rw-rw-r-- 1 sarom sarom    1025 Nov 29  2016 .//tddft-co-tammd.F05
-rw-rw-r-- 1 sarom sarom  900080 Nov 29  2016 .//tddft-co-tammd.F08
-rw-rw-r-- 1 sarom sarom 1799600 Nov 29  2016 .//tddft-co-tammd.F10
-rw-rw-r-- 1 sarom sarom  826576 Nov 29  2016 .//tddft-co-tammd.F22
-rw-rw-r-- 1 sarom sarom    1025 Nov 28 17:27 .//tddft-co-tammd.inp
-rw-rw-r-- 1 sarom sarom   88744 Nov 29  2016 .//tddft-co-tammd.log
Tue Nov 29 02:43:16 CST 2016
0.186u 0.593s 0:12.35 6.2%	0+0k 0+136io 0pf+0w
