-catch_rsh /opt/gridengine/default/spool/compute-0-1/active_jobs/23847.1/pe_hostfile
compute-0-1
The primary node assigned by SGE to this run is compute-0-1
Warning: no access to tty (Bad file descriptor).
Thus no job control in this shell.
source /home/sarom/gamess.github.2017-05-31.14.06/install.info
setenv GMS_PATH /home/sarom/gamess.github.2017-05-31.14.06
setenv GMS_BUILD_DIR /home/sarom/gamess.github.2017-05-31.14.06
setenv GMS_TARGET linux64
setenv GMS_FORTRAN gfortran
setenv GMS_GFORTRAN_VERNO 4.4
setenv GMS_MATHLIB mkl-so
setenv GMS_MATHLIB_PATH /share/apps/intel/compilers_and_libraries_2017.1.132/linux/mkl/lib/intel64
setenv GMS_MKL_VERNO 12
setenv GMS_DDI_COMM sockets
setenv GMS_LIBCCHEM false
setenv GMS_EIGEN_PATH
setenv GMS_PHI false
setenv GMS_SHMTYPE sysv
setenv GMS_OPENMP false
unset echo
utddft-o2
tests/tddft
----- GAMESS execution script 'rungms' -----
This job is running on host compute-0-1.local
under operating system Linux at Fri Jun 2 03:28:12 CDT 2017
Available scratch disk space (Kbyte units) at beginning of the job is
Filesystem           1K-blocks      Used Available Use% Mounted on
/dev/sda1             16126920   3867344  11440376  26% /
GAMESS temporary binary files will be written to /scratch
GAMESS supplementary output files will be written to /home/sarom/restart
Copying input file utddft-o2.inp to your run's scratch directory...
cp tests/tddft/utddft-o2.inp /scratch/utddft-o2.F05
unset echo
The generated host list is
compute-0-1.local
/home/sarom/gamess.github.2017-05-31.14.06/ddikick.x /home/sarom/gamess.github.2017-05-31.14.06/gamess.00.x utddft-o2 -ddi 1 1 compute-0-1.local -scr /scratch

 Distributed Data Interface kickoff program.
 Initiating 1 compute processes on 1 nodes to run the following command:
 /home/sarom/gamess.github.2017-05-31.14.06/gamess.00.x utddft-o2 

          ******************************************************
          *         GAMESS VERSION = 20 APR 2017 (R1)          *
          *             FROM IOWA STATE UNIVERSITY             *
          * M.W.SCHMIDT, K.K.BALDRIDGE, J.A.BOATZ, S.T.ELBERT, *
          *   M.S.GORDON, J.H.JENSEN, S.KOSEKI, N.MATSUNAGA,   *
          *          K.A.NGUYEN, S.J.SU, T.L.WINDUS,           *
          *       TOGETHER WITH M.DUPUIS, J.A.MONTGOMERY       *
          *         J.COMPUT.CHEM.  14, 1347-1363(1993)        *
          **************** 64 BIT LINUX VERSION ****************

  SINCE 1993, STUDENTS AND POSTDOCS WORKING AT IOWA STATE UNIVERSITY
  AND ALSO IN THEIR VARIOUS JOBS AFTER LEAVING ISU HAVE MADE IMPORTANT
  CONTRIBUTIONS TO THE CODE:
     IVANA ADAMOVIC, CHRISTINE AIKENS, YURI ALEXEEV, POOJA ARORA,
     ANDREY ASADCHEV, ROB BELL, PRADIPTA BANDYOPADHYAY, JONATHAN BENTZ,
     BRETT BODE, KURT BRORSEN, CALEB CARLIN, GALINA CHABAN, WEI CHEN,
     CHEOL HO CHOI, PAUL DAY, ALBERT DEFUSCO, NUWAN DESILVA, TIM DUDLEY,
     DMITRI FEDOROV, GRAHAM FLETCHER, MARK FREITAG, KURT GLAESEMANN,
     DAN KEMP, GRANT MERRILL, NORIYUKI MINEZAWA, JONATHAN MULLIN,
     TAKESHI NAGATA, SEAN NEDD, HEATHER NETZLOFF, BOSILJKA NJEGIC, RYAN OLSON,
     MIKE PAK, SPENCER PRUITT, LUKE ROSKOP, JIM SHOEMAKER, LYUDMILA SLIPCHENKO,
     TONY SMITH, SAROM SOK LEANG, JIE SONG, TETSUYA TAKETSUGU, SIMON WEBB,
     PENG XU, SOOHAENG YOO, FEDERICO ZAHARIEV

  ADDITIONAL CODE HAS BEEN PROVIDED BY COLLABORATORS IN OTHER GROUPS:
     IOWA STATE UNIVERSITY:
          JOE IVANIC, AARON WEST, LAIMUTIS BYTAUTAS, KLAUS RUEDENBERG
     UNIVERSITY OF TOKYO: KIMIHIKO HIRAO, TAKAHITO NAKAJIMA,
          TAKAO TSUNEDA, MUNEAKI KAMIYA, SUSUMU YANAGISAWA,
          KIYOSHI YAGI, MAHITO CHIBA, SEIKEN TOKURA, NAOAKI KAWAKAMI
     UNIVERSITY OF AARHUS: FRANK JENSEN
     UNIVERSITY OF IOWA: VISVALDAS KAIRYS, HUI LI
     NATIONAL INST. OF STANDARDS AND TECHNOLOGY: WALT STEVENS, DAVID GARMER
     UNIVERSITY OF PISA: BENEDETTA MENNUCCI, JACOPO TOMASI
     UNIVERSITY OF MEMPHIS: HENRY KURTZ, PRAKASHAN KORAMBATH
     UNIVERSITY OF ALBERTA: TOBY ZENG, MARIUSZ KLOBUKOWSKI
     UNIVERSITY OF NEW ENGLAND: MARK SPACKMAN
     MIE UNIVERSITY: HIROAKI UMEDA
     NAT. INST. OF ADVANCED INDUSTRIAL SCIENCE AND TECHNOLOGY: KAZUO KITAURA
     MICHIGAN STATE UNIVERSITY:
          KAROL KOWALSKI, MARTA WLOCH, JEFFREY GOUR, JESSE LUTZ,
          WEI LI, PIOTR PIECUCH
     UNIVERSITY OF SILESIA: MONIKA MUSIAL, STANISLAW KUCHARSKI
     FACULTES UNIVERSITAIRES NOTRE-DAME DE LA PAIX:
          OLIVIER QUINET, BENOIT CHAMPAGNE
     UNIVERSITY OF CALIFORNIA - SANTA BARBARA: BERNARD KIRTMAN
     INSTITUTE FOR MOLECULAR SCIENCE:
          KAZUYA ISHIMURA, MICHIO KATOUDA, AND SHIGERU NAGASE
     UNIVERSITY OF NOTRE DAME: ANNA POMOGAEVA, DAN CHIPMAN
     KYUSHU UNIVERSITY:
          HARUYUKI NAKANO,
          FENG LONG GU, JACEK KORCHOWIEC, MARCIN MAKOWSKI, AND YURIKO AOKI,
          HIROTOSHI MORI AND EISAKU MIYOSHI
     PENNSYLVANIA STATE UNIVERSITY:
          TZVETELIN IORDANOV, CHET SWALINA, JONATHAN SKONE,
          SHARON HAMMES-SCHIFFER
     WASEDA UNIVERSITY:
          MASATO KOBAYASHI, TOMOKO AKAMA, TSUGUKI TOUMA,
          TAKESHI YOSHIKAWA, YASUHIRO IKABATA, JUNJI SEINO,
          YUYA NAKAJIMA, HIROMI NAKAI
     NANJING UNIVERSITY: SHUHUA LI
     UNIVERSITY OF NEBRASKA:
          PEIFENG SU, DEJUN SI, NANDUN THELLAMUREGE, YALI WANG, HUI LI
     UNIVERSITY OF ZURICH: ROBERTO PEVERATI, KIM BALDRIDGE
     N. COPERNICUS UNIVERSITY AND JACKSON STATE UNIVERSITY:
          MARIA BARYSZ
     UNIVERSITY OF COPENHAGEN: Jimmy Kromann, CASPER STEINMANN
     TOKYO INSTITUTE OF TECHNOLOGY: HIROYA NAKATA
     NAGOYA UNIVERSITY: YOSHIO NISHIMOTO, STEPHAN IRLE
     MOSCOW STATE UNIVERSITY: VLADIMIR MIRONOV

 EXECUTION OF GAMESS BEGUN Fri Jun  2 03:28:12 2017

            ECHO OF THE FIRST FEW INPUT CARDS -
 INPUT CARD>!  O2 excited states by TD-DFT.                                                 
 INPUT CARD>!  Only triplet excited states can be accessed by this run.                     
 INPUT CARD>!  Supplementation of aug-cc-pVDZ with exponents of s(0.01), p(0.02),           
 INPUT CARD>!  and d(0.04) has an impact of more than 1 eV on some of the states.           
 INPUT CARD>!  This job has 70 AOs and 64 MOs.                                              
 INPUT CARD>!                                                                               
 INPUT CARD>!  experimentally, the triplet states of O2 are known to be (Huber/Herzberg)    
 INPUT CARD>!         D-inf-h         D4h       D2h label(s)                                
 INPUT CARD>!     X-3-sigma-g-minus = A2g     = B1g       =    0.0 cm-1 =   0.00 eV,        
 INPUT CARD>!     A'-3-delta-u      = B1u+B2u = Au + B1u  = (34690)     =  (4.3)            
 INPUT CARD>!     A-3-sigma-u-plus  = A2u     = B1u       = 33597.8     =   4.17  (*)       
 INPUT CARD>!     B-3-sigma-u-minus = A1u     = Au        = 49793.3     =   6.17 (**)       
 INPUT CARD>!     C-3-pi-g          = Eg      = B2g + B3g = (65530)     =  (8.1)            
 INPUT CARD>!     e'-3-delta-u(2u?) = B1u+B2u = Au + B1u  = (74915)     =  (9.3)            
 INPUT CARD>!     D-3-sigma-u-plus  = A2u     = B1u       = (75260)     =  (9.3)            
 INPUT CARD>!     E-3-sigma-u-minus = A1u     = Au        = (79883)     =  (9.9)            
 INPUT CARD>!     F-3-pi-u          = Eu      = B2u + B3u = (85780)     = (10.6)            
 INPUT CARD>!        * called the Herzberg I band                                           
 INPUT CARD>!       ** called the Schumann-Runge band, it is very famous.                   
 INPUT CARD>!  Note, NIST Webbook's experimental data is identical to the 1979 book.        
 INPUT CARD>!  D4h/D2h names are from Herzberg's table 59, page 576 of his 3rd book.        
 INPUT CARD>!                                                                               
 INPUT CARD>!  Agreement with experiment is somewhat dubious:                               
 INPUT CARD>!  FINAL B3LYP E= -150.2900111191, 15 iters, S**2=2.009, Ne=15.9999992421       
 INPUT CARD>!  STATE     ENERGY     EXCITATION      TRANSITION DIPOLE    OSCILLATOR         
 INPUT CARD>!           HARTREE          EV         X       Y       Z     STRENGTH          
 INPUT CARD>!  0            -150.2900111278    0.000                                        
 INPUT CARD>!  1            -150.0662707181    6.088     0.0000  0.0000  0.0000    0.000    
 INPUT CARD>!  2            -150.0662688692    6.088     0.0000  0.0000  0.0000    0.000    
 INPUT CARD>!  3            -150.0495956161    6.542     0.0000  0.0000  0.0000    0.000    
 INPUT CARD>!  4            -150.0105089983    7.606     0.0000  0.0000  0.0000    0.000    
 INPUT CARD>!  5            -150.0105089933    7.606     0.0000  0.0000  0.0000    0.000    
 INPUT CARD>!  6            -149.9989587578    7.920     0.0000  0.0000  0.0000    0.000    
 INPUT CARD>!  7            -149.9989587251    7.920     0.0000  0.0000  0.0000    0.000    
 INPUT CARD>!  8            -149.9889314178    8.193     0.1633  0.0003  0.0000    0.005    
 INPUT CARD>!  9            -149.9889313972    8.193     0.0003 -0.1633  0.0000    0.005    
 INPUT CARD>! 10            -149.9860988611    8.270     0.0000  0.0000  0.6968    0.098    
 INPUT CARD>! 11            -149.9774422363    8.505     0.0000  0.0000  0.0000    0.000    
 INPUT CARD>! 12            -149.9773434882    8.508     0.0000  0.0000  0.0000    0.000    
 INPUT CARD>! 13            -149.9758581854    8.549     0.0000  0.0000  0.0000    0.000    
 INPUT CARD>! 14            -149.9588714421    9.011    -0.0001 -0.1249  0.0000    0.003    
 INPUT CARD>! 15            -149.9588714335    9.011     0.1249 -0.0001  0.0000    0.003    
 INPUT CARD>! 16            -149.9575319297    9.047     0.0000  0.0000 -0.5966    0.079    
 INPUT CARD>!  These are mostly several volts high, including the famous Schumann-Runge     
 INPUT CARD>!  band, so the F state lies below B, since F is over 2 eV below experiment.    
 INPUT CARD>!  According to TD-DFT, the largest contribution to the B state is the          
 INPUT CARD>!  excitation of an alpha pi-g* electron to a Rydberg pi-u orbital.             
 INPUT CARD>!                                                                               
 INPUT CARD>!  It therefore seems likely that double excitations are important!             
 INPUT CARD>!                                                                               
    6000000 WORDS OF MEMORY AVAILABLE


     RUN TITLE
     ---------
 triplet O2 open shell TDDFT test case...ground state's exp. Re used             

 THE POINT GROUP OF THE MOLECULE IS DNH     
 THE ORDER OF THE PRINCIPAL AXIS IS     2

 ATOM      ATOMIC                      COORDINATES (BOHR)
           CHARGE         X                   Y                   Z
 O           8.0     0.0000000000        0.0000000000       -1.1409409623
 O           8.0     0.0000000000        0.0000000000        1.1409409623

          INTERNUCLEAR DISTANCES (ANGS.)
          ------------------------------

                1 O          2 O     

   1 O       0.0000000    1.2075200 *
   2 O       1.2075200 *  0.0000000  

  * ... LESS THAN  3.000


     ATOMIC BASIS SET
     ----------------
 THE CONTRACTED PRIMITIVE FUNCTIONS HAVE BEEN UNNORMALIZED
 THE CONTRACTED BASIS FUNCTIONS ARE NOW NORMALIZED TO UNITY

  SHELL TYPE  PRIMITIVE        EXPONENT          CONTRACTION COEFFICIENT(S)

 O         

     13   S       1         11720.0000000    0.000709645947
     13   S       2          1759.0000000    0.005467272292
     13   S       3           400.8000000    0.027823118610
     13   S       4           113.7000000    0.104747739711
     13   S       5            37.0300000    0.282920846357
     13   S       6            13.2700000    0.448495238698
     13   S       7             5.0250000    0.270816885213
     13   S       8             1.0130000    0.015450291607

     14   S       9         11720.0000000   -0.000314443412
     14   S      10          1759.0000000   -0.002482137681
     14   S      11           400.8000000   -0.012316355382
     14   S      12           113.7000000   -0.050538917344
     14   S      13            37.0300000   -0.139384903316
     14   S      14            13.2700000   -0.325077494818
     14   S      15             5.0250000   -0.229848307588
     14   S      16             1.0130000    1.095379346788

     15   S      17             0.3023000    1.000000000000

     16   P      18            17.7000000    0.062679166282
     16   P      19             3.8540000    0.333536565879
     16   P      20             1.0460000    0.741239641640

     17   P      21             0.2753000    1.000000000000

     18   D      22             1.1850000    1.000000000000

     19   S      23             0.0789600    1.000000000000

     20   P      24             0.0685600    1.000000000000

     21   D      25             0.3320000    1.000000000000

     22   S      26             0.0100000    1.000000000000

     23   P      27             0.0200000    1.000000000000

     24   D      28             0.0400000    1.000000000000

 TOTAL NUMBER OF BASIS SET SHELLS             =   24
 NUMBER OF CARTESIAN GAUSSIAN BASIS FUNCTIONS =   70
 NOTE: THIS RUN WILL RESTRICT THE MO VARIATION SPACE TO SPHERICAL HARMONICS.
 THE NUMBER OF ORBITALS KEPT IN THE VARIATIONAL SPACE WILL BE PRINTED LATER.
 NUMBER OF ELECTRONS                          =   16
 CHARGE OF MOLECULE                           =    0
 SPIN MULTIPLICITY                            =    3
 NUMBER OF OCCUPIED ORBITALS (ALPHA)          =    9
 NUMBER OF OCCUPIED ORBITALS (BETA )          =    7
 TOTAL NUMBER OF ATOMS                        =    2
 THE NUCLEAR REPULSION ENERGY IS       28.0470252678

 THIS MOLECULE IS RECOGNIZED AS BEING LINEAR,
 ORBITAL LZ DEGENERACY TOLERANCE ETOLLZ= 1.00E-06

     LEBEDEV GRID-BASED DFT OPTIONS
     ------------------------------
     DFTTYP=B3LYP   
     NRAD  =      96     NLEB  =     302
     NRAD0 =      24     NLEB0 =     110
     SWOFF =    5.00E-03 (PURE SCF -> DFT)
     SWITCH=    3.00E-04 (COARSE -> TIGHT GRID)
     THRESH=    0.00E+00 GTHRE=    1.00E+00

 GRIMME'S EMPIRICAL DISPERSION CORRECTION= F

     $CONTRL OPTIONS
     ---------------
 SCFTYP=UHF          RUNTYP=ENERGY       EXETYP=RUN     
 MPLEVL=       0     CITYP =NONE         CCTYP =NONE         VBTYP =NONE    
 DFTTYP=B3LYP        TDDFT =EXCITE  
 MULT  =       3     ICHARG=       0     NZVAR =       0     COORD =UNIQUE  
 PP    =NONE         RELWFN=NONE         LOCAL =NONE         NUMGRD=       F
 ISPHER=       1     NOSYM =       0     MAXIT =      30     UNITS =ANGS    
 PLTORB=       F     MOLPLT=       F     AIMPAC=       F     FRIEND=        
 NPRINT=       7     IREST =       0     GEOM  =INPUT   
 NORMF =       0     NORMP =       0     ITOL  =      20     ICUT  =       9
 INTTYP=BEST         GRDTYP=BEST         QMTTOL= 1.0E-06

     $SYSTEM OPTIONS
     ---------------
  REPLICATED MEMORY=     6000000 WORDS (ON EVERY NODE).
 DISTRIBUTED MEMDDI=           0 MILLION WORDS IN AGGREGATE,
 MEMDDI DISTRIBUTED OVER   1 PROCESSORS IS           0 WORDS/PROCESSOR.
 TOTAL MEMORY REQUESTED ON EACH PROCESSOR=     6000000 WORDS.
 TIMLIM=      525600.00 MINUTES, OR     365.0 DAYS.
 PARALL= F  BALTYP=  DLB     KDIAG=    0  COREFL= F
 MXSEQ2=     300 MXSEQ3=     150  mem10=         0

          ----------------
          PROPERTIES INPUT
          ----------------

     MOMENTS            FIELD           POTENTIAL          DENSITY
 IEMOM =       1   IEFLD =       0   IEPOT =       0   IEDEN =       0
 WHERE =COMASS     WHERE =NUCLEI     WHERE =NUCLEI     WHERE =NUCLEI  
 OUTPUT=BOTH       OUTPUT=BOTH       OUTPUT=BOTH       OUTPUT=BOTH    
 IEMINT=       0   IEFINT=       0                     IEDINT=       0
                                                       MORB  =       0
          EXTRAPOLATION IN EFFECT
          DIIS IN EFFECT
          DIIS or SOSCF will be reset if energy rises
 ORBITAL PRINTING OPTION: NPREO=     1    70     2     1

     -------------------------------
     INTEGRAL TRANSFORMATION OPTIONS
     -------------------------------
     NWORD  =            0
     CUTOFF = 1.0E-09     MPTRAN =       0
     DIRTRF =       T     AOINTS =DUP     

          ----------------------
          INTEGRAL INPUT OPTIONS
          ----------------------
 NOPK  =       1 NORDER=       0 SCHWRZ=       T

          ----------------------
          TDDFT INPUT PARAMETERS
          ----------------------
 NSTATE=      16  IROOT=       1   MULT=       3
 MAXVEC=      50 NTRIAL=       5 CNVTOL=  1.00E-07
 TDPRP =       F  TAMMD=       F    TPA=       F
 ALPHA =       F   BETA=       F  PFREQ=    0.00    0.00
   NRAD=      48   NLEB=     110

     ------------------------------------------
     THE POINT GROUP IS DNH, NAXIS= 2, ORDER= 8
     ------------------------------------------

 -- VARIATIONAL SPACE WILL BE RESTRICTED TO PURE SPHERICAL HARMONICS ONLY --
 AFTER EXCLUDING CONTAMINANT COMBINATIONS FROM THE CARTESIAN GAUSSIAN BASIS
 SET, THE NUMBER OF SPHERICAL HARMONICS KEPT IN THE VARIATION SPACE IS   64

     DIMENSIONS OF THE SYMMETRY SUBSPACES ARE
 AG  =   15     AU  =    3     B3U =    7     B3G =    7     B1G =    3
 B1U =   15     B2U =    7     B2G =    7

 ..... DONE SETTING UP THE RUN .....
 STEP CPU TIME =     0.02 TOTAL CPU TIME =        0.0 (    0.0 MIN)
 TOTAL WALL CLOCK TIME=        0.0 SECONDS, CPU UTILIZATION IS  66.67%

          ********************
          1 ELECTRON INTEGRALS
          ********************
 ...... END OF ONE-ELECTRON INTEGRALS ......
 STEP CPU TIME =     0.00 TOTAL CPU TIME =        0.0 (    0.0 MIN)
 TOTAL WALL CLOCK TIME=        0.0 SECONDS, CPU UTILIZATION IS  66.67%

          -------------
          GUESS OPTIONS
          -------------
          GUESS =HUCKEL            NORB  =       0          NORDER=       0
          MIX   =       F          PRTMO =       F          PUNMO =       F
          TOLZ  = 1.0E-08          TOLE  = 1.0E-05
          SYMDEN=       F          PURIFY=       F

 INITIAL GUESS ORBITALS GENERATED BY HUCKEL   ROUTINE.
 HUCKEL GUESS REQUIRES     37666 WORDS.

 STATISTICS FOR GENERATION OF SYMMETRY ORBITAL -Q- MATRIX
 NUMBER OF CARTESIAN ATOMIC ORBITALS=         70
 NUMBER OF SPHERICAL CONTAMINANTS DROPPED=     6
 NUMBER OF LINEARLY DEPENDENT MOS DROPPED=     0
 TOTAL NUMBER OF MOS IN VARIATION SPACE=      64

 SYMMETRIES FOR INITIAL GUESS ORBITALS FOLLOW.  ALPHA SET(S).
     9 ORBITALS ARE OCCUPIED (    2 CORE ORBITALS).
     3=AG       4=B1U      5=B3U      6=B2U      7=AG       8=B2G      9=B3G 
    10=B1U     11=AG      12=AG      13=AG      14=AG      15=AG      16=AG  
    17=AG      18=AG      19=AG  

 SYMMETRIES FOR INITIAL GUESS ORBITALS FOLLOW.   BETA SET(S).
     7 ORBITALS ARE OCCUPIED (    2 CORE ORBITALS).
     3=AG       4=B1U      5=B3U      6=B2U      7=AG       8=B2G      9=B3G 
    10=B1U     11=AG      12=AG      13=AG      14=AG      15=AG      16=AG  
    17=AG  
 ...... END OF INITIAL ORBITAL SELECTION ......
 STEP CPU TIME =     0.01 TOTAL CPU TIME =        0.0 (    0.0 MIN)
 TOTAL WALL CLOCK TIME=        0.0 SECONDS, CPU UTILIZATION IS  75.00%

                    ----------------------
                    AO INTEGRAL TECHNOLOGY
                    ----------------------
     S,P,L SHELL ROTATED AXIS INTEGRALS, REPROGRAMMED BY
        KAZUYA ISHIMURA (IMS) AND JOSE SIERRA (SYNSTAR).
     S,P,D,L SHELL ROTATED AXIS INTEGRALS PROGRAMMED BY
        KAZUYA ISHIMURA (INSTITUTE FOR MOLECULAR SCIENCE).
     S,P,D,F,G SHELL TO TOTAL QUARTET ANGULAR MOMENTUM SUM 5,
        ERIC PROGRAM BY GRAHAM FLETCHER (ELORET AND NASA ADVANCED
        SUPERCOMPUTING DIVISION, AMES RESEARCH CENTER).
     S,P,D,F,G,L SHELL GENERAL RYS QUADRATURE PROGRAMMED BY
        MICHEL DUPUIS (PACIFIC NORTHWEST NATIONAL LABORATORY).

          --------------------
          2 ELECTRON INTEGRALS
          --------------------

 DIRECT SCF METHOD SKIPS INTEGRAL STORAGE ON DISK.
 DIRECT TRANSFORMATION SKIPS AO INTEGRAL STORAGE ON DISK.
  ...... END OF TWO-ELECTRON INTEGRALS .....
 STEP CPU TIME =     0.01 TOTAL CPU TIME =        0.0 (    0.0 MIN)
 TOTAL WALL CLOCK TIME=        0.1 SECONDS, CPU UTILIZATION IS  80.00%

          ---------------------------
              U-B3LYP SCF CALCULATION
          ---------------------------

     NUCLEAR ENERGY =        28.0470252678
     MAXIT = 30     NPUNCH=  2     MULT=  3
     EXTRAP=T  DAMP=F  SHIFT=F  RSTRCT=F  DIIS=T  SOSCF=F
         DENSITY MATRIX CONVERGENCE THRESHOLD=  2.00E-06
     COARSE -> FINE DFT GRID SWITCH THRESHOLD=  3.00E-04 (SWITCH IN $DFT)
                   HF -> DFT SWITCH THRESHOLD=  5.00E-03 (SWOFF IN $DFT)
     MEMORY REQUIRED FOR UHF/ROHF ITERS=    205514 WORDS.

 DIRECT SCF CALCULATION, SCHWRZ=T   FDIFF=T
 SCHWARZ INEQUALITY OVERHEAD:      2485 INTEGRALS, T=        0.00

 DFT CODE IS SWITCHING FROM THE FINE GRID NRAD= 96,  NLEB=  302
                      TO THE COARSE GRID NRAD0= 24, NLEB0=  110

     EXCHANGE FUNCTIONAL   =B88&HFX   
     CORRELATION FUNCTIONAL=LYP88&VWN5
     DFT THRESHOLD         =.690E-07
     GRID CHANGE THRESHOLD =.300E-03
 FOR AN EULER-MACLAURIN QUADRATURE USING  96 RADIAL POINTS:
 SMALLEST GAUSSIAN PRIMITIVE EXPONENT=        0.0100000000 OF TYPE -S-
 ON ATOM NUMBER   1 HAS RADIAL NORMALIZATION=  1.000000
  LARGEST GAUSSIAN PRIMITIVE EXPONENT=    11720.0000000000 OF TYPE -S-
 ON ATOM NUMBER   1 HAS RADIAL NORMALIZATION=  1.000000
 DFT IS SWITCHED OFF, PERFORMING PURE SCF UNTIL SWOFF THRESHOLD IS REACHED.

                                                                                NONZERO     BLOCKS
 ITER EX      TOTAL ENERGY        E CHANGE  DENSITY CHANGE    DIIS ERROR      INTEGRALS    SKIPPED
   1  0     -149.2352354070  -149.2352354070   0.243280980   0.880481199         395829          0
          * * *   INITIATING DIIS PROCEDURE   * * *
   2  1     -149.6246830905    -0.3894476834   0.064034497   0.069944983         395829          0
   3  2     -149.6407619828    -0.0160788923   0.021138914   0.022403345         395829          0
   4  3     -149.6424406196    -0.0016786368   0.008428579   0.007856578         395813          3
   5  4     -149.6426690776    -0.0002284580   0.001809970   0.001453981         395804          4
 CONVERGED TO SWOFF, SO DFT CALCULATION IS NOW SWITCHED ON.
          * * *   INITIATING DIIS PROCEDURE   * * *
   6  5     -150.2754434290    -0.6327743514   0.091363551   0.075516200         395829          0
   7  6     -150.2892775502    -0.0138341212   0.021238056   0.014366760         395829          0
   8  7     -150.2898620191    -0.0005844689   0.008074754   0.011232763         395813          3
   9  8     -150.2902786957    -0.0004166766   0.001316100   0.000900730         395798          6
  10  9     -150.2902837088    -0.0000050132   0.000117073   0.000257388         395791         10
 DFT CODE IS SWITCHING BACK TO THE FINE GRID
          * * *   INITIATING DIIS PROCEDURE   * * *
  11 10     -150.2900099288     0.0002737800   0.002496012   0.000764861         395829          0
  12 11     -150.2900110986    -0.0000011698   0.000133336   0.000083758         395795          8
  13 12     -150.2900111096    -0.0000000111   0.000052416   0.000070055         395240         67
  14 13     -150.2900111277    -0.0000000181   0.000002777   0.000002828         394643        135
  15 14     -150.2900111278    -0.0000000000   0.000000608   0.000000797         390454        493
  16 15     -150.2900111278    -0.0000000000   0.000000127   0.000000142         380660       1134

          -----------------
          DENSITY CONVERGED
          -----------------
     TIME TO FORM FOCK OPERATORS=       3.1 SECONDS (       0.2 SEC/ITER)
     FOCK TIME ON FIRST ITERATION=       0.1, LAST ITERATION=       0.4
     TIME TO SOLVE SCF EQUATIONS=       0.1 SECONDS (       0.0 SEC/ITER)

 FINAL U-B3LYP ENERGY IS     -150.2900111278 AFTER  16 ITERATIONS
 DFT EXCHANGE + CORRELATION ENERGY =       -13.6995445542
 TOTAL ELECTRON NUMBER             =        15.9999999178

          --------------------
          SPIN SZ   =    1.000
          S-SQUARED =    2.009
          --------------------

 LZ VALUE ANALYSIS FOR THE MOS
 ----------------------------------------
 MO     1 (    1) HAS LZ(WEIGHT)= 0.00(100.0%) 
 MO     2 (    2) HAS LZ(WEIGHT)= 0.00(100.0%) 
 MO     3 (    3) HAS LZ(WEIGHT)= 0.00(100.0%) 
 MO     4 (    4) HAS LZ(WEIGHT)= 0.00(100.0%) 
 MO     5 (    5) HAS LZ(WEIGHT)=-1.00( 50.0%)  1.00( 50.0%) 
 MO     6 (    5) HAS LZ(WEIGHT)=-1.00( 50.0%)  1.00( 50.0%) 
 MO     7 (    6) HAS LZ(WEIGHT)= 0.00(100.0%) 
 MO     8 (    7) HAS LZ(WEIGHT)=-1.00( 50.0%)  1.00( 50.0%) 
 MO     9 (    7) HAS LZ(WEIGHT)=-1.00( 50.0%)  1.00( 50.0%) 
 MO    10 (    8) HAS LZ(WEIGHT)= 0.00(100.0%) 
 MO    11 (    9) HAS LZ(WEIGHT)= 0.00(100.0%) 
 MO    12 (   10) HAS LZ(WEIGHT)=-1.00( 50.0%)  1.00( 50.0%) 
 MO    13 (   10) HAS LZ(WEIGHT)=-1.00( 50.0%)  1.00( 50.0%) 
 MO    14 (   11) HAS LZ(WEIGHT)= 0.00(100.0%) 
 MO    15 (   12) HAS LZ(WEIGHT)= 0.00(100.0%) 
 MO    16 (   13) HAS LZ(WEIGHT)=-1.00( 50.0%)  1.00( 50.0%) 
 MO    17 (   13) HAS LZ(WEIGHT)=-1.00( 50.0%)  1.00( 50.0%) 
 MO    18 (   14) HAS LZ(WEIGHT)=-2.00( 50.0%)  2.00( 50.0%) 
 MO    19 (   14) HAS LZ(WEIGHT)=-2.00( 50.0%)  2.00( 50.0%) 
 MO    20 (   15) HAS LZ(WEIGHT)= 0.00(100.0%) 
 MO    21 (   16) HAS LZ(WEIGHT)= 0.00(100.0%) 
 MO    22 (   17) HAS LZ(WEIGHT)=-1.00( 50.0%)  1.00( 50.0%) 
 MO    23 (   17) HAS LZ(WEIGHT)=-1.00( 50.0%)  1.00( 50.0%) 
 MO    24 (   18) HAS LZ(WEIGHT)= 0.00(100.0%) 
 MO    25 (   19) HAS LZ(WEIGHT)= 0.00(100.0%) 
 MO    26 (   20) HAS LZ(WEIGHT)= 0.00(100.0%) 
 MO    27 (   21) HAS LZ(WEIGHT)=-1.00( 50.0%)  1.00( 50.0%) 
 MO    28 (   21) HAS LZ(WEIGHT)=-1.00( 50.0%)  1.00( 50.0%) 
 MO    29 (   22) HAS LZ(WEIGHT)= 0.00(100.0%) 
 MO    30 (   23) HAS LZ(WEIGHT)=-1.00( 50.0%)  1.00( 50.0%) 
 MO    31 (   23) HAS LZ(WEIGHT)=-1.00( 50.0%)  1.00( 50.0%) 
 MO    32 (   24) HAS LZ(WEIGHT)= 0.00(100.0%) 
 MO    33 (   25) HAS LZ(WEIGHT)= 0.00(100.0%) 
 MO    34 (   26) HAS LZ(WEIGHT)=-1.00( 50.0%)  1.00( 50.0%) 
 MO    35 (   26) HAS LZ(WEIGHT)=-1.00( 50.0%)  1.00( 50.0%) 
 MO    36 (   27) HAS LZ(WEIGHT)= 0.00(100.0%) 
 MO    37 (   28) HAS LZ(WEIGHT)=-2.00( 50.0%)  2.00( 50.0%) 
 MO    38 (   28) HAS LZ(WEIGHT)=-2.00( 50.0%)  2.00( 50.0%) 
 MO    39 (   29) HAS LZ(WEIGHT)=-1.00( 50.0%)  1.00( 50.0%) 
 MO    40 (   29) HAS LZ(WEIGHT)=-1.00( 50.0%)  1.00( 50.0%) 
 MO    41 (   30) HAS LZ(WEIGHT)= 0.00(100.0%) 
 MO    42 (   31) HAS LZ(WEIGHT)=-2.00( 50.0%)  2.00( 50.0%) 
 MO    43 (   31) HAS LZ(WEIGHT)=-2.00( 50.0%)  2.00( 50.0%) 
 MO    44 (   32) HAS LZ(WEIGHT)=-1.00( 50.0%)  1.00( 50.0%) 
 MO    45 (   32) HAS LZ(WEIGHT)=-1.00( 50.0%)  1.00( 50.0%) 
 MO    46 (   33) HAS LZ(WEIGHT)= 0.00(100.0%) 
 MO    47 (   34) HAS LZ(WEIGHT)=-1.00( 50.0%)  1.00( 50.0%) 
 MO    48 (   34) HAS LZ(WEIGHT)=-1.00( 50.0%)  1.00( 50.0%) 
 MO    49 (   35) HAS LZ(WEIGHT)= 0.00(100.0%) 
 MO    50 (   36) HAS LZ(WEIGHT)= 0.00(100.0%) 
 MO    51 (   37) HAS LZ(WEIGHT)=-1.00( 50.0%)  1.00( 50.0%) 
 MO    52 (   37) HAS LZ(WEIGHT)=-1.00( 50.0%)  1.00( 50.0%) 
 MO    53 (   38) HAS LZ(WEIGHT)= 0.00(100.0%) 
 MO    54 (   39) HAS LZ(WEIGHT)=-1.00( 50.0%)  1.00( 50.0%) 
 MO    55 (   39) HAS LZ(WEIGHT)=-1.00( 50.0%)  1.00( 50.0%) 
 MO    56 (   40) HAS LZ(WEIGHT)= 0.00(100.0%) 
 MO    57 (   41) HAS LZ(WEIGHT)= 0.00(100.0%) 
 MO    58 (   42) HAS LZ(WEIGHT)= 0.00(100.0%) 
 MO    59 (   43) HAS LZ(WEIGHT)=-2.00( 50.0%)  2.00( 50.0%) 
 MO    60 (   43) HAS LZ(WEIGHT)=-2.00( 50.0%)  2.00( 50.0%) 
 MO    61 (   44) HAS LZ(WEIGHT)= 0.00(100.0%) 
 MO    62 (   45) HAS LZ(WEIGHT)=-1.00( 50.0%)  1.00( 50.0%) 
 MO    63 (   45) HAS LZ(WEIGHT)=-1.00( 50.0%)  1.00( 50.0%) 
 MO    64 (   46) HAS LZ(WEIGHT)= 0.00(100.0%) 

  ----- ALPHA SET ----- 

          ------------
          EIGENVECTORS
          ------------

                      1          2          3          4          5
                  -19.3124   -19.3124    -1.3192    -0.8493    -0.5720
                     AG         B1U        AG         B1U        B2U 
    1  O  1  S    0.710038   0.712134   0.000637   0.002233  -0.000000
    2  O  1  S    0.006819   0.010653   0.338014   0.367373  -0.000000
    3  O  1  S   -0.005947  -0.042124   0.259696   0.534491  -0.000000
    4  O  1  X   -0.000000   0.000000   0.000000   0.000000  -0.000000
    5  O  1  Y   -0.000000   0.000000   0.000000   0.000000   0.473588
    6  O  1  Z    0.001442   0.000976   0.176740  -0.125974  -0.000000
    7  O  1  X   -0.000000   0.000000   0.000000   0.000000  -0.000000
    8  O  1  Y   -0.000000   0.000000   0.000000   0.000000   0.245484
    9  O  1  Z   -0.001386  -0.026893   0.046332   0.039227  -0.000000
   10  O  1 XX    0.000140  -0.000321  -0.009304   0.007107  -0.000000
   11  O  1 YY    0.000140  -0.000321  -0.009304   0.007107  -0.000000
   12  O  1 ZZ   -0.000281   0.000641   0.018607  -0.014213  -0.000000
   13  O  1 XY   -0.000000   0.000000   0.000000   0.000000  -0.000000
   14  O  1 XZ   -0.000000   0.000000   0.000000   0.000000  -0.000000
   15  O  1 YZ   -0.000000   0.000000   0.000000   0.000000   0.024850
   16  O  1  S    0.001233  -0.023308   0.003985   0.172347  -0.000000
   17  O  1  X   -0.000000   0.000000   0.000000   0.000000  -0.000000
   18  O  1  Y   -0.000000   0.000000   0.000000   0.000000   0.015060
   19  O  1  Z    0.000810  -0.005402  -0.017964   0.032008  -0.000000
   20  O  1 XX    0.000712   0.003975  -0.003939  -0.010250  -0.000000
   21  O  1 YY    0.000712   0.003975  -0.003939  -0.010250  -0.000000
   22  O  1 ZZ   -0.001424  -0.007951   0.007878   0.020500  -0.000000
   23  O  1 XY   -0.000000   0.000000   0.000000   0.000000  -0.000000
   24  O  1 XZ   -0.000000   0.000000   0.000000   0.000000  -0.000000
   25  O  1 YZ   -0.000000   0.000000   0.000000   0.000000   0.011950
   26  O  1  S   -0.000148   0.000435  -0.000763  -0.000987  -0.000000
   27  O  1  X   -0.000000   0.000000   0.000000   0.000000  -0.000000
   28  O  1  Y   -0.000000   0.000000   0.000000   0.000000   0.000240
   29  O  1  Z   -0.000451   0.000146  -0.006787  -0.000410  -0.000000
   30  O  1 XX   -0.000120   0.000437   0.003120  -0.002111  -0.000000
   31  O  1 YY   -0.000120   0.000437   0.003120  -0.002111  -0.000000
   32  O  1 ZZ    0.000240  -0.000873  -0.006239   0.004222  -0.000000
   33  O  1 XY   -0.000000   0.000000   0.000000   0.000000  -0.000000
   34  O  1 XZ   -0.000000   0.000000   0.000000   0.000000  -0.000000
   35  O  1 YZ   -0.000000   0.000000   0.000000   0.000000   0.001566
   36  O  2  S    0.710038  -0.712134   0.000637  -0.002233  -0.000000
   37  O  2  S    0.006819  -0.010653   0.338014  -0.367373  -0.000000
   38  O  2  S   -0.005947   0.042124   0.259696  -0.534491  -0.000000
   39  O  2  X   -0.000000   0.000000   0.000000   0.000000  -0.000000
   40  O  2  Y   -0.000000   0.000000   0.000000   0.000000   0.473588
   41  O  2  Z   -0.001442   0.000976  -0.176740  -0.125974  -0.000000
   42  O  2  X   -0.000000   0.000000   0.000000   0.000000  -0.000000
   43  O  2  Y   -0.000000   0.000000   0.000000   0.000000   0.245484
   44  O  2  Z    0.001386  -0.026893  -0.046332   0.039227  -0.000000
   45  O  2 XX    0.000140   0.000321  -0.009304  -0.007107  -0.000000
   46  O  2 YY    0.000140   0.000321  -0.009304  -0.007107  -0.000000
   47  O  2 ZZ   -0.000281  -0.000641   0.018607   0.014213  -0.000000
   48  O  2 XY   -0.000000   0.000000   0.000000   0.000000  -0.000000
   49  O  2 XZ   -0.000000   0.000000   0.000000   0.000000  -0.000000
   50  O  2 YZ   -0.000000   0.000000   0.000000   0.000000  -0.024850
   51  O  2  S    0.001233   0.023308   0.003985  -0.172347  -0.000000
   52  O  2  X   -0.000000   0.000000   0.000000   0.000000  -0.000000
   53  O  2  Y   -0.000000   0.000000   0.000000   0.000000   0.015060
   54  O  2  Z   -0.000810  -0.005402   0.017964   0.032008  -0.000000
   55  O  2 XX    0.000712  -0.003975  -0.003939   0.010250  -0.000000
   56  O  2 YY    0.000712  -0.003975  -0.003939   0.010250  -0.000000
   57  O  2 ZZ   -0.001424   0.007951   0.007878  -0.020500  -0.000000
   58  O  2 XY   -0.000000   0.000000   0.000000   0.000000  -0.000000
   59  O  2 XZ   -0.000000   0.000000   0.000000   0.000000  -0.000000
   60  O  2 YZ   -0.000000   0.000000   0.000000   0.000000  -0.011950
   61  O  2  S   -0.000148  -0.000435  -0.000763   0.000987  -0.000000
   62  O  2  X   -0.000000   0.000000   0.000000   0.000000  -0.000000
   63  O  2  Y   -0.000000   0.000000   0.000000   0.000000   0.000240
   64  O  2  Z    0.000451   0.000146   0.006787  -0.000410  -0.000000
   65  O  2 XX   -0.000120  -0.000437   0.003120   0.002111  -0.000000
   66  O  2 YY   -0.000120  -0.000437   0.003120   0.002111  -0.000000
   67  O  2 ZZ    0.000240   0.000873  -0.006239  -0.004222  -0.000000
   68  O  2 XY   -0.000000   0.000000   0.000000   0.000000  -0.000000
   69  O  2 XZ   -0.000000   0.000000   0.000000   0.000000  -0.000000
   70  O  2 YZ   -0.000000   0.000000   0.000000   0.000000  -0.001566

                      6          7          8          9         10
                   -0.5720    -0.5611    -0.3170    -0.3170    -0.0031
                     B3U        AG         B3G        B2G        AG  
    1  O  1  S   -0.000000   0.003544  -0.000000  -0.000000  -0.003459
    2  O  1  S   -0.000000  -0.116069  -0.000000  -0.000000  -0.049862
    3  O  1  S   -0.000000  -0.224831  -0.000000  -0.000000  -0.125151
    4  O  1  X    0.473588  -0.000000  -0.000000   0.539998   0.000000
    5  O  1  Y   -0.000000  -0.000000   0.539998  -0.000000   0.000000
    6  O  1  Z   -0.000000   0.469542  -0.000000  -0.000000   0.043711
    7  O  1  X    0.245484  -0.000000  -0.000000   0.364371   0.000000
    8  O  1  Y   -0.000000  -0.000000   0.364371  -0.000000   0.000000
    9  O  1  Z   -0.000000   0.219329  -0.000000  -0.000000   0.032401
   10  O  1 XX   -0.000000  -0.011503  -0.000000  -0.000000   0.000689
   11  O  1 YY   -0.000000  -0.011503  -0.000000  -0.000000   0.000689
   12  O  1 ZZ   -0.000000   0.023005  -0.000000  -0.000000  -0.001378
   13  O  1 XY   -0.000000  -0.000000  -0.000000  -0.000000   0.000000
   14  O  1 XZ    0.024850  -0.000000  -0.000000  -0.006216   0.000000
   15  O  1 YZ   -0.000000  -0.000000  -0.006216  -0.000000   0.000000
   16  O  1  S   -0.000000  -0.044438  -0.000000  -0.000000   0.013968
   17  O  1  X    0.015060  -0.000000  -0.000000   0.117638   0.000000
   18  O  1  Y   -0.000000  -0.000000   0.117638  -0.000000   0.000000
   19  O  1  Z   -0.000000  -0.002643  -0.000000  -0.000000   0.011257
   20  O  1 XX   -0.000000  -0.006737  -0.000000  -0.000000   0.001210
   21  O  1 YY   -0.000000  -0.006737  -0.000000  -0.000000   0.001210
   22  O  1 ZZ   -0.000000   0.013474  -0.000000  -0.000000  -0.002421
   23  O  1 XY   -0.000000  -0.000000  -0.000000  -0.000000   0.000000
   24  O  1 XZ    0.011950  -0.000000  -0.000000   0.001222   0.000000
   25  O  1 YZ   -0.000000  -0.000000   0.001222  -0.000000   0.000000
   26  O  1  S   -0.000000  -0.000369  -0.000000  -0.000000   0.506121
   27  O  1  X    0.000240  -0.000000  -0.000000   0.012211   0.000000
   28  O  1  Y   -0.000000  -0.000000   0.012211  -0.000000   0.000000
   29  O  1  Z   -0.000000  -0.011751  -0.000000  -0.000000   0.061567
   30  O  1 XX   -0.000000   0.003588  -0.000000  -0.000000   0.000088
   31  O  1 YY   -0.000000   0.003588  -0.000000  -0.000000   0.000088
   32  O  1 ZZ   -0.000000  -0.007177  -0.000000  -0.000000  -0.000176
   33  O  1 XY   -0.000000  -0.000000  -0.000000  -0.000000   0.000000
   34  O  1 XZ    0.001566  -0.000000  -0.000000   0.009416   0.000000
   35  O  1 YZ   -0.000000  -0.000000   0.009416  -0.000000   0.000000
   36  O  2  S   -0.000000   0.003544  -0.000000  -0.000000  -0.003459
   37  O  2  S   -0.000000  -0.116069  -0.000000  -0.000000  -0.049862
   38  O  2  S   -0.000000  -0.224831  -0.000000  -0.000000  -0.125151
   39  O  2  X    0.473588  -0.000000  -0.000000  -0.539998   0.000000
   40  O  2  Y   -0.000000  -0.000000  -0.539998  -0.000000   0.000000
   41  O  2  Z   -0.000000  -0.469542  -0.000000  -0.000000  -0.043711
   42  O  2  X    0.245484  -0.000000  -0.000000  -0.364371   0.000000
   43  O  2  Y   -0.000000  -0.000000  -0.364371  -0.000000   0.000000
   44  O  2  Z   -0.000000  -0.219329  -0.000000  -0.000000  -0.032401
   45  O  2 XX   -0.000000  -0.011503  -0.000000  -0.000000   0.000689
   46  O  2 YY   -0.000000  -0.011503  -0.000000  -0.000000   0.000689
   47  O  2 ZZ   -0.000000   0.023005  -0.000000  -0.000000  -0.001378
   48  O  2 XY   -0.000000  -0.000000  -0.000000  -0.000000   0.000000
   49  O  2 XZ   -0.024850  -0.000000  -0.000000  -0.006216   0.000000
   50  O  2 YZ   -0.000000  -0.000000  -0.006216  -0.000000   0.000000
   51  O  2  S   -0.000000  -0.044438  -0.000000  -0.000000   0.013968
   52  O  2  X    0.015060  -0.000000  -0.000000  -0.117638   0.000000
   53  O  2  Y   -0.000000  -0.000000  -0.117638  -0.000000   0.000000
   54  O  2  Z   -0.000000   0.002643  -0.000000  -0.000000  -0.011257
   55  O  2 XX   -0.000000  -0.006737  -0.000000  -0.000000   0.001210
   56  O  2 YY   -0.000000  -0.006737  -0.000000  -0.000000   0.001210
   57  O  2 ZZ   -0.000000   0.013474  -0.000000  -0.000000  -0.002421
   58  O  2 XY   -0.000000  -0.000000  -0.000000  -0.000000   0.000000
   59  O  2 XZ   -0.011950  -0.000000  -0.000000   0.001222   0.000000
   60  O  2 YZ   -0.000000  -0.000000   0.001222  -0.000000   0.000000
   61  O  2  S   -0.000000  -0.000369  -0.000000  -0.000000   0.506121
   62  O  2  X    0.000240  -0.000000  -0.000000  -0.012211   0.000000
   63  O  2  Y   -0.000000  -0.000000  -0.012211  -0.000000   0.000000
   64  O  2  Z   -0.000000   0.011751  -0.000000  -0.000000  -0.061567
   65  O  2 XX   -0.000000   0.003588  -0.000000  -0.000000   0.000088
   66  O  2 YY   -0.000000   0.003588  -0.000000  -0.000000   0.000088
   67  O  2 ZZ   -0.000000  -0.007177  -0.000000  -0.000000  -0.000176
   68  O  2 XY   -0.000000  -0.000000  -0.000000  -0.000000   0.000000
   69  O  2 XZ   -0.001566  -0.000000  -0.000000   0.009416   0.000000
   70  O  2 YZ   -0.000000  -0.000000   0.009416  -0.000000   0.000000

                     11         12         13         14         15
                    0.0107     0.0267     0.0267     0.0434     0.0479
                     B1U        B3U        B2U        B1U        AG  
    1  O  1  S   -0.001553   0.000000   0.000000   0.007601  -0.007080
    2  O  1  S   -0.035430   0.000000   0.000000   0.079352  -0.046063
    3  O  1  S   -0.128315   0.000000   0.000000   0.138574  -0.060436
    4  O  1  X   -0.000000  -0.059714   0.000000   0.000000  -0.000000
    5  O  1  Y   -0.000000   0.000000  -0.059714   0.000000  -0.000000
    6  O  1  Z   -0.024892   0.000000   0.000000   0.059122   0.017135
    7  O  1  X   -0.000000  -0.024401   0.000000   0.000000  -0.000000
    8  O  1  Y   -0.000000   0.000000  -0.024401   0.000000  -0.000000
    9  O  1  Z   -0.089588   0.000000   0.000000  -0.001276  -0.000906
   10  O  1 XX   -0.001691   0.000000   0.000000   0.002375   0.002144
   11  O  1 YY   -0.001691   0.000000   0.000000   0.002375   0.002144
   12  O  1 ZZ    0.003382   0.000000   0.000000  -0.004751  -0.004288
   13  O  1 XY   -0.000000   0.000000   0.000000   0.000000  -0.000000
   14  O  1 XZ   -0.000000  -0.003710   0.000000   0.000000  -0.000000
   15  O  1 YZ   -0.000000   0.000000  -0.003710   0.000000  -0.000000
   16  O  1  S   -0.970440   0.000000   0.000000  -1.321585  -0.542796
   17  O  1  X   -0.000000  -0.015745   0.000000   0.000000  -0.000000
   18  O  1  Y   -0.000000   0.000000  -0.015745   0.000000  -0.000000
   19  O  1  Z   -0.432620   0.000000   0.000000  -0.499195   0.442859
   20  O  1 XX    0.007787   0.000000   0.000000   0.016289   0.002616
   21  O  1 YY    0.007787   0.000000   0.000000   0.016289   0.002616
   22  O  1 ZZ   -0.015575   0.000000   0.000000  -0.032577  -0.005231
   23  O  1 XY   -0.000000   0.000000   0.000000   0.000000  -0.000000
   24  O  1 XZ   -0.000000  -0.006778   0.000000   0.000000  -0.000000
   25  O  1 YZ   -0.000000   0.000000  -0.006778   0.000000  -0.000000
   26  O  1  S    5.904458   0.000000   0.000000   8.093062  -0.065459
   27  O  1  X   -0.000000   0.522123   0.000000   0.000000  -0.000000
   28  O  1  Y   -0.000000   0.000000   0.522123   0.000000  -0.000000
   29  O  1  Z    0.279462   0.000000   0.000000   1.208120   3.237650
   30  O  1 XX    0.025661   0.000000   0.000000   0.049341  -0.191362
   31  O  1 YY    0.025661   0.000000   0.000000   0.049341  -0.191362
   32  O  1 ZZ   -0.051323   0.000000   0.000000  -0.098682   0.382723
   33  O  1 XY   -0.000000   0.000000   0.000000   0.000000  -0.000000
   34  O  1 XZ   -0.000000  -0.035122   0.000000   0.000000  -0.000000
   35  O  1 YZ   -0.000000   0.000000  -0.035122   0.000000  -0.000000
   36  O  2  S    0.001553   0.000000   0.000000  -0.007601  -0.007080
   37  O  2  S    0.035430   0.000000   0.000000  -0.079352  -0.046063
   38  O  2  S    0.128315   0.000000   0.000000  -0.138574  -0.060436
   39  O  2  X   -0.000000  -0.059714   0.000000   0.000000  -0.000000
   40  O  2  Y   -0.000000   0.000000  -0.059714   0.000000  -0.000000
   41  O  2  Z   -0.024892   0.000000   0.000000   0.059122  -0.017135
   42  O  2  X   -0.000000  -0.024401   0.000000   0.000000  -0.000000
   43  O  2  Y   -0.000000   0.000000  -0.024401   0.000000  -0.000000
   44  O  2  Z   -0.089588   0.000000   0.000000  -0.001276   0.000906
   45  O  2 XX    0.001691   0.000000   0.000000  -0.002375   0.002144
   46  O  2 YY    0.001691   0.000000   0.000000  -0.002375   0.002144
   47  O  2 ZZ   -0.003382   0.000000   0.000000   0.004751  -0.004288
   48  O  2 XY   -0.000000   0.000000   0.000000   0.000000  -0.000000
   49  O  2 XZ   -0.000000   0.003710   0.000000   0.000000  -0.000000
   50  O  2 YZ   -0.000000   0.000000   0.003710   0.000000  -0.000000
   51  O  2  S    0.970440   0.000000   0.000000   1.321585  -0.542796
   52  O  2  X   -0.000000  -0.015745   0.000000   0.000000  -0.000000
   53  O  2  Y   -0.000000   0.000000  -0.015745   0.000000  -0.000000
   54  O  2  Z   -0.432620   0.000000   0.000000  -0.499195  -0.442859
   55  O  2 XX   -0.007787   0.000000   0.000000  -0.016289   0.002616
   56  O  2 YY   -0.007787   0.000000   0.000000  -0.016289   0.002616
   57  O  2 ZZ    0.015575   0.000000   0.000000   0.032577  -0.005231
   58  O  2 XY   -0.000000   0.000000   0.000000   0.000000  -0.000000
   59  O  2 XZ   -0.000000   0.006778   0.000000   0.000000  -0.000000
   60  O  2 YZ   -0.000000   0.000000   0.006778   0.000000  -0.000000
   61  O  2  S   -5.904458   0.000000   0.000000  -8.093062  -0.065459
   62  O  2  X   -0.000000   0.522123   0.000000   0.000000  -0.000000
   63  O  2  Y   -0.000000   0.000000   0.522123   0.000000  -0.000000
   64  O  2  Z    0.279462   0.000000   0.000000   1.208120  -3.237650
   65  O  2 XX   -0.025661   0.000000   0.000000  -0.049341  -0.191362
   66  O  2 YY   -0.025661   0.000000   0.000000  -0.049341  -0.191362
   67  O  2 ZZ    0.051323   0.000000   0.000000   0.098682   0.382723
   68  O  2 XY   -0.000000   0.000000   0.000000   0.000000  -0.000000
   69  O  2 XZ   -0.000000   0.035122   0.000000   0.000000  -0.000000
   70  O  2 YZ   -0.000000   0.000000   0.035122   0.000000  -0.000000

                     16         17         18         19         20
                    0.0488     0.0488     0.1000     0.1000     0.1233
                     B3G        B2G        AG         B1G        AG  
    1  O  1  S    0.000000   0.000000  -0.000000   0.000000   0.002418
    2  O  1  S    0.000000   0.000000   0.000000   0.000000  -0.048756
    3  O  1  S    0.000000   0.000000   0.000000   0.000000  -0.266330
    4  O  1  X    0.000000  -0.027941   0.000000   0.000000  -0.000000
    5  O  1  Y   -0.027941   0.000000   0.000000   0.000000  -0.000000
    6  O  1  Z    0.000000   0.000000  -0.000000   0.000000   0.086101
    7  O  1  X    0.000000  -0.042785   0.000000   0.000000  -0.000000
    8  O  1  Y   -0.042786   0.000000   0.000000   0.000000  -0.000000
    9  O  1  Z    0.000000   0.000000  -0.000000   0.000000   0.064641
   10  O  1 XX    0.000000   0.000000   0.004420   0.000000  -0.001109
   11  O  1 YY    0.000000   0.000000  -0.004420   0.000000  -0.001109
   12  O  1 ZZ    0.000000   0.000000  -0.000000   0.000000   0.002217
   13  O  1 XY    0.000000   0.000000   0.000000   0.005103  -0.000000
   14  O  1 XZ    0.000000  -0.001112   0.000000   0.000000  -0.000000
   15  O  1 YZ   -0.001112   0.000000   0.000000   0.000000  -0.000000
   16  O  1  S    0.000000   0.000000  -0.000000   0.000000  -0.086785
   17  O  1  X    0.000000   0.603767   0.000000   0.000000  -0.000000
   18  O  1  Y    0.603774   0.000000   0.000000   0.000000  -0.000000
   19  O  1  Z    0.000000   0.000000   0.000000   0.000000   0.161827
   20  O  1 XX    0.000000   0.000000   0.016362   0.000000  -0.015350
   21  O  1 YY    0.000000   0.000000  -0.016362   0.000000  -0.015350
   22  O  1 ZZ    0.000000   0.000000  -0.000000   0.000000   0.030700
   23  O  1 XY    0.000000   0.000000   0.000000   0.018893  -0.000000
   24  O  1 XZ    0.000000   0.001441   0.000000   0.000000  -0.000000
   25  O  1 YZ    0.001441   0.000000   0.000000   0.000000  -0.000000
   26  O  1  S    0.000000   0.000000  -0.000000   0.000000  -0.084827
   27  O  1  X    0.000000   4.722814   0.000000   0.000000  -0.000000
   28  O  1  Y    4.722826   0.000000   0.000000   0.000000  -0.000000
   29  O  1  Z    0.000000   0.000000   0.000000   0.000000   1.820139
   30  O  1 XX    0.000000   0.000000   0.440789   0.000000  -0.405259
   31  O  1 YY    0.000000   0.000000  -0.440789   0.000000  -0.405259
   32  O  1 ZZ    0.000000   0.000000  -0.000000   0.000000   0.810517
   33  O  1 XY    0.000000   0.000000   0.000000   0.508979  -0.000000
   34  O  1 XZ    0.000000   0.469835   0.000000   0.000000  -0.000000
   35  O  1 YZ    0.469839   0.000000   0.000000   0.000000  -0.000000
   36  O  2  S    0.000000   0.000000  -0.000000   0.000000   0.002418
   37  O  2  S    0.000000   0.000000   0.000000   0.000000  -0.048756
   38  O  2  S    0.000000   0.000000   0.000000   0.000000  -0.266330
   39  O  2  X    0.000000   0.027941   0.000000   0.000000  -0.000000
   40  O  2  Y    0.027941   0.000000   0.000000   0.000000  -0.000000
   41  O  2  Z    0.000000   0.000000   0.000000   0.000000  -0.086101
   42  O  2  X    0.000000   0.042785   0.000000   0.000000  -0.000000
   43  O  2  Y    0.042786   0.000000   0.000000   0.000000  -0.000000
   44  O  2  Z    0.000000   0.000000   0.000000   0.000000  -0.064641
   45  O  2 XX    0.000000   0.000000   0.004420   0.000000  -0.001109
   46  O  2 YY    0.000000   0.000000  -0.004420   0.000000  -0.001109
   47  O  2 ZZ    0.000000   0.000000  -0.000000   0.000000   0.002217
   48  O  2 XY    0.000000   0.000000   0.000000   0.005103  -0.000000
   49  O  2 XZ    0.000000  -0.001112   0.000000   0.000000  -0.000000
   50  O  2 YZ   -0.001112   0.000000   0.000000   0.000000  -0.000000
   51  O  2  S    0.000000   0.000000  -0.000000   0.000000  -0.086785
   52  O  2  X    0.000000  -0.603767   0.000000   0.000000  -0.000000
   53  O  2  Y   -0.603774   0.000000   0.000000   0.000000  -0.000000
   54  O  2  Z    0.000000   0.000000  -0.000000   0.000000  -0.161827
   55  O  2 XX    0.000000   0.000000   0.016362   0.000000  -0.015350
   56  O  2 YY    0.000000   0.000000  -0.016362   0.000000  -0.015350
   57  O  2 ZZ    0.000000   0.000000  -0.000000   0.000000   0.030700
   58  O  2 XY    0.000000   0.000000   0.000000   0.018893  -0.000000
   59  O  2 XZ    0.000000   0.001441   0.000000   0.000000  -0.000000
   60  O  2 YZ    0.001441   0.000000   0.000000   0.000000  -0.000000
   61  O  2  S    0.000000   0.000000  -0.000000   0.000000  -0.084827
   62  O  2  X    0.000000  -4.722814   0.000000   0.000000  -0.000000
   63  O  2  Y   -4.722826   0.000000   0.000000   0.000000  -0.000000
   64  O  2  Z    0.000000   0.000000  -0.000000   0.000000  -1.820139
   65  O  2 XX    0.000000   0.000000   0.440789   0.000000  -0.405259
   66  O  2 YY    0.000000   0.000000  -0.440789   0.000000  -0.405259
   67  O  2 ZZ    0.000000   0.000000  -0.000000   0.000000   0.810517
   68  O  2 XY    0.000000   0.000000   0.000000   0.508979  -0.000000
   69  O  2 XZ    0.000000   0.469835   0.000000   0.000000  -0.000000
   70  O  2 YZ    0.469839   0.000000   0.000000   0.000000  -0.000000

                     21         22         23         24         25
                    0.1358     0.1384     0.1384     0.1494     0.1510
                     B1U        B3G        B2G        B1U        B1U 
    1  O  1  S    0.003037   0.000000   0.000000  -0.014169   0.000000
    2  O  1  S    0.135727   0.000000   0.000000  -0.068644   0.000000
    3  O  1  S    0.663476   0.000000   0.000000   0.083548   0.000000
    4  O  1  X   -0.000000   0.000000   0.086171  -0.000000   0.000000
    5  O  1  Y   -0.000000   0.086171   0.000000  -0.000000   0.000000
    6  O  1  Z    0.210030   0.000000   0.000000  -0.133704   0.000000
    7  O  1  X   -0.000000   0.000000   0.018317  -0.000000   0.000000
    8  O  1  Y   -0.000000   0.018317   0.000000  -0.000000   0.000000
    9  O  1  Z    0.629168   0.000000   0.000000   0.143206  -0.000000
   10  O  1 XX    0.008933   0.000000   0.000000  -0.005100  -0.002237
   11  O  1 YY    0.008933   0.000000   0.000000  -0.005100   0.002237
   12  O  1 ZZ   -0.017865   0.000000   0.000000   0.010200  -0.000000
   13  O  1 XY   -0.000000   0.000000   0.000000  -0.000000   0.000000
   14  O  1 XZ   -0.000000   0.000000  -0.000953  -0.000000   0.000000
   15  O  1 YZ   -0.000000  -0.000953   0.000000  -0.000000   0.000000
   16  O  1  S    6.863189   0.000000   0.000000   0.927381   0.000000
   17  O  1  X   -0.000000   0.000000   1.306749  -0.000000   0.000000
   18  O  1  Y   -0.000000   1.306757   0.000000  -0.000000   0.000000
   19  O  1  Z    2.996434   0.000000   0.000000  -0.396778   0.000001
   20  O  1 XX   -0.048912   0.000000   0.000000  -0.046068  -0.003783
   21  O  1 YY   -0.048912   0.000000   0.000000  -0.046068   0.003783
   22  O  1 ZZ    0.097825   0.000000   0.000000   0.092136  -0.000000
   23  O  1 XY   -0.000000   0.000000   0.000000  -0.000000   0.000000
   24  O  1 XZ   -0.000000   0.000000   0.025247  -0.000000   0.000000
   25  O  1 YZ   -0.000000   0.025247   0.000000  -0.000000   0.000000
   26  O  1  S   -5.710730   0.000000   0.000000   0.823251  -0.000002
   27  O  1  X   -0.000000   0.000000   4.915910  -0.000000   0.000000
   28  O  1  Y   -0.000000   4.915909   0.000000  -0.000000   0.000000
   29  O  1  Z   -1.344477   0.000000   0.000000   0.284820  -0.000001
   30  O  1 XX   -0.322950   0.000000   0.000000  -0.788679  -1.945849
   31  O  1 YY   -0.322951   0.000000   0.000000  -0.788674   1.945851
   32  O  1 ZZ    0.645901   0.000000   0.000000   1.577353  -0.000002
   33  O  1 XY   -0.000000   0.000000   0.000000  -0.000000   0.000000
   34  O  1 XZ   -0.000000   0.000000   1.444085  -0.000000   0.000000
   35  O  1 YZ   -0.000000   1.444087   0.000000  -0.000000   0.000000
   36  O  2  S   -0.003037   0.000000   0.000000   0.014169  -0.000000
   37  O  2  S   -0.135727   0.000000   0.000000   0.068644  -0.000000
   38  O  2  S   -0.663476   0.000000   0.000000  -0.083548  -0.000000
   39  O  2  X   -0.000000   0.000000  -0.086171  -0.000000   0.000000
   40  O  2  Y   -0.000000  -0.086171   0.000000  -0.000000   0.000000
   41  O  2  Z    0.210030   0.000000   0.000000  -0.133704   0.000000
   42  O  2  X   -0.000000   0.000000  -0.018317  -0.000000   0.000000
   43  O  2  Y   -0.000000  -0.018317   0.000000  -0.000000   0.000000
   44  O  2  Z    0.629168   0.000000   0.000000   0.143206  -0.000000
   45  O  2 XX   -0.008933   0.000000   0.000000   0.005100   0.002237
   46  O  2 YY   -0.008933   0.000000   0.000000   0.005100  -0.002237
   47  O  2 ZZ    0.017865   0.000000   0.000000  -0.010200   0.000000
   48  O  2 XY   -0.000000   0.000000   0.000000  -0.000000   0.000000
   49  O  2 XZ   -0.000000   0.000000  -0.000953  -0.000000   0.000000
   50  O  2 YZ   -0.000000  -0.000953   0.000000  -0.000000   0.000000
   51  O  2  S   -6.863189   0.000000   0.000000  -0.927381  -0.000000
   52  O  2  X   -0.000000   0.000000  -1.306749  -0.000000   0.000000
   53  O  2  Y   -0.000000  -1.306757   0.000000  -0.000000   0.000000
   54  O  2  Z    2.996434   0.000000   0.000000  -0.396778   0.000001
   55  O  2 XX    0.048912   0.000000   0.000000   0.046068   0.003783
   56  O  2 YY    0.048912   0.000000   0.000000   0.046068  -0.003783
   57  O  2 ZZ   -0.097825   0.000000   0.000000  -0.092136   0.000000
   58  O  2 XY   -0.000000   0.000000   0.000000  -0.000000   0.000000
   59  O  2 XZ   -0.000000   0.000000   0.025247  -0.000000   0.000000
   60  O  2 YZ   -0.000000   0.025247   0.000000  -0.000000   0.000000
   61  O  2  S    5.710730   0.000000   0.000000  -0.823251   0.000002
   62  O  2  X   -0.000000   0.000000  -4.915910  -0.000000   0.000000
   63  O  2  Y   -0.000000  -4.915909   0.000000  -0.000000   0.000000
   64  O  2  Z   -1.344477   0.000000   0.000000   0.284820  -0.000001
   65  O  2 XX    0.322950   0.000000   0.000000   0.788679   1.945849
   66  O  2 YY    0.322951   0.000000   0.000000   0.788674  -1.945851
   67  O  2 ZZ   -0.645901   0.000000   0.000000  -1.577353   0.000002
   68  O  2 XY   -0.000000   0.000000   0.000000  -0.000000   0.000000
   69  O  2 XZ   -0.000000   0.000000   1.444085  -0.000000   0.000000
   70  O  2 YZ   -0.000000   1.444087   0.000000  -0.000000   0.000000

                     26         27         28         29         30
                    0.1510     0.1514     0.1514     0.1575     0.1653
                     AU         B3U        B2U        AG         B2U 
    1  O  1  S   -0.000000  -0.000000  -0.000000  -0.012937   0.000000
    2  O  1  S   -0.000000  -0.000000  -0.000000   0.071668   0.000000
    3  O  1  S   -0.000000  -0.000000  -0.000000   0.589441   0.000000
    4  O  1  X   -0.000000  -0.080125  -0.000000  -0.000000   0.000000
    5  O  1  Y   -0.000000  -0.000000  -0.080125  -0.000000  -0.130451
    6  O  1  Z   -0.000000  -0.000000  -0.000000  -0.037282   0.000000
    7  O  1  X   -0.000000  -0.069908  -0.000000  -0.000000   0.000000
    8  O  1  Y   -0.000000  -0.000000  -0.069908  -0.000000  -0.191862
    9  O  1  Z   -0.000000  -0.000000  -0.000000  -0.142748   0.000000
   10  O  1 XX   -0.000000  -0.000000  -0.000000  -0.004169   0.000000
   11  O  1 YY   -0.000000  -0.000000  -0.000000  -0.004169   0.000000
   12  O  1 ZZ   -0.000000  -0.000000  -0.000000   0.008339   0.000000
   13  O  1 XY    0.002583  -0.000000  -0.000000  -0.000000   0.000000
   14  O  1 XZ   -0.000000  -0.002392  -0.000000  -0.000000   0.000000
   15  O  1 YZ   -0.000000  -0.000000  -0.002392  -0.000000  -0.011087
   16  O  1  S   -0.000000  -0.000000  -0.000000  -2.141272   0.000000
   17  O  1  X   -0.000000  -0.044347  -0.000000  -0.000000   0.000000
   18  O  1  Y   -0.000000  -0.000000  -0.044347  -0.000000   0.958958
   19  O  1  Z   -0.000000  -0.000000  -0.000000   1.221563   0.000000
   20  O  1 XX   -0.000000  -0.000000  -0.000000  -0.005105   0.000000
   21  O  1 YY   -0.000000  -0.000000  -0.000000  -0.005105   0.000000
   22  O  1 ZZ   -0.000000  -0.000000  -0.000000   0.010211   0.000000
   23  O  1 XY    0.004371  -0.000000  -0.000000  -0.000000   0.000000
   24  O  1 XZ   -0.000000  -0.000036  -0.000000  -0.000000   0.000000
   25  O  1 YZ   -0.000000  -0.000000  -0.000036  -0.000000  -0.007488
   26  O  1  S   -0.000000  -0.000000  -0.000000   0.497098   0.000000
   27  O  1  X   -0.000000  -0.127063  -0.000000  -0.000000   0.000000
   28  O  1  Y   -0.000000  -0.000000  -0.127063  -0.000000  -0.447199
   29  O  1  Z   -0.000000  -0.000000  -0.000000   4.073156   0.000000
   30  O  1 XX   -0.000000  -0.000000  -0.000000  -0.584307   0.000000
   31  O  1 YY   -0.000000  -0.000000  -0.000000  -0.584307   0.000000
   32  O  1 ZZ   -0.000000  -0.000000  -0.000000   1.168614   0.000000
   33  O  1 XY    2.246873  -0.000000  -0.000000  -0.000000   0.000000
   34  O  1 XZ   -0.000000   1.482179  -0.000000  -0.000000   0.000000
   35  O  1 YZ   -0.000000  -0.000000   1.482179  -0.000000  -0.901968
   36  O  2  S   -0.000000  -0.000000  -0.000000  -0.012937   0.000000
   37  O  2  S   -0.000000  -0.000000  -0.000000   0.071668   0.000000
   38  O  2  S   -0.000000  -0.000000  -0.000000   0.589441   0.000000
   39  O  2  X   -0.000000  -0.080125  -0.000000  -0.000000   0.000000
   40  O  2  Y   -0.000000  -0.000000  -0.080125  -0.000000  -0.130451
   41  O  2  Z   -0.000000  -0.000000  -0.000000   0.037282   0.000000
   42  O  2  X   -0.000000  -0.069908  -0.000000  -0.000000   0.000000
   43  O  2  Y   -0.000000  -0.000000  -0.069908  -0.000000  -0.191862
   44  O  2  Z   -0.000000  -0.000000  -0.000000   0.142748   0.000000
   45  O  2 XX   -0.000000  -0.000000  -0.000000  -0.004169   0.000000
   46  O  2 YY   -0.000000  -0.000000  -0.000000  -0.004169   0.000000
   47  O  2 ZZ   -0.000000  -0.000000  -0.000000   0.008339   0.000000
   48  O  2 XY   -0.002583  -0.000000  -0.000000  -0.000000   0.000000
   49  O  2 XZ   -0.000000   0.002392  -0.000000  -0.000000   0.000000
   50  O  2 YZ   -0.000000  -0.000000   0.002392  -0.000000   0.011087
   51  O  2  S   -0.000000  -0.000000  -0.000000  -2.141272   0.000000
   52  O  2  X   -0.000000  -0.044347  -0.000000  -0.000000   0.000000
   53  O  2  Y   -0.000000  -0.000000  -0.044347  -0.000000   0.958958
   54  O  2  Z   -0.000000  -0.000000  -0.000000  -1.221563   0.000000
   55  O  2 XX   -0.000000  -0.000000  -0.000000  -0.005105   0.000000
   56  O  2 YY   -0.000000  -0.000000  -0.000000  -0.005105   0.000000
   57  O  2 ZZ   -0.000000  -0.000000  -0.000000   0.010211   0.000000
   58  O  2 XY   -0.004371  -0.000000  -0.000000  -0.000000   0.000000
   59  O  2 XZ   -0.000000   0.000036  -0.000000  -0.000000   0.000000
   60  O  2 YZ   -0.000000  -0.000000   0.000036  -0.000000   0.007488
   61  O  2  S   -0.000000  -0.000000  -0.000000   0.497098   0.000000
   62  O  2  X   -0.000000  -0.127063  -0.000000  -0.000000   0.000000
   63  O  2  Y   -0.000000  -0.000000  -0.127063  -0.000000  -0.447199
   64  O  2  Z   -0.000000  -0.000000  -0.000000  -4.073156   0.000000
   65  O  2 XX   -0.000000  -0.000000  -0.000000  -0.584307   0.000000
   66  O  2 YY   -0.000000  -0.000000  -0.000000  -0.584307   0.000000
   67  O  2 ZZ   -0.000000  -0.000000  -0.000000   1.168614   0.000000
   68  O  2 XY   -2.246873  -0.000000  -0.000000  -0.000000   0.000000
   69  O  2 XZ   -0.000000  -1.482179  -0.000000  -0.000000   0.000000
   70  O  2 YZ   -0.000000  -0.000000  -1.482179  -0.000000   0.901968

                     31         32         33         34         35
                    0.1653     0.2598     0.2957     0.3297     0.3297
                     B3U        B1U        AG         B3G        B2G 
    1  O  1  S    0.000000  -0.011498  -0.004556  -0.000000  -0.000000
    2  O  1  S    0.000000  -0.146280  -0.044958  -0.000000  -0.000000
    3  O  1  S    0.000000  -0.375589  -0.291066  -0.000000  -0.000000
    4  O  1  X   -0.130451   0.000000   0.000000  -0.000000  -0.165113
    5  O  1  Y    0.000000   0.000000   0.000000  -0.165113  -0.000000
    6  O  1  Z    0.000000  -0.522590  -0.080829  -0.000000  -0.000000
    7  O  1  X   -0.191862   0.000000   0.000000  -0.000000  -0.262122
    8  O  1  Y    0.000000   0.000000   0.000000  -0.262123  -0.000000
    9  O  1  Z    0.000000  -0.410377  -0.112611  -0.000000  -0.000000
   10  O  1 XX    0.000000  -0.009817   0.015158  -0.000000  -0.000000
   11  O  1 YY    0.000000  -0.009817   0.015158  -0.000000  -0.000000
   12  O  1 ZZ    0.000000   0.019633  -0.030315  -0.000000  -0.000000
   13  O  1 XY    0.000000   0.000000   0.000000  -0.000000  -0.000000
   14  O  1 XZ   -0.011087   0.000000   0.000000  -0.000000  -0.009752
   15  O  1 YZ    0.000000   0.000000   0.000000  -0.009752  -0.000000
   16  O  1  S    0.000000   5.826551  -1.823469  -0.000000  -0.000000
   17  O  1  X    0.958958   0.000000   0.000000  -0.000000   5.168299
   18  O  1  Y    0.000000   0.000000   0.000000   5.168298  -0.000000
   19  O  1  Z    0.000000   2.704506   3.568227  -0.000000  -0.000000
   20  O  1 XX    0.000000  -0.062056  -0.015363  -0.000000  -0.000000
   21  O  1 YY    0.000000  -0.062056  -0.015363  -0.000000  -0.000000
   22  O  1 ZZ    0.000000   0.124113   0.030725  -0.000000  -0.000000
   23  O  1 XY    0.000000   0.000000   0.000000  -0.000000  -0.000000
   24  O  1 XZ   -0.007488   0.000000   0.000000  -0.000000   0.002623
   25  O  1 YZ    0.000000   0.000000   0.000000   0.002623  -0.000000
   26  O  1  S    0.000000  -2.998768   0.474537  -0.000000  -0.000000
   27  O  1  X   -0.447199   0.000000   0.000000  -0.000000   3.781979
   28  O  1  Y    0.000000   0.000000   0.000000   3.781968  -0.000000
   29  O  1  Z    0.000000  -0.799546   3.533719  -0.000000  -0.000000
   30  O  1 XX    0.000000   0.054599  -0.877206  -0.000000  -0.000000
   31  O  1 YY    0.000000   0.054599  -0.877206  -0.000000  -0.000000
   32  O  1 ZZ    0.000000  -0.109198   1.754412  -0.000000  -0.000000
   33  O  1 XY    0.000000   0.000000   0.000000  -0.000000  -0.000000
   34  O  1 XZ   -0.901968   0.000000   0.000000  -0.000000   1.842126
   35  O  1 YZ    0.000000   0.000000   0.000000   1.842124  -0.000000
   36  O  2  S    0.000000   0.011498  -0.004556  -0.000000  -0.000000
   37  O  2  S    0.000000   0.146280  -0.044958  -0.000000  -0.000000
   38  O  2  S    0.000000   0.375589  -0.291066  -0.000000  -0.000000
   39  O  2  X   -0.130451   0.000000   0.000000  -0.000000   0.165113
   40  O  2  Y    0.000000   0.000000   0.000000   0.165113  -0.000000
   41  O  2  Z    0.000000  -0.522590   0.080829  -0.000000  -0.000000
   42  O  2  X   -0.191862   0.000000   0.000000  -0.000000   0.262122
   43  O  2  Y    0.000000   0.000000   0.000000   0.262123  -0.000000
   44  O  2  Z    0.000000  -0.410377   0.112611  -0.000000  -0.000000
   45  O  2 XX    0.000000   0.009817   0.015158  -0.000000  -0.000000
   46  O  2 YY    0.000000   0.009817   0.015158  -0.000000  -0.000000
   47  O  2 ZZ    0.000000  -0.019633  -0.030315  -0.000000  -0.000000
   48  O  2 XY    0.000000   0.000000   0.000000  -0.000000  -0.000000
   49  O  2 XZ    0.011087   0.000000   0.000000  -0.000000  -0.009752
   50  O  2 YZ    0.000000   0.000000   0.000000  -0.009752  -0.000000
   51  O  2  S    0.000000  -5.826551  -1.823469  -0.000000  -0.000000
   52  O  2  X    0.958958   0.000000   0.000000  -0.000000  -5.168299
   53  O  2  Y    0.000000   0.000000   0.000000  -5.168298  -0.000000
   54  O  2  Z    0.000000   2.704506  -3.568227  -0.000000  -0.000000
   55  O  2 XX    0.000000   0.062056  -0.015363  -0.000000  -0.000000
   56  O  2 YY    0.000000   0.062056  -0.015363  -0.000000  -0.000000
   57  O  2 ZZ    0.000000  -0.124113   0.030725  -0.000000  -0.000000
   58  O  2 XY    0.000000   0.000000   0.000000  -0.000000  -0.000000
   59  O  2 XZ    0.007488   0.000000   0.000000  -0.000000   0.002623
   60  O  2 YZ    0.000000   0.000000   0.000000   0.002623  -0.000000
   61  O  2  S    0.000000   2.998768   0.474537  -0.000000  -0.000000
   62  O  2  X   -0.447199   0.000000   0.000000  -0.000000  -3.781979
   63  O  2  Y    0.000000   0.000000   0.000000  -3.781968  -0.000000
   64  O  2  Z    0.000000  -0.799546  -3.533719  -0.000000  -0.000000
   65  O  2 XX    0.000000  -0.054599  -0.877206  -0.000000  -0.000000
   66  O  2 YY    0.000000  -0.054599  -0.877206  -0.000000  -0.000000
   67  O  2 ZZ    0.000000   0.109198   1.754412  -0.000000  -0.000000
   68  O  2 XY    0.000000   0.000000   0.000000  -0.000000  -0.000000
   69  O  2 XZ    0.901968   0.000000   0.000000  -0.000000   1.842126
   70  O  2 YZ    0.000000   0.000000   0.000000   1.842124  -0.000000

                     36         37         38         39         40
                    0.4240     0.6702     0.6702     0.8595     0.8595
                     B1U        B1G        AG         B2U        B3U 
    1  O  1  S   -0.056160  -0.000000  -0.000000   0.000000   0.000000
    2  O  1  S   -0.169404  -0.000000  -0.000000   0.000000   0.000000
    3  O  1  S    0.729007  -0.000000   0.000000   0.000000   0.000000
    4  O  1  X   -0.000000  -0.000000   0.000000   0.000000  -0.020003
    5  O  1  Y   -0.000000  -0.000000   0.000000  -0.020003   0.000000
    6  O  1  Z    0.137141  -0.000000   0.000000   0.000000   0.000000
    7  O  1  X   -0.000000  -0.000000   0.000000   0.000000  -0.380421
    8  O  1  Y   -0.000000  -0.000000   0.000000  -0.380421   0.000000
    9  O  1  Z    1.810305  -0.000000  -0.000000   0.000000   0.000000
   10  O  1 XX    0.002410  -0.000000  -0.009709   0.000000   0.000000
   11  O  1 YY    0.002410  -0.000000   0.009709   0.000000   0.000000
   12  O  1 ZZ   -0.004819  -0.000000   0.000000   0.000000   0.000000
   13  O  1 XY   -0.000000   0.011210   0.000000   0.000000   0.000000
   14  O  1 XZ   -0.000000  -0.000000   0.000000   0.000000   0.024209
   15  O  1 YZ   -0.000000  -0.000000   0.000000   0.024209   0.000000
   16  O  1  S   22.231729  -0.000000   0.000000   0.000000   0.000000
   17  O  1  X   -0.000000  -0.000000   0.000000   0.000000   0.258770
   18  O  1  Y   -0.000000  -0.000000   0.000000   0.258770   0.000000
   19  O  1  Z    6.969148  -0.000000  -0.000000   0.000000   0.000000
   20  O  1 XX   -0.201301  -0.000000  -0.520253   0.000000   0.000000
   21  O  1 YY   -0.201301  -0.000000   0.520253   0.000000   0.000000
   22  O  1 ZZ    0.402603  -0.000000  -0.000000   0.000000   0.000000
   23  O  1 XY   -0.000000   0.600737   0.000000   0.000000   0.000000
   24  O  1 XZ   -0.000000  -0.000000   0.000000   0.000000   0.671974
   25  O  1 YZ   -0.000000  -0.000000   0.000000   0.671974   0.000000
   26  O  1  S   -2.958414  -0.000000  -0.000000   0.000000   0.000000
   27  O  1  X   -0.000000  -0.000000   0.000000   0.000000  -0.066722
   28  O  1  Y   -0.000000  -0.000000   0.000000  -0.066722   0.000000
   29  O  1  Z   -0.846596  -0.000000   0.000000   0.000000   0.000000
   30  O  1 XX   -0.430762  -0.000000   0.109645   0.000000   0.000000
   31  O  1 YY   -0.430762  -0.000000  -0.109645   0.000000   0.000000
   32  O  1 ZZ    0.861523  -0.000000  -0.000000   0.000000   0.000000
   33  O  1 XY   -0.000000  -0.126607   0.000000   0.000000   0.000000
   34  O  1 XZ   -0.000000  -0.000000   0.000000   0.000000  -0.254118
   35  O  1 YZ   -0.000000  -0.000000   0.000000  -0.254118   0.000000
   36  O  2  S    0.056160  -0.000000  -0.000000   0.000000   0.000000
   37  O  2  S    0.169404  -0.000000  -0.000000   0.000000   0.000000
   38  O  2  S   -0.729007  -0.000000   0.000000   0.000000   0.000000
   39  O  2  X   -0.000000  -0.000000   0.000000   0.000000  -0.020003
   40  O  2  Y   -0.000000  -0.000000   0.000000  -0.020003   0.000000
   41  O  2  Z    0.137141  -0.000000  -0.000000   0.000000   0.000000
   42  O  2  X   -0.000000  -0.000000   0.000000   0.000000  -0.380421
   43  O  2  Y   -0.000000  -0.000000   0.000000  -0.380421   0.000000
   44  O  2  Z    1.810305  -0.000000   0.000000   0.000000   0.000000
   45  O  2 XX   -0.002410  -0.000000  -0.009709   0.000000   0.000000
   46  O  2 YY   -0.002410  -0.000000   0.009709   0.000000   0.000000
   47  O  2 ZZ    0.004819  -0.000000   0.000000   0.000000   0.000000
   48  O  2 XY   -0.000000   0.011210   0.000000   0.000000   0.000000
   49  O  2 XZ   -0.000000  -0.000000   0.000000   0.000000  -0.024209
   50  O  2 YZ   -0.000000  -0.000000   0.000000  -0.024209   0.000000
   51  O  2  S  -22.231729  -0.000000   0.000000   0.000000   0.000000
   52  O  2  X   -0.000000  -0.000000   0.000000   0.000000   0.258770
   53  O  2  Y   -0.000000  -0.000000   0.000000   0.258770   0.000000
   54  O  2  Z    6.969148  -0.000000   0.000000   0.000000   0.000000
   55  O  2 XX    0.201301  -0.000000  -0.520253   0.000000   0.000000
   56  O  2 YY    0.201301  -0.000000   0.520253   0.000000   0.000000
   57  O  2 ZZ   -0.402603  -0.000000  -0.000000   0.000000   0.000000
   58  O  2 XY   -0.000000   0.600737   0.000000   0.000000   0.000000
   59  O  2 XZ   -0.000000  -0.000000   0.000000   0.000000  -0.671974
   60  O  2 YZ   -0.000000  -0.000000   0.000000  -0.671974   0.000000
   61  O  2  S    2.958414  -0.000000  -0.000000   0.000000   0.000000
   62  O  2  X   -0.000000  -0.000000   0.000000   0.000000  -0.066722
   63  O  2  Y   -0.000000  -0.000000   0.000000  -0.066722   0.000000
   64  O  2  Z   -0.846596  -0.000000  -0.000000   0.000000   0.000000
   65  O  2 XX    0.430762  -0.000000   0.109645   0.000000   0.000000
   66  O  2 YY    0.430762  -0.000000  -0.109645   0.000000   0.000000
   67  O  2 ZZ   -0.861523  -0.000000  -0.000000   0.000000   0.000000
   68  O  2 XY   -0.000000  -0.126607   0.000000   0.000000   0.000000
   69  O  2 XZ   -0.000000  -0.000000   0.000000   0.000000   0.254118
   70  O  2 YZ   -0.000000  -0.000000   0.000000   0.254118   0.000000

                     41         42         43         44         45
                    0.9292     0.9675     0.9675     1.0413     1.0413
                     AG         B1U        AU         B2U        B3U 
    1  O  1  S    0.028647  -0.000000  -0.000000   0.000000   0.000000
    2  O  1  S    0.074352  -0.000000  -0.000000   0.000000   0.000000
    3  O  1  S   -0.765269  -0.000000  -0.000000   0.000000   0.000000
    4  O  1  X   -0.000000   0.000000  -0.000000   0.000000  -0.681249
    5  O  1  Y   -0.000000   0.000000  -0.000000  -0.681249   0.000000
    6  O  1  Z    0.254555  -0.000000  -0.000000   0.000000   0.000000
    7  O  1  X   -0.000000   0.000000  -0.000000   0.000000   0.847060
    8  O  1  Y   -0.000000   0.000000  -0.000000   0.847060   0.000000
    9  O  1  Z   -0.506158  -0.000000  -0.000000   0.000000   0.000000
   10  O  1 XX   -0.010816   0.002272  -0.000000   0.000000   0.000000
   11  O  1 YY   -0.010816  -0.002272  -0.000000   0.000000   0.000000
   12  O  1 ZZ    0.021633   0.000000  -0.000000   0.000000   0.000000
   13  O  1 XY   -0.000000   0.000000  -0.002623   0.000000   0.000000
   14  O  1 XZ   -0.000000   0.000000  -0.000000   0.000000  -0.008884
   15  O  1 YZ   -0.000000   0.000000  -0.000000  -0.008884   0.000000
   16  O  1  S   -0.717729  -0.000000  -0.000000   0.000000   0.000000
   17  O  1  X   -0.000000   0.000000  -0.000000   0.000000  -0.461636
   18  O  1  Y   -0.000000   0.000000  -0.000000  -0.461636   0.000000
   19  O  1  Z    2.537948  -0.000000  -0.000000   0.000000   0.000000
   20  O  1 XX   -0.405096  -0.813683  -0.000000   0.000000   0.000000
   21  O  1 YY   -0.405096   0.813683  -0.000000   0.000000   0.000000
   22  O  1 ZZ    0.810193  -0.000000  -0.000000   0.000000   0.000000
   23  O  1 XY   -0.000000   0.000000   0.939561   0.000000   0.000000
   24  O  1 XZ   -0.000000   0.000000  -0.000000   0.000000   0.030937
   25  O  1 YZ   -0.000000   0.000000  -0.000000   0.030937   0.000000
   26  O  1  S    0.249778   0.000000  -0.000000   0.000000   0.000000
   27  O  1  X   -0.000000   0.000000  -0.000000   0.000000   0.156965
   28  O  1  Y   -0.000000   0.000000  -0.000000   0.156965   0.000000
   29  O  1  Z    1.612152   0.000000  -0.000000   0.000000   0.000000
   30  O  1 XX   -0.447090   0.273771  -0.000000   0.000000   0.000000
   31  O  1 YY   -0.447090  -0.273771  -0.000000   0.000000   0.000000
   32  O  1 ZZ    0.894180  -0.000000  -0.000000   0.000000   0.000000
   33  O  1 XY   -0.000000   0.000000  -0.316129   0.000000   0.000000
   34  O  1 XZ   -0.000000   0.000000  -0.000000   0.000000   0.045938
   35  O  1 YZ   -0.000000   0.000000  -0.000000   0.045938   0.000000
   36  O  2  S    0.028647   0.000000  -0.000000   0.000000   0.000000
   37  O  2  S    0.074352   0.000000  -0.000000   0.000000   0.000000
   38  O  2  S   -0.765269   0.000000  -0.000000   0.000000   0.000000
   39  O  2  X   -0.000000   0.000000  -0.000000   0.000000  -0.681249
   40  O  2  Y   -0.000000   0.000000  -0.000000  -0.681249   0.000000
   41  O  2  Z   -0.254555  -0.000000  -0.000000   0.000000   0.000000
   42  O  2  X   -0.000000   0.000000  -0.000000   0.000000   0.847060
   43  O  2  Y   -0.000000   0.000000  -0.000000   0.847060   0.000000
   44  O  2  Z    0.506158  -0.000000  -0.000000   0.000000   0.000000
   45  O  2 XX   -0.010816  -0.002272  -0.000000   0.000000   0.000000
   46  O  2 YY   -0.010816   0.002272  -0.000000   0.000000   0.000000
   47  O  2 ZZ    0.021633  -0.000000  -0.000000   0.000000   0.000000
   48  O  2 XY   -0.000000   0.000000   0.002623   0.000000   0.000000
   49  O  2 XZ   -0.000000   0.000000  -0.000000   0.000000   0.008884
   50  O  2 YZ   -0.000000   0.000000  -0.000000   0.008884   0.000000
   51  O  2  S   -0.717729   0.000000  -0.000000   0.000000   0.000000
   52  O  2  X   -0.000000   0.000000  -0.000000   0.000000  -0.461636
   53  O  2  Y   -0.000000   0.000000  -0.000000  -0.461636   0.000000
   54  O  2  Z   -2.537948  -0.000000  -0.000000   0.000000   0.000000
   55  O  2 XX   -0.405096   0.813683  -0.000000   0.000000   0.000000
   56  O  2 YY   -0.405096  -0.813683  -0.000000   0.000000   0.000000
   57  O  2 ZZ    0.810193   0.000000  -0.000000   0.000000   0.000000
   58  O  2 XY   -0.000000   0.000000  -0.939561   0.000000   0.000000
   59  O  2 XZ   -0.000000   0.000000  -0.000000   0.000000  -0.030937
   60  O  2 YZ   -0.000000   0.000000  -0.000000  -0.030937   0.000000
   61  O  2  S    0.249778  -0.000000  -0.000000   0.000000   0.000000
   62  O  2  X   -0.000000   0.000000  -0.000000   0.000000   0.156965
   63  O  2  Y   -0.000000   0.000000  -0.000000   0.156965   0.000000
   64  O  2  Z   -1.612152   0.000000  -0.000000   0.000000   0.000000
   65  O  2 XX   -0.447090  -0.273771  -0.000000   0.000000   0.000000
   66  O  2 YY   -0.447090   0.273771  -0.000000   0.000000   0.000000
   67  O  2 ZZ    0.894180   0.000000  -0.000000   0.000000   0.000000
   68  O  2 XY   -0.000000   0.000000   0.316129   0.000000   0.000000
   69  O  2 XZ   -0.000000   0.000000  -0.000000   0.000000  -0.045938
   70  O  2 YZ   -0.000000   0.000000  -0.000000  -0.045938   0.000000

                     46         47         48         49         50
                    1.0990     1.1284     1.1284     1.1580     1.3381
                     B1U        B3G        B2G        B1U        AG  
    1  O  1  S   -0.124835  -0.000000  -0.000000  -0.071074  -0.310856
    2  O  1  S   -0.163691  -0.000000  -0.000000   0.087058  -0.766672
    3  O  1  S    3.033874  -0.000000  -0.000000   5.808967   1.728363
    4  O  1  X    0.000000  -0.000000   0.505360   0.000000  -0.000000
    5  O  1  Y    0.000000   0.505360  -0.000000   0.000000  -0.000000
    6  O  1  Z   -0.595303  -0.000000  -0.000000   0.090872   0.492201
    7  O  1  X    0.000000  -0.000000  -0.286048   0.000000  -0.000000
    8  O  1  Y    0.000000  -0.286049  -0.000000   0.000000  -0.000000
    9  O  1  Z    3.838610  -0.000000  -0.000000   5.904604  -0.815481
   10  O  1 XX   -0.026003  -0.000000  -0.000000   0.008146  -0.009739
   11  O  1 YY   -0.026003  -0.000000  -0.000000   0.008146  -0.009739
   12  O  1 ZZ    0.052006  -0.000000  -0.000000  -0.016291   0.019477
   13  O  1 XY    0.000000  -0.000000  -0.000000   0.000000  -0.000000
   14  O  1 XZ    0.000000  -0.000000  -0.008131   0.000000  -0.000000
   15  O  1 YZ    0.000000  -0.008131  -0.000000   0.000000  -0.000000
   16  O  1  S    8.609149  -0.000000  -0.000000  17.808364  -0.901333
   17  O  1  X    0.000000  -0.000000   2.920747   0.000000  -0.000000
   18  O  1  Y    0.000000   2.920745  -0.000000   0.000000  -0.000000
   19  O  1  Z    1.909054  -0.000000  -0.000000   5.014714  -0.011382
   20  O  1 XX   -0.233498  -0.000000  -0.000000  -1.120754   0.272646
   21  O  1 YY   -0.233498  -0.000000  -0.000000  -1.120754   0.272646
   22  O  1 ZZ    0.466996  -0.000000  -0.000000   2.241508  -0.545292
   23  O  1 XY    0.000000  -0.000000  -0.000000   0.000000  -0.000000
   24  O  1 XZ    0.000000  -0.000000   0.958190   0.000000  -0.000000
   25  O  1 YZ    0.000000   0.958190  -0.000000   0.000000  -0.000000
   26  O  1  S    0.194354  -0.000000  -0.000000  -1.601731   0.123617
   27  O  1  X    0.000000  -0.000000   1.518539   0.000000  -0.000000
   28  O  1  Y    0.000000   1.518536  -0.000000   0.000000  -0.000000
   29  O  1  Z    0.035744  -0.000000  -0.000000  -0.457688   0.536163
   30  O  1 XX   -0.235816  -0.000000  -0.000000  -0.243016  -0.027310
   31  O  1 YY   -0.235816  -0.000000  -0.000000  -0.243016  -0.027310
   32  O  1 ZZ    0.471631  -0.000000  -0.000000   0.486033   0.054620
   33  O  1 XY    0.000000  -0.000000  -0.000000   0.000000  -0.000000
   34  O  1 XZ    0.000000  -0.000000   0.813834   0.000000  -0.000000
   35  O  1 YZ    0.000000   0.813833  -0.000000   0.000000  -0.000000
   36  O  2  S    0.124835  -0.000000  -0.000000   0.071074  -0.310856
   37  O  2  S    0.163691  -0.000000  -0.000000  -0.087058  -0.766672
   38  O  2  S   -3.033874  -0.000000  -0.000000  -5.808967   1.728363
   39  O  2  X    0.000000  -0.000000  -0.505360   0.000000  -0.000000
   40  O  2  Y    0.000000  -0.505360  -0.000000   0.000000  -0.000000
   41  O  2  Z   -0.595303  -0.000000  -0.000000   0.090872  -0.492201
   42  O  2  X    0.000000  -0.000000   0.286048   0.000000  -0.000000
   43  O  2  Y    0.000000   0.286049  -0.000000   0.000000  -0.000000
   44  O  2  Z    3.838610  -0.000000  -0.000000   5.904604   0.815481
   45  O  2 XX    0.026003  -0.000000  -0.000000  -0.008146  -0.009739
   46  O  2 YY    0.026003  -0.000000  -0.000000  -0.008146  -0.009739
   47  O  2 ZZ   -0.052006  -0.000000  -0.000000   0.016291   0.019477
   48  O  2 XY    0.000000  -0.000000  -0.000000   0.000000  -0.000000
   49  O  2 XZ    0.000000  -0.000000  -0.008131   0.000000  -0.000000
   50  O  2 YZ    0.000000  -0.008131  -0.000000   0.000000  -0.000000
   51  O  2  S   -8.609149  -0.000000  -0.000000 -17.808364  -0.901333
   52  O  2  X    0.000000  -0.000000  -2.920747   0.000000  -0.000000
   53  O  2  Y    0.000000  -2.920745  -0.000000   0.000000  -0.000000
   54  O  2  Z    1.909054  -0.000000  -0.000000   5.014714   0.011382
   55  O  2 XX    0.233498  -0.000000  -0.000000   1.120754   0.272646
   56  O  2 YY    0.233498  -0.000000  -0.000000   1.120754   0.272646
   57  O  2 ZZ   -0.466996  -0.000000  -0.000000  -2.241508  -0.545292
   58  O  2 XY    0.000000  -0.000000  -0.000000   0.000000  -0.000000
   59  O  2 XZ    0.000000  -0.000000   0.958190   0.000000  -0.000000
   60  O  2 YZ    0.000000   0.958190  -0.000000   0.000000  -0.000000
   61  O  2  S   -0.194354  -0.000000  -0.000000   1.601731   0.123617
   62  O  2  X    0.000000  -0.000000  -1.518539   0.000000  -0.000000
   63  O  2  Y    0.000000  -1.518536  -0.000000   0.000000  -0.000000
   64  O  2  Z    0.035744  -0.000000  -0.000000  -0.457688  -0.536163
   65  O  2 XX    0.235816  -0.000000  -0.000000   0.243016  -0.027310
   66  O  2 YY    0.235816  -0.000000  -0.000000   0.243016  -0.027310
   67  O  2 ZZ   -0.471631  -0.000000  -0.000000  -0.486033   0.054620
   68  O  2 XY    0.000000  -0.000000  -0.000000   0.000000  -0.000000
   69  O  2 XZ    0.000000  -0.000000   0.813834   0.000000  -0.000000
   70  O  2 YZ    0.000000   0.813833  -0.000000   0.000000  -0.000000

                     51         52         53         54         55
                    1.4582     1.4582     2.0940     2.7760     2.7760
                     B3G        B2G        AG         B2U        B3U 
    1  O  1  S   -0.000000  -0.000000   0.566856   0.000000   0.000000
[...]
    STATE NUMBER   4  ENERGY =    7.633102 EV  (A)
    STATE NUMBER   5  ENERGY =    7.633102 EV  (A)
    STATE NUMBER   6  ENERGY =    8.197640 EV  (A)
    STATE NUMBER   7  ENERGY =    8.197640 EV  (A)
    STATE NUMBER   8  ENERGY =    8.292849 EV  (A)
    STATE NUMBER   9  ENERGY =    8.505574 EV  (B)
    STATE NUMBER  10  ENERGY =    8.508257 EV  (B)
    STATE NUMBER  11  ENERGY =    8.548569 EV  (B)
    STATE NUMBER  12  ENERGY =    9.020008 EV  (B)
    STATE NUMBER  13  ENERGY =    9.020008 EV  (A)
    STATE NUMBER  14  ENERGY =    9.189119 EV  (A)
    STATE NUMBER  15  ENERGY =    9.189119 EV  (A)
    STATE NUMBER  16  ENERGY =    9.219667 EV  (A)
    MAX ERROR =  2.423E-02 / 1.000E-07
 ITERATION #                     3
    CURRENT VECTORS   49 TO  80 (  32 VECTORS)
    STATE NUMBER   1  ENERGY =    6.088326 EV  (A)
    STATE NUMBER   2  ENERGY =    6.088376 EV  (A)
    STATE NUMBER   3  ENERGY =    6.542039 EV  (A)
    STATE NUMBER   4  ENERGY =    7.610854 EV  (A)
    STATE NUMBER   5  ENERGY =    7.610854 EV  (A)
    STATE NUMBER   6  ENERGY =    7.995260 EV  (A)
    STATE NUMBER   7  ENERGY =    7.995261 EV  (A)
    STATE NUMBER   8  ENERGY =    8.192968 EV  (A)
    STATE NUMBER   9  ENERGY =    8.192969 EV  (B)
    STATE NUMBER  10  ENERGY =    8.270639 EV  (B)
    STATE NUMBER  11  ENERGY =    8.505436 EV  (B)
    STATE NUMBER  12  ENERGY =    8.508125 EV  (B)
    STATE NUMBER  13  ENERGY =    8.548536 EV  (A)
    STATE NUMBER  14  ENERGY =    9.011114 EV  (A)
    STATE NUMBER  15  ENERGY =    9.011114 EV  (A)
    STATE NUMBER  16  ENERGY =    9.050907 EV  (A)
    MAX ERROR =  2.911E-03 / 1.000E-07
 ITERATION #                     4
    CURRENT VECTORS   81 TO 108 (  28 VECTORS)
    STATE NUMBER   1  ENERGY =    6.088288 EV  (A)
    STATE NUMBER   2  ENERGY =    6.088338 EV  (A)
    STATE NUMBER   3  ENERGY =    6.542039 EV  (A)
    STATE NUMBER   4  ENERGY =    7.605938 EV  (A)
    STATE NUMBER   5  ENERGY =    7.605938 EV  (A)
    STATE NUMBER   6  ENERGY =    7.923833 EV  (A)
    STATE NUMBER   7  ENERGY =    7.923833 EV  (A)
    STATE NUMBER   8  ENERGY =    8.192807 EV  (A)
    STATE NUMBER   9  ENERGY =    8.192808 EV  (B)
    STATE NUMBER  10  ENERGY =    8.269928 EV  (B)
    STATE NUMBER  11  ENERGY =    8.505432 EV  (B)
    STATE NUMBER  12  ENERGY =    8.508121 EV  (B)
    STATE NUMBER  13  ENERGY =    8.548536 EV  (A)
    STATE NUMBER  14  ENERGY =    9.010802 EV  (A)
    STATE NUMBER  15  ENERGY =    9.010802 EV  (A)
    STATE NUMBER  16  ENERGY =    9.047476 EV  (A)
    MAX ERROR =  3.067E-04 / 1.000E-07
 ITERATION #                     5
    CURRENT VECTORS  109 TO 134 (  26 VECTORS)
    STATE NUMBER   1  ENERGY =    6.088286 EV  (A)
    STATE NUMBER   2  ENERGY =    6.088336 EV  (A)
    STATE NUMBER   3  ENERGY =    6.542039 EV  (A)
    STATE NUMBER   4  ENERGY =    7.605670 EV  (A)
    STATE NUMBER   5  ENERGY =    7.605670 EV  (A)
    STATE NUMBER   6  ENERGY =    7.920326 EV  (A)
    STATE NUMBER   7  ENERGY =    7.920326 EV  (A)
    STATE NUMBER   8  ENERGY =    8.192797 EV  (A)
    STATE NUMBER   9  ENERGY =    8.192797 EV  (B)
    STATE NUMBER  10  ENERGY =    8.269892 EV  (B)
    STATE NUMBER  11  ENERGY =    8.505432 EV  (B)
    STATE NUMBER  12  ENERGY =    8.508119 EV  (B)
    STATE NUMBER  13  ENERGY =    8.548536 EV  (A)
    STATE NUMBER  14  ENERGY =    9.010773 EV  (A)
    STATE NUMBER  15  ENERGY =    9.010774 EV  (A)
    STATE NUMBER  16  ENERGY =    9.047376 EV  (A)
    MAX ERROR =  3.313E-05 / 1.000E-07
 ITERATION #                     6
    CURRENT VECTORS  135 TO 154 (  20 VECTORS)
    STATE NUMBER   1  ENERGY =    6.088286 EV  (A)
    STATE NUMBER   2  ENERGY =    6.088336 EV  (A)
    STATE NUMBER   3  ENERGY =    6.542039 EV  (A)
    STATE NUMBER   4  ENERGY =    7.605643 EV  (A)
    STATE NUMBER   5  ENERGY =    7.605643 EV  (A)
    STATE NUMBER   6  ENERGY =    7.919977 EV  (A)
    STATE NUMBER   7  ENERGY =    7.919978 EV  (A)
    STATE NUMBER   8  ENERGY =    8.192796 EV  (A)
    STATE NUMBER   9  ENERGY =    8.192796 EV  (B)
    STATE NUMBER  10  ENERGY =    8.269875 EV  (B)
    STATE NUMBER  11  ENERGY =    8.505432 EV  (B)
    STATE NUMBER  12  ENERGY =    8.508119 EV  (B)
    STATE NUMBER  13  ENERGY =    8.548536 EV  (A)
    STATE NUMBER  14  ENERGY =    9.010769 EV  (A)
    STATE NUMBER  15  ENERGY =    9.010769 EV  (A)
    STATE NUMBER  16  ENERGY =    9.047236 EV  (A)
    MAX ERROR =  3.129E-06 / 1.000E-07
 ITERATION #                     7
    CURRENT VECTORS  155 TO 166 (  12 VECTORS)
    STATE NUMBER   1  ENERGY =    6.088286 EV  (A)
    STATE NUMBER   2  ENERGY =    6.088336 EV  (A)
    STATE NUMBER   3  ENERGY =    6.542039 EV  (A)
    STATE NUMBER   4  ENERGY =    7.605640 EV  (A)
    STATE NUMBER   5  ENERGY =    7.605640 EV  (A)
    STATE NUMBER   6  ENERGY =    7.919941 EV  (A)
    STATE NUMBER   7  ENERGY =    7.919941 EV  (A)
    STATE NUMBER   8  ENERGY =    8.192796 EV  (A)
    STATE NUMBER   9  ENERGY =    8.192796 EV  (B)
    STATE NUMBER  10  ENERGY =    8.269873 EV  (B)
    STATE NUMBER  11  ENERGY =    8.505432 EV  (B)
    STATE NUMBER  12  ENERGY =    8.508119 EV  (B)
    STATE NUMBER  13  ENERGY =    8.548536 EV  (A)
    STATE NUMBER  14  ENERGY =    9.010769 EV  (A)
    STATE NUMBER  15  ENERGY =    9.010769 EV  (A)
    STATE NUMBER  16  ENERGY =    9.047222 EV  (A)
    MAX ERROR =  2.837E-07 / 1.000E-07
 ITERATION #                     8
    CURRENT VECTORS  167 TO 172 (   6 VECTORS)
    STATE NUMBER   1  ENERGY =    6.088286 EV  (A)
    STATE NUMBER   2  ENERGY =    6.088336 EV  (A)
    STATE NUMBER   3  ENERGY =    6.542039 EV  (A)
    STATE NUMBER   4  ENERGY =    7.605640 EV  (A)
    STATE NUMBER   5  ENERGY =    7.605640 EV  (A)
    STATE NUMBER   6  ENERGY =    7.919938 EV  (A)
    STATE NUMBER   7  ENERGY =    7.919939 EV  (A)
    STATE NUMBER   8  ENERGY =    8.192796 EV  (A)
    STATE NUMBER   9  ENERGY =    8.192796 EV  (B)
    STATE NUMBER  10  ENERGY =    8.269873 EV  (B)
    STATE NUMBER  11  ENERGY =    8.505432 EV  (B)
    STATE NUMBER  12  ENERGY =    8.508119 EV  (B)
    STATE NUMBER  13  ENERGY =    8.548536 EV  (A)
    STATE NUMBER  14  ENERGY =    9.010769 EV  (A)
    STATE NUMBER  15  ENERGY =    9.010769 EV  (A)
    STATE NUMBER  16  ENERGY =    9.047220 EV  (A)
    MAX ERROR =  1.479E-07 / 1.000E-07
 ITERATION #                     9
    CURRENT VECTORS  173 TO 174 (   2 VECTORS)
    STATE NUMBER   1  ENERGY =    6.088286 EV  (A)
    STATE NUMBER   2  ENERGY =    6.088336 EV  (A)
    STATE NUMBER   3  ENERGY =    6.542039 EV  (A)
    STATE NUMBER   4  ENERGY =    7.605640 EV  (A)
    STATE NUMBER   5  ENERGY =    7.605640 EV  (A)
    STATE NUMBER   6  ENERGY =    7.919938 EV  (A)
    STATE NUMBER   7  ENERGY =    7.919939 EV  (A)
    STATE NUMBER   8  ENERGY =    8.192796 EV  (A)
    STATE NUMBER   9  ENERGY =    8.192796 EV  (B)
    STATE NUMBER  10  ENERGY =    8.269873 EV  (B)
    STATE NUMBER  11  ENERGY =    8.505432 EV  (B)
    STATE NUMBER  12  ENERGY =    8.508119 EV  (B)
    STATE NUMBER  13  ENERGY =    8.548536 EV  (A)
    STATE NUMBER  14  ENERGY =    9.010769 EV  (A)
    STATE NUMBER  15  ENERGY =    9.010769 EV  (A)
    STATE NUMBER  16  ENERGY =    9.047219 EV  (A)
    MAX ERROR =  3.740E-08 / 1.000E-07
  
    ------------------------------------------
    TD-DFT/UHF -B3LYP    CALCULATION CONVERGED 
    ------------------------------------------
 NUMBER OF USED VECTORS / MAX = 174 / 495
 NUMBER OF ITERATIONS   / MAX =   9 / 100
 NUMBER OF SINGLE EXCITATIONS =   495
 NUMBER OF ATOMIC ORBITALS    =  70
 NUMBER OF ELECTRONS          =          15.9999832

          --------------------------------------------------
          RESULTS FOR EXCITED STATES WITH SPIN PROJECTION MS=  1
          --------------------------------------------------

 STATE #   1  ENERGY =    6.088286 EV
 OSCILLATOR STRENGTH =    0.000000
                      EXCITATION  DE-EXCITATION
     OCC     VIR       AMPLITUDE      AMPLITUDE
      I       A          X(I->A)        Y(A->I)
     ---     ---        --------       --------
      6       8 (BET)  -0.707792      -0.067246
      7       9 (BET)   0.707791       0.067246

 STATE #   2  ENERGY =    6.088336 EV
 OSCILLATOR STRENGTH =    0.000000
                      EXCITATION  DE-EXCITATION
     OCC     VIR       AMPLITUDE      AMPLITUDE
      I       A          X(I->A)        Y(A->I)
     ---     ---        --------       --------
      7       8 (BET)  -0.707793      -0.067244
      6       9 (BET)  -0.707792      -0.067244

 STATE #   3  ENERGY =    6.542039 EV
 OSCILLATOR STRENGTH =    0.000000
                      EXCITATION  DE-EXCITATION
     OCC     VIR       AMPLITUDE      AMPLITUDE
      I       A          X(I->A)        Y(A->I)
     ---     ---        --------       --------
      7       8 (BET)  -0.707660       0.043548
      6       9 (BET)   0.707661      -0.043548

 STATE #   4  ENERGY =    7.605640 EV
 OSCILLATOR STRENGTH =    0.000000
                      EXCITATION  DE-EXCITATION
     OCC     VIR       AMPLITUDE      AMPLITUDE
      I       A          X(I->A)        Y(A->I)
     ---     ---        --------       --------
      8      10 (ALP)  -0.927112      -0.003138
      9      10 (ALP)  -0.035231      -0.000119
      8      15 (ALP)   0.139407       0.001200
      8      20 (ALP)   0.071353       0.002517
      8      29 (ALP)  -0.086131      -0.002706
      5       8 (BET)  -0.325673      -0.007913

 STATE #   5  ENERGY =    7.605640 EV
 OSCILLATOR STRENGTH =    0.000000
                      EXCITATION  DE-EXCITATION
     OCC     VIR       AMPLITUDE      AMPLITUDE
      I       A          X(I->A)        Y(A->I)
     ---     ---        --------       --------
      8      10 (ALP)  -0.035231      -0.000119
      9      10 (ALP)   0.927112       0.003138
      9      15 (ALP)  -0.139407      -0.001200
      9      20 (ALP)  -0.071353      -0.002517
      9      29 (ALP)   0.086131       0.002706
      5       9 (BET)   0.325673       0.007913

 STATE #   6  ENERGY =    7.919938 EV
 OSCILLATOR STRENGTH =    0.000000
                      EXCITATION  DE-EXCITATION
     OCC     VIR       AMPLITUDE      AMPLITUDE
      I       A          X(I->A)        Y(A->I)
     ---     ---        --------       --------
      8      10 (ALP)   0.327541      -0.004306
      9      10 (ALP)   0.035531      -0.000467
      5       8 (BET)  -0.935475      -0.004136
      5       9 (BET)  -0.101478      -0.000449
      5      21 (BET)   0.030466       0.000969
      6      32 (BET)   0.030022       0.033669

 STATE #   7  ENERGY =    7.919939 EV
 OSCILLATOR STRENGTH =    0.000000
                      EXCITATION  DE-EXCITATION
     OCC     VIR       AMPLITUDE      AMPLITUDE
      I       A          X(I->A)        Y(A->I)
     ---     ---        --------       --------
      8      10 (ALP)  -0.035531       0.000467
      9      10 (ALP)   0.327541      -0.004306
      5       8 (BET)   0.101478       0.000449
      5       9 (BET)  -0.935475      -0.004136
      5      22 (BET)   0.030466       0.000969
      7      32 (BET)   0.030022       0.033669

 STATE #   8  ENERGY =    8.192796 EV
 OSCILLATOR STRENGTH =    0.005355
                      EXCITATION  DE-EXCITATION
     OCC     VIR       AMPLITUDE      AMPLITUDE
      I       A          X(I->A)        Y(A->I)
     ---     ---        --------       --------
      9      11 (ALP)   0.915324       0.001189
      9      14 (ALP)   0.376554       0.000754
      9      21 (ALP)  -0.122097      -0.000020
      9      24 (ALP)   0.039380       0.000281
      9      32 (ALP)  -0.050856      -0.000088
      4       9 (BET)   0.030137       0.008562

 STATE #   9  ENERGY =    8.192796 EV
 OSCILLATOR STRENGTH =    0.005355
                      EXCITATION  DE-EXCITATION
     OCC     VIR       AMPLITUDE      AMPLITUDE
      I       A          X(I->A)        Y(A->I)
     ---     ---        --------       --------
      8      11 (ALP)   0.915324       0.001189
      8      14 (ALP)   0.376554       0.000754
      8      21 (ALP)  -0.122096      -0.000020
      8      24 (ALP)   0.039380       0.000281
      8      32 (ALP)  -0.050856      -0.000088
      4       8 (BET)   0.030137       0.008562

 STATE #  10  ENERGY =    8.269873 EV
 OSCILLATOR STRENGTH =    0.098374
                      EXCITATION  DE-EXCITATION
     OCC     VIR       AMPLITUDE      AMPLITUDE
      I       A          X(I->A)        Y(A->I)
     ---     ---        --------       --------
      9      12 (ALP)  -0.578087      -0.007898
      8      13 (ALP)  -0.578089      -0.007898
      7      21 (ALP)  -0.043098      -0.014959
      9      27 (ALP)   0.084168       0.009395
      8      28 (ALP)   0.084168       0.009395
      8      30 (ALP)  -0.107354      -0.011894
      9      31 (ALP)  -0.107354      -0.011894
      7      32 (ALP)  -0.071670      -0.029183
      6       8 (BET)  -0.374426       0.022181
      7       9 (BET)  -0.374426       0.022181
      5      32 (BET)  -0.052296      -0.021643

 STATE #  11  ENERGY =    8.505432 EV
 OSCILLATOR STRENGTH =    0.000000
                      EXCITATION  DE-EXCITATION
     OCC     VIR       AMPLITUDE      AMPLITUDE
      I       A          X(I->A)        Y(A->I)
     ---     ---        --------       --------
      9      12 (ALP)   0.702884       0.001622
      8      13 (ALP)  -0.702883      -0.001622
      9      27 (ALP)  -0.038631      -0.000660
      8      28 (ALP)   0.038631       0.000660
      8      30 (ALP)  -0.057887      -0.001436
      9      31 (ALP)   0.057888       0.001436
      6       8 (BET)   0.031625      -0.002248
      7       9 (BET)  -0.031626       0.002248

 STATE #  12  ENERGY =    8.508119 EV
 OSCILLATOR STRENGTH =    0.000000
                      EXCITATION  DE-EXCITATION
     OCC     VIR       AMPLITUDE      AMPLITUDE
      I       A          X(I->A)        Y(A->I)
     ---     ---        --------       --------
      8      12 (ALP)  -0.702859      -0.001507
      9      13 (ALP)  -0.702858      -0.001507
      8      27 (ALP)   0.038768       0.000675
      9      28 (ALP)   0.038767       0.000675
      9      30 (ALP)  -0.058110      -0.001464
      8      31 (ALP)  -0.058111      -0.001464
      7       8 (BET)   0.031608      -0.002252
      6       9 (BET)   0.031607      -0.002252

 STATE #  13  ENERGY =    8.548536 EV
 OSCILLATOR STRENGTH =    0.000000
                      EXCITATION  DE-EXCITATION
     OCC     VIR       AMPLITUDE      AMPLITUDE
      I       A          X(I->A)        Y(A->I)
     ---     ---        --------       --------
      8      12 (ALP)   0.704251      -0.000359
      9      13 (ALP)  -0.704252       0.000359
      8      27 (ALP)  -0.035530       0.000410
      9      28 (ALP)   0.035530      -0.000410
      9      30 (ALP)  -0.051976       0.000649
      8      31 (ALP)   0.051976      -0.000649

 STATE #  14  ENERGY =    9.010769 EV
 OSCILLATOR STRENGTH =    0.003444
                      EXCITATION  DE-EXCITATION
     OCC     VIR       AMPLITUDE      AMPLITUDE
      I       A          X(I->A)        Y(A->I)
     ---     ---        --------       --------
      8      11 (ALP)  -0.400150      -0.000087
      8      14 (ALP)   0.889245       0.000689
      8      21 (ALP)  -0.195790      -0.000762
      8      24 (ALP)   0.060793       0.000061
      8      32 (ALP)  -0.072424      -0.000163
      4       8 (BET)   0.035675       0.008559

 STATE #  15  ENERGY =    9.010769 EV
 OSCILLATOR STRENGTH =    0.003444
                      EXCITATION  DE-EXCITATION
     OCC     VIR       AMPLITUDE      AMPLITUDE
      I       A          X(I->A)        Y(A->I)
     ---     ---        --------       --------
      9      11 (ALP)  -0.400150      -0.000087
      9      14 (ALP)   0.889245       0.000689
      9      21 (ALP)  -0.195790      -0.000762
      9      24 (ALP)   0.060793       0.000061
      9      32 (ALP)  -0.072424      -0.000163
      4       9 (BET)   0.035674       0.008559

 STATE #  16  ENERGY =    9.047219 EV
 OSCILLATOR STRENGTH =    0.078901
                      EXCITATION  DE-EXCITATION
     OCC     VIR       AMPLITUDE      AMPLITUDE
      I       A          X(I->A)        Y(A->I)
     ---     ---        --------       --------
      9      12 (ALP)  -0.404845       0.009284
      8      13 (ALP)  -0.404846       0.009284
      7      14 (ALP)  -0.033074      -0.007299
      7      21 (ALP)   0.077539       0.022646
      7      24 (ALP)  -0.045279      -0.013894
      9      27 (ALP)  -0.080746      -0.012871
      8      28 (ALP)  -0.080746      -0.012871
      8      30 (ALP)   0.096730       0.017382
      9      31 (ALP)   0.096730       0.017382
      3      32 (ALP)  -0.033320      -0.020749
      7      32 (ALP)   0.125014       0.045861
      5      34 (ALP)  -0.031204      -0.013578
      6      35 (ALP)  -0.031204      -0.013578
      8      44 (ALP)   0.039958       0.022861
      9      45 (ALP)   0.039958       0.022861
      6       8 (BET)   0.548891      -0.056709
      7       9 (BET)   0.548890      -0.056709
      5      28 (BET)   0.050093       0.014640
      5      32 (BET)   0.101383       0.037836

                  SUMMARY OF TDDFT RESULTS, STATES WITH MS=  1

   STATE             ENERGY     EXCITATION      TRANSITION DIPOLE    OSCILLATOR
                    HARTREE          EV         X       Y       Z     STRENGTH
   0            -150.2900111278    0.000
   1            -150.0662707181    6.088    -0.0000 -0.0000 -0.0000    0.000
   2            -150.0662688692    6.088    -0.0000 -0.0000 -0.0000    0.000
   3            -150.0495956161    6.542     0.0000  0.0000  0.0000    0.000
   4            -150.0105089964    7.606     0.0000  0.0000  0.0000    0.000
   5            -150.0105089928    7.606    -0.0000  0.0000  0.0000    0.000
   6            -149.9989587327    7.920    -0.0000 -0.0000  0.0000    0.000
   7            -149.9989587242    7.920    -0.0000  0.0000 -0.0000    0.000
   8            -149.9889314178    8.193    -0.1633 -0.0001 -0.0000    0.005
   9            -149.9889313972    8.193     0.0001 -0.1633 -0.0000    0.005
  10            -149.9860988611    8.270    -0.0000  0.0000  0.6968    0.098
  11            -149.9774422363    8.505     0.0000  0.0000 -0.0000    0.000
  12            -149.9773434882    8.508     0.0000  0.0000  0.0000    0.000
  13            -149.9758581854    8.549     0.0000 -0.0000 -0.0000    0.000
  14            -149.9588714422    9.011    -0.0019 -0.1249 -0.0000    0.003
  15            -149.9588714336    9.011    -0.1249  0.0019 -0.0000    0.003
  16            -149.9575319297    9.047     0.0000  0.0000 -0.5966    0.079
  
 SELECTING EXCITED STATE IROOT=   1 AT E=     -150.0662707181
 AS THE STATE OF INTEREST.

 ..... DONE WITH TD-DFT/UHF -B3LYP    EXCITATION ENERGIES .....
 STEP CPU TIME =    37.98 TOTAL CPU TIME =       41.3 (    0.7 MIN)
 TOTAL WALL CLOCK TIME=       41.3 SECONDS, CPU UTILIZATION IS  99.93%
              4220873  WORDS OF DYNAMIC MEMORY USED
 EXECUTION OF GAMESS TERMINATED NORMALLY Fri Jun  2 03:28:54 2017
 DDI: 263640 bytes (0.3 MB / 0 MWords) used by master data server.

 ----------------------------------------
 CPU timing information for all processes
 ========================================
 0: 41.275 + 0.18 = 41.294
 ----------------------------------------
 ddikick.x: exited gracefully.
unset echo
----- accounting info -----
Files used on the master node compute-0-1.local were:
-rw-rw-r-- 1 sarom sarom    3894 Jun  2 03:28 /scratch/utddft-o2.F05
-rw-rw-r-- 1 sarom sarom 2094080 Jun  2 03:28 /scratch/utddft-o2.F10
-rw-rw-r-- 1 sarom sarom  416120 Jun  2 03:28 /scratch/utddft-o2.F22
rm: cannot remove `/scratch/sarom': Is a directory
rm: cannot remove `/scratch/tmp': Is a directory
ls: No match.
ls: No match.
ls: No match.
Fri Jun  2 03:28:57 CDT 2017
0.240u 0.141s 0:44.78 0.8%	0+0k 8+360io 0pf+0w
/opt/gridengine/default/spool/compute-0-1/active_jobs/23847.1/pe_hostfile compute-0-1.local
