-catch_rsh /opt/gridengine/default/spool/compute-1-8/active_jobs/36333.1/pe_hostfile
compute-1-8
The primary node assigned by SGE to this run is compute-1-8
Warning: no access to tty (Bad file descriptor).
Thus no job control in this shell.
source /home/sarom/dir.git.branch.saromleang-travis-ci/install.info
setenv GMS_PATH /home/sarom/dir.git.branch.saromleang-travis-ci
setenv GMS_BUILD_DIR /home/sarom/dir.git.branch.saromleang-travis-ci
setenv GMS_TARGET linux64
setenv GMS_FORTRAN gfortran
setenv GMS_GFORTRAN_VERNO 4.4
setenv GMS_MATHLIB mkl-so
setenv GMS_MATHLIB none
setenv GMS_MATHLIB_PATH /share/apps/intel/compilers_and_libraries_2017.1.132/linux/mkl/lib/intel64
setenv GMS_MKL_VERNO 12
setenv GMS_DDI_COMM sockets
setenv GMS_LIBCCHEM false
setenv GMS_EIGEN_PATH
setenv GMS_PHI false
setenv GMS_SHMTYPE sysv
setenv GMS_OPENMP false
unset echo
sadpt-culot2
/home/sarom/dir.git.branch.saromleang-travis-ci/tests/pes/parallel
----- GAMESS execution script 'rungms' -----
This job is running on host compute-1-8.local
under operating system Linux at Wed Aug 9 22:43:41 CDT 2017
Available scratch disk space (Kbyte units) at beginning of the job is
Filesystem           1K-blocks      Used Available Use% Mounted on
/dev/sda1             16126920   8516588   6791132  56% /
GAMESS temporary binary files will be written to /scratch
GAMESS supplementary output files will be written to /home/sarom/restart
Copying input file sadpt-culot2.inp to your run's scratch directory...
cp /home/sarom/dir.git.branch.saromleang-travis-ci/tests/pes/parallel/sadpt-culot2.inp /scratch/sadpt-culot2.F05
unset echo
The generated host list is
compute-1-8.local
/home/sarom/dir.git.branch.saromleang-travis-ci/ddikick.x /home/sarom/dir.git.branch.saromleang-travis-ci/gamess.00.x sadpt-culot2 -ddi 1 1 compute-1-8.local -scr /scratch

 Distributed Data Interface kickoff program.
 Initiating 1 compute processes on 1 nodes to run the following command:
 /home/sarom/dir.git.branch.saromleang-travis-ci/gamess.00.x sadpt-culot2 

          ******************************************************
          *         GAMESS VERSION = 20 APR 2017 (R1)          *
          *             FROM IOWA STATE UNIVERSITY             *
          * M.W.SCHMIDT, K.K.BALDRIDGE, J.A.BOATZ, S.T.ELBERT, *
          *   M.S.GORDON, J.H.JENSEN, S.KOSEKI, N.MATSUNAGA,   *
          *          K.A.NGUYEN, S.J.SU, T.L.WINDUS,           *
          *       TOGETHER WITH M.DUPUIS, J.A.MONTGOMERY       *
          *         J.COMPUT.CHEM.  14, 1347-1363(1993)        *
          **************** 64 BIT LINUX VERSION ****************

  SINCE 1993, STUDENTS AND POSTDOCS WORKING AT IOWA STATE UNIVERSITY
  AND ALSO IN THEIR VARIOUS JOBS AFTER LEAVING ISU HAVE MADE IMPORTANT
  CONTRIBUTIONS TO THE CODE:
     IVANA ADAMOVIC, CHRISTINE AIKENS, YURI ALEXEEV, POOJA ARORA,
     ANDREY ASADCHEV, ROB BELL, PRADIPTA BANDYOPADHYAY, JONATHAN BENTZ,
     BRETT BODE, KURT BRORSEN, CALEB CARLIN, GALINA CHABAN, WEI CHEN,
     CHEOL HO CHOI, PAUL DAY, ALBERT DEFUSCO, NUWAN DESILVA, TIM DUDLEY,
     DMITRI FEDOROV, GRAHAM FLETCHER, MARK FREITAG, KURT GLAESEMANN,
     DAN KEMP, GRANT MERRILL, NORIYUKI MINEZAWA, JONATHAN MULLIN,
     TAKESHI NAGATA, SEAN NEDD, HEATHER NETZLOFF, BOSILJKA NJEGIC, RYAN OLSON,
     MIKE PAK, SPENCER PRUITT, LUKE ROSKOP, JIM SHOEMAKER, LYUDMILA SLIPCHENKO,
     TONY SMITH, SAROM SOK LEANG, JIE SONG, TETSUYA TAKETSUGU, SIMON WEBB,
     PENG XU, SOOHAENG YOO, FEDERICO ZAHARIEV

  ADDITIONAL CODE HAS BEEN PROVIDED BY COLLABORATORS IN OTHER GROUPS:
     IOWA STATE UNIVERSITY:
          JOE IVANIC, AARON WEST, LAIMUTIS BYTAUTAS, KLAUS RUEDENBERG
     UNIVERSITY OF TOKYO: KIMIHIKO HIRAO, TAKAHITO NAKAJIMA,
          TAKAO TSUNEDA, MUNEAKI KAMIYA, SUSUMU YANAGISAWA,
          KIYOSHI YAGI, MAHITO CHIBA, SEIKEN TOKURA, NAOAKI KAWAKAMI
     UNIVERSITY OF AARHUS: FRANK JENSEN
     UNIVERSITY OF IOWA: VISVALDAS KAIRYS, HUI LI
     NATIONAL INST. OF STANDARDS AND TECHNOLOGY: WALT STEVENS, DAVID GARMER
     UNIVERSITY OF PISA: BENEDETTA MENNUCCI, JACOPO TOMASI
     UNIVERSITY OF MEMPHIS: HENRY KURTZ, PRAKASHAN KORAMBATH
     UNIVERSITY OF ALBERTA: TOBY ZENG, MARIUSZ KLOBUKOWSKI
     UNIVERSITY OF NEW ENGLAND: MARK SPACKMAN
     MIE UNIVERSITY: HIROAKI UMEDA
     NAT. INST. OF ADVANCED INDUSTRIAL SCIENCE AND TECHNOLOGY: KAZUO KITAURA
     MICHIGAN STATE UNIVERSITY:
          KAROL KOWALSKI, MARTA WLOCH, JEFFREY GOUR, JESSE LUTZ,
          WEI LI, PIOTR PIECUCH
     UNIVERSITY OF SILESIA: MONIKA MUSIAL, STANISLAW KUCHARSKI
     FACULTES UNIVERSITAIRES NOTRE-DAME DE LA PAIX:
          OLIVIER QUINET, BENOIT CHAMPAGNE
     UNIVERSITY OF CALIFORNIA - SANTA BARBARA: BERNARD KIRTMAN
     INSTITUTE FOR MOLECULAR SCIENCE:
          KAZUYA ISHIMURA, MICHIO KATOUDA, AND SHIGERU NAGASE
     UNIVERSITY OF NOTRE DAME: ANNA POMOGAEVA, DAN CHIPMAN
     KYUSHU UNIVERSITY:
          HARUYUKI NAKANO,
          FENG LONG GU, JACEK KORCHOWIEC, MARCIN MAKOWSKI, AND YURIKO AOKI,
          HIROTOSHI MORI AND EISAKU MIYOSHI
     PENNSYLVANIA STATE UNIVERSITY:
          TZVETELIN IORDANOV, CHET SWALINA, JONATHAN SKONE,
          SHARON HAMMES-SCHIFFER
     WASEDA UNIVERSITY:
          MASATO KOBAYASHI, TOMOKO AKAMA, TSUGUKI TOUMA,
          TAKESHI YOSHIKAWA, YASUHIRO IKABATA, JUNJI SEINO,
          YUYA NAKAJIMA, HIROMI NAKAI
     NANJING UNIVERSITY: SHUHUA LI
     UNIVERSITY OF NEBRASKA:
          PEIFENG SU, DEJUN SI, NANDUN THELLAMUREGE, YALI WANG, HUI LI
     UNIVERSITY OF ZURICH: ROBERTO PEVERATI, KIM BALDRIDGE
     N. COPERNICUS UNIVERSITY AND JACKSON STATE UNIVERSITY:
          MARIA BARYSZ
     UNIVERSITY OF COPENHAGEN: Jimmy Kromann, CASPER STEINMANN
     TOKYO INSTITUTE OF TECHNOLOGY: HIROYA NAKATA
     NAGOYA UNIVERSITY: YOSHIO NISHIMOTO, STEPHAN IRLE
     MOSCOW STATE UNIVERSITY: VLADIMIR MIRONOV

 EXECUTION OF GAMESS BEGUN Wed Aug  9 22:43:41 2017

            ECHO OF THE FIRST FEW INPUT CARDS -
 INPUT CARD>!  Example 5.2 from Culot, et al, Theoret.Chim.Acta 82, 189(1992)               
 INPUT CARD>!  rearrangment of H3CO to H2COH                                                
 INPUT CARD>!                                                                               
 INPUT CARD>!     NSERCH:   0  E=     -112.8595065322  R.M.S.=  0.0355275                   
 INPUT CARD>!     NSERCH:   1  E=     -112.8451784444  R.M.S.=  0.0354567                   
 INPUT CARD>!          ...snipped...                                                        
 INPUT CARD>!     NSERCH:   8  E=     -112.8289937698  R.M.S.=  0.0000645                   
 INPUT CARD>!     NSERCH:   9  E=     -112.8289937879  R.M.S.=  0.0000110                   
 INPUT CARD>!                                                                               
 INPUT CARD>!  This run takes 0 seconds on almost anything ( 9 Nov 2005)                    
 INPUT CARD>!  results have not changed since at least 2005                                 
 INPUT CARD>!                                                                               
 INPUT CARD> $contrl scftyp=uhf mult=2 runtyp=sadpoint coord=zmt nzvar=9 $end               
 INPUT CARD> $system mwords=1 $end                                                          
 INPUT CARD> $statpt hess=read ifolow=2 $end                                                
 INPUT CARD> $basis  gbasis=sto ngauss=3 $end                                               
 INPUT CARD> $guess  guess=huckel $end                                                      
 INPUT CARD> $data                                                                          
 INPUT CARD>methoxy radical isomerization                                                   
 INPUT CARD>Cs                                                                              
 INPUT CARD>                                                                                
 INPUT CARD>C                                                                               
 INPUT CARD>O 1 rCO                                                                         
 INPUT CARD>H 1 rCHm 2 aHmCO                                                                
 INPUT CARD>H 1 rCHt 2 aHtCO 3  omega                                                       
 INPUT CARD>H 1 rCHt 2 aHtCO 3 -omega                                                       
 INPUT CARD>                                                                                
 INPUT CARD>rCO=1.423                                                                       
 INPUT CARD>rCHm=1.484                                                                      
 INPUT CARD>rCHt=1.087                                                                      
 INPUT CARD>aHmCO=42.7                                                                      
 INPUT CARD>aHtCO=117.5                                                                     
 INPUT CARD>omega=105.4                                                                     
 INPUT CARD> $end                                                                           
 INPUT CARD>                                                                                
 INPUT CARD>-----UHF hessian by numerical double differencing-----                          
 INPUT CARD> $HESS                                                                          
 INPUT CARD>ENERGY IS     -112.8595065315 E(NUC) IS       34.5167064528                     
 INPUT CARD> 1  1 8.18510790E-01-9.06836731E-02 2.24646690E-13-4.78010235E-01-4.25387612E-02
 INPUT CARD> 1  2-1.07379383E-13-2.65193897E-02 4.16166811E-02 2.60208521E-14-1.56976176E-01
 INPUT CARD> 1  3 4.57993222E-02-1.49917007E-01-1.56976176E-01 4.57993222E-02 1.49917007E-01
 INPUT CARD> 2  1-9.06836731E-02 9.76637321E-02-2.11636264E-14 9.77352163E-03 5.39459273E-02
 INPUT CARD> 2  2-1.11716192E-13 5.50255092E-03-7.33121883E-02-9.02056208E-15 3.76913348E-02
 INPUT CARD> 2  3-3.91492294E-02 6.59025716E-02 3.76913348E-02-3.91492294E-02-6.59025716E-02
 INPUT CARD> 3  1 2.24646690E-13-2.11636264E-14 7.78989418E-01 1.02348685E-14-1.45716772E-13
 INPUT CARD> 3  2-8.35625686E-02-2.87964097E-14-2.66713734E-14 3.66234829E-02-1.51490178E-01
 INPUT CARD> 3  3 9.59622411E-02-3.66026523E-01 1.51490178E-01-9.59622411E-02-3.66026523E-01
 INPUT CARD> 4  1-4.78010235E-01 9.77352163E-03 1.02348685E-14 5.05256828E-01 5.75549506E-03
 INPUT CARD> 4  2-2.95596880E-13 1.51411277E-02-1.99642330E-02-1.73472348E-13-2.11858744E-02
 INPUT CARD> 4  3 2.21636543E-03 1.57617424E-03-2.11858744E-02 2.21636543E-03-1.57617424E-03
    1000000 WORDS OF MEMORY AVAILABLE

     BASIS OPTIONS
     -------------
     GBASIS=STO          IGAUSS=       3      POLAR=NONE    
     NDFUNC=       0     NFFUNC=       0     DIFFSP=       F
     NPFUNC=       0      DIFFS=       F     BASNAM=        


     RUN TITLE
     ---------
 methoxy radical isomerization                                                   

 THE POINT GROUP OF THE MOLECULE IS CS      
 THE ORDER OF THE PRINCIPAL AXIS IS     0

 YOUR FULLY SUBSTITUTED Z-MATRIX IS
 C   
 O      1   1.4230000
 H      1   1.4840000  2   42.7000
 H      1   1.0870000  2  117.5000  3  105.4000  0
 H      1   1.0870000  2  117.5000  3 -105.4000  0

 THE MOMENTS OF INERTIA ARE (AMU-ANGSTROM**2)
 IXX=     2.825   IYY=    18.410   IZZ=    19.068

 ATOM      ATOMIC                      COORDINATES (BOHR)
           CHARGE         X                   Y                   Z
 C           6.0     1.3912036987        0.0554162155        0.0000000000
 O           8.0    -1.2927740395       -0.1101590854        0.0000000000
 H           1.0    -0.7829458880        1.8267070936        0.0000000000
 H           1.0     2.3676890669       -0.3691171615        1.7566179499
 H           1.0     2.3676890669       -0.3691171615       -1.7566179499

          INTERNUCLEAR DISTANCES (ANGS.)
          ------------------------------

                1 C          2 O          3 H          4 H          5 H     

   1 C       0.0000000    1.4230000 *  1.4840000 *  1.0870000 *  1.0870000 *
   2 O       1.4230000 *  0.0000000    1.0598583 *  2.1528968 *  2.1528968 *
   3 H       1.4840000 *  1.0598583 *  0.0000000    2.2347232 *  2.2347232 *
   4 H       1.0870000 *  2.1528968 *  2.2347232 *  0.0000000    1.8591245 *
   5 H       1.0870000 *  2.1528968 *  2.2347232 *  1.8591245 *  0.0000000  

  * ... LESS THAN  3.000


     ATOMIC BASIS SET
     ----------------
 THE CONTRACTED PRIMITIVE FUNCTIONS HAVE BEEN UNNORMALIZED
 THE CONTRACTED BASIS FUNCTIONS ARE NOW NORMALIZED TO UNITY

  SHELL TYPE  PRIMITIVE        EXPONENT          CONTRACTION COEFFICIENT(S)

 C         

      1   S       1            71.6168373    0.154328967295
      1   S       2            13.0450963    0.535328142282
      1   S       3             3.5305122    0.444634542185

      2   L       4             2.9412494   -0.099967229187    0.155916274999
      2   L       5             0.6834831    0.399512826089    0.607683718598
      2   L       6             0.2222899    0.700115468880    0.391957393099

 O         

      3   S       7           130.7093214    0.154328967295
      3   S       8            23.8088661    0.535328142282
      3   S       9             6.4436083    0.444634542185

      4   L      10             5.0331513   -0.099967229187    0.155916274999
      4   L      11             1.1695961    0.399512826089    0.607683718598
      4   L      12             0.3803890    0.700115468880    0.391957393099

 H         

      5   S      13             3.4252509    0.154328967295
      5   S      14             0.6239137    0.535328142282
      5   S      15             0.1688554    0.444634542185

 H         

      7   S      16             3.4252509    0.154328967295
      7   S      17             0.6239137    0.535328142282
      7   S      18             0.1688554    0.444634542185

 TOTAL NUMBER OF BASIS SET SHELLS             =    7
 NUMBER OF CARTESIAN GAUSSIAN BASIS FUNCTIONS =   13
 NUMBER OF ELECTRONS                          =   17
 CHARGE OF MOLECULE                           =    0
 SPIN MULTIPLICITY                            =    2
 NUMBER OF OCCUPIED ORBITALS (ALPHA)          =    9
 NUMBER OF OCCUPIED ORBITALS (BETA )          =    8
 TOTAL NUMBER OF ATOMS                        =    5
 THE NUCLEAR REPULSION ENERGY IS       34.5167064528

     $CONTRL OPTIONS
     ---------------
 SCFTYP=UHF          RUNTYP=SADPOINT     EXETYP=RUN     
 MPLEVL=       0     CITYP =NONE         CCTYP =NONE         VBTYP =NONE    
 DFTTYP=NONE         TDDFT =NONE    
 MULT  =       2     ICHARG=       0     NZVAR =       9     COORD =ZMT     
 PP    =NONE         RELWFN=NONE         LOCAL =NONE         NUMGRD=       F
 ISPHER=      -1     NOSYM =       0     MAXIT =      30     UNITS =ANGS    
 PLTORB=       F     MOLPLT=       F     AIMPAC=       F     FRIEND=        
 NPRINT=       7     IREST =       0     GEOM  =INPUT   
 NORMF =       0     NORMP =       0     ITOL  =      20     ICUT  =       9
 INTTYP=BEST         GRDTYP=BEST         QMTTOL= 1.0E-06

     $SYSTEM OPTIONS
     ---------------
  REPLICATED MEMORY=     1000000 WORDS (ON EVERY NODE).
 DISTRIBUTED MEMDDI=           0 MILLION WORDS IN AGGREGATE,
 MEMDDI DISTRIBUTED OVER   1 PROCESSORS IS           0 WORDS/PROCESSOR.
 TOTAL MEMORY REQUESTED ON EACH PROCESSOR=     1000000 WORDS.
 TIMLIM=      525600.00 MINUTES, OR     365.0 DAYS.
 PARALL= F  BALTYP=  DLB     KDIAG=    0  COREFL= F
 MXSEQ2=     300 MXSEQ3=     150  mem10=         0

          ----------------
          PROPERTIES INPUT
          ----------------

     MOMENTS            FIELD           POTENTIAL          DENSITY
 IEMOM =       1   IEFLD =       0   IEPOT =       0   IEDEN =       0
 WHERE =COMASS     WHERE =NUCLEI     WHERE =NUCLEI     WHERE =NUCLEI  
 OUTPUT=BOTH       OUTPUT=BOTH       OUTPUT=BOTH       OUTPUT=BOTH    
 IEMINT=       0   IEFINT=       0                     IEDINT=       0
                                                       MORB  =       0
          EXTRAPOLATION IN EFFECT
          SOSCF IN EFFECT
          DIIS or SOSCF will be reset if energy rises
 ORBITAL PRINTING OPTION: NPREO=     1    13     2     1

     -------------------------------
     INTEGRAL TRANSFORMATION OPTIONS
     -------------------------------
     NWORD  =            0
     CUTOFF = 1.0E-09     MPTRAN =       0
     DIRTRF =       F     AOINTS =DUP     

          ----------------------
          INTEGRAL INPUT OPTIONS
          ----------------------
 NOPK  =       1 NORDER=       0 SCHWRZ=       F

   --- ENCODED Z MATRIX ---
 COORD  TYPE   I   J   K   L   M   N
    1      1    2   1
    2      1    3   1
    3      2    3   1   2
    4      1    5   1
    5      2    5   1   2
    6      3    5   1   2   3
    7      1    4   1
    8      2    4   1   2
    9      3    4   1   2   3

 THE DETERMINANT OF THE G MATRIX IS 10**(    -4)


                     --------------------
                     INTERNAL COORDINATES
                     --------------------

                 - - ATOMS - -         COORDINATE      COORDINATE
 NO.   TYPE    I  J  K  L  M  N        (BOHR,RAD)       (ANG,DEG)
 ----------------------------------------------------------------
   1 STRETCH   2  1                     2.6890801       1.4230000
   2 STRETCH   3  1                     2.8043534       1.4840000
   3 BEND      3  1  2                  0.7452556      42.7000000
   4 STRETCH   5  1                     2.0541321       1.0870000
   5 BEND      5  1  2                  2.0507619     117.5000000
   6 TORSION   5  1  2  3              -1.8395770    -105.4000000
   7 STRETCH   4  1                     2.0541321       1.0870000
   8 BEND      4  1  2                  2.0507619     117.5000000
   9 TORSION   4  1  2  3               1.8395770     105.4000000

     ------------------------------------------
     THE POINT GROUP IS CS , NAXIS= 0, ORDER= 2
     ------------------------------------------

     DIMENSIONS OF THE SYMMETRY SUBSPACES ARE
 A'  =   10     A'' =    3

 ..... DONE SETTING UP THE RUN .....
 STEP CPU TIME =     0.02 TOTAL CPU TIME =        0.0 (    0.0 MIN)
 TOTAL WALL CLOCK TIME=        0.0 SECONDS, CPU UTILIZATION IS  66.67%


          -----------------------------
          STATIONARY POINT LOCATION RUN
          -----------------------------

 OBTAINING INITIAL HESSIAN, HESS=READ    

 $HESS GROUP READ FROM CARDS
 ENERGY IS     -112.8595065315 E(NUC) IS       34.5167064528                     

          PARAMETERS CONTROLLING GEOMETRY SEARCH ARE
          METHOD =QA                  UPHESS =POWELL  
          NNEG   =         1          NFRZ   =         0
          NSTEP  =        20          IFOLOW =         2
          HESS   =READ                RESTAR =         F
          IHREP  =         0          HSSEND =         F
          NPRT   =         0          NPUN   =         0
          OPTTOL = 1.000E-04          RMIN   = 1.500E-03
          RMAX   = 1.000E-01          RLIM   = 7.000E-02
          DXMAX  = 2.000E-01          PURIFY =         F
          MOVIE  =         F          TRUPD  =         T
          TRMAX  = 3.000E-01          TRMIN  = 5.000E-02
          ITBMAT =         5          STPT   =         F
          STSTEP = 1.000E-02          PROJCT=          T

 BEGINNING GEOMETRY SEARCH POINT NSERCH=   0 ...

 COORDINATES OF SYMMETRY UNIQUE ATOMS (ANGS)
   ATOM   CHARGE       X              Y              Z
 ------------------------------------------------------------
 C           6.0   0.7361933464   0.0293250005   0.0000000000
 O           8.0  -0.6841066101  -0.0582936818   0.0000000000
 H           1.0  -0.4143171513   0.9666518349   0.0000000000
 H           1.0   1.2529271875  -0.1953284042  -0.9295622547
 COORDINATES OF ALL ATOMS ARE (ANGS)
   ATOM   CHARGE       X              Y              Z
 ------------------------------------------------------------
 C           6.0   0.7361933464   0.0293250005   0.0000000000
 O           8.0  -0.6841066101  -0.0582936818   0.0000000000
 H           1.0  -0.4143171513   0.9666518349   0.0000000000
 H           1.0   1.2529271875  -0.1953284042   0.9295622547
 H           1.0   1.2529271875  -0.1953284042  -0.9295622547


                     --------------------
                     INTERNAL COORDINATES
                     --------------------

                 - - ATOMS - -         COORDINATE      COORDINATE
 NO.   TYPE    I  J  K  L  M  N        (BOHR,RAD)       (ANG,DEG)
 ----------------------------------------------------------------
   1 STRETCH   2  1                     2.6890801       1.4230000
   2 STRETCH   3  1                     2.8043534       1.4840000
   3 BEND      3  1  2                  0.7452556      42.7000000
   4 STRETCH   5  1                     2.0541321       1.0870000
   5 BEND      5  1  2                  2.0507619     117.5000000
   6 TORSION   5  1  2  3              -1.8395770    -105.4000000
   7 STRETCH   4  1                     2.0541321       1.0870000
   8 BEND      4  1  2                  2.0507619     117.5000000
   9 TORSION   4  1  2  3               1.8395770     105.4000000

 THE CURRENT FULLY SUBSTITUTED Z-MATRIX IS
 C   
 O      1   1.4230000
 H      1   1.4840000  2    42.7000000
 H      1   1.0870000  2   117.5000000  3  -105.4000000  0
 H      1   1.0870000  2   117.5000000  3   105.4000000  0

          ********************
          1 ELECTRON INTEGRALS
          ********************
 ...... END OF ONE-ELECTRON INTEGRALS ......
 STEP CPU TIME =     0.00 TOTAL CPU TIME =        0.0 (    0.0 MIN)
 TOTAL WALL CLOCK TIME=        0.0 SECONDS, CPU UTILIZATION IS  66.67%

          -------------
          GUESS OPTIONS
          -------------
          GUESS =HUCKEL            NORB  =       0          NORDER=       0
          MIX   =       F          PRTMO =       F          PUNMO =       F
          TOLZ  = 1.0E-08          TOLE  = 1.0E-05
          SYMDEN=       F          PURIFY=       F

 INITIAL GUESS ORBITALS GENERATED BY HUCKEL   ROUTINE.
 HUCKEL GUESS REQUIRES      5362 WORDS.

 SYMMETRIES FOR INITIAL GUESS ORBITALS FOLLOW.  ALPHA SET(S).
     9 ORBITALS ARE OCCUPIED (    2 CORE ORBITALS).
     3=A'       4=A'       5=A''      6=A'       7=A'       8=A''      9=A'  
    10=A'      11=A''     12=A'      13=A'  

 SYMMETRIES FOR INITIAL GUESS ORBITALS FOLLOW.   BETA SET(S).
     8 ORBITALS ARE OCCUPIED (    2 CORE ORBITALS).
     3=A'       4=A'       5=A''      6=A'       7=A'       8=A''      9=A'  
    10=A'      11=A''     12=A'      13=A'  
 ...... END OF INITIAL ORBITAL SELECTION ......
 STEP CPU TIME =     0.00 TOTAL CPU TIME =        0.0 (    0.0 MIN)
 TOTAL WALL CLOCK TIME=        0.0 SECONDS, CPU UTILIZATION IS  66.67%

                    ----------------------
                    AO INTEGRAL TECHNOLOGY
                    ----------------------
     S,P,L SHELL ROTATED AXIS INTEGRALS, REPROGRAMMED BY
        KAZUYA ISHIMURA (IMS) AND JOSE SIERRA (SYNSTAR).
     S,P,D,L SHELL ROTATED AXIS INTEGRALS PROGRAMMED BY
        KAZUYA ISHIMURA (INSTITUTE FOR MOLECULAR SCIENCE).
     S,P,D,F,G SHELL TO TOTAL QUARTET ANGULAR MOMENTUM SUM 5,
        ERIC PROGRAM BY GRAHAM FLETCHER (ELORET AND NASA ADVANCED
        SUPERCOMPUTING DIVISION, AMES RESEARCH CENTER).
     S,P,D,F,G,L SHELL GENERAL RYS QUADRATURE PROGRAMMED BY
        MICHEL DUPUIS (PACIFIC NORTHWEST NATIONAL LABORATORY).

          --------------------
          2 ELECTRON INTEGRALS
          --------------------

 THE -PK- OPTION IS OFF, THE INTEGRALS ARE NOT IN SUPERMATRIX FORM.
 STORING   15000 INTEGRALS/RECORD ON DISK, USING 12 BYTES/INTEGRAL.
 TWO ELECTRON INTEGRAL EVALUATION REQUIRES   89384 WORDS OF MEMORY.
 II,JST,KST,LST =  1  1  1  1 NREC =         1 INTLOC =    1
 II,JST,KST,LST =  2  1  1  1 NREC =         1 INTLOC =    2
 II,JST,KST,LST =  3  1  1  1 NREC =         1 INTLOC =   34
 II,JST,KST,LST =  4  1  1  1 NREC =         1 INTLOC =  101
 II,JST,KST,LST =  5  1  1  1 NREC =         1 INTLOC =  812
 II,JST,KST,LST =  6  1  1  1 NREC =         1 INTLOC = 1241
 II,JST,KST,LST =  7  1  1  1 NREC =         1 INTLOC = 1241
 TOTAL NUMBER OF NONZERO TWO-ELECTRON INTEGRALS =                2254
          1 INTEGRAL RECORDS WERE STORED ON DISK FILE  8.
  ...... END OF TWO-ELECTRON INTEGRALS .....
 STEP CPU TIME =     0.02 TOTAL CPU TIME =        0.0 (    0.0 MIN)
 TOTAL WALL CLOCK TIME=        0.1 SECONDS, CPU UTILIZATION IS  80.00%

          ---------------------------
                  UHF SCF CALCULATION
          ---------------------------

     NUCLEAR ENERGY =        34.5167064528
     MAXIT = 30     NPUNCH=  2     MULT=  2
     EXTRAP=T  DAMP=F  SHIFT=F  RSTRCT=F  DIIS=F  SOSCF=T
     DENSITY MATRIX CONV=  1.00E-05
     SOSCF WILL OPTIMIZE      36 ALPHA AND      40 BETA ROTATION ANGLES.
     SOGTOL= 2.500E-01
     MEMORY REQUIRED FOR UHF/ROHF ITERS=     32430 WORDS.

 ITER EX      TOTAL ENERGY        E CHANGE  DENSITY CHANGE    ORB. GRAD 
   1  0     -112.5821504308  -112.5821504308   0.613209544   0.000000000
          ---------------START SECOND ORDER SCF---------------
   2  1     -112.8372932735    -0.2551428428   0.170013394   0.059440150
   3  2     -112.8565660230    -0.0192727495   0.071881483   0.017719324
   4  3     -112.8591208398    -0.0025548168   0.014569568   0.005409939
   5  4     -112.8593842259    -0.0002633861   0.013598502   0.002789163
   6  5     -112.8594843456    -0.0001001197   0.004089211   0.001259377
   7  6     -112.8594989086    -0.0000145630   0.004065340   0.000965539
   8  7     -112.8595053976    -0.0000064890   0.001248033   0.000370551
   9  8     -112.8595061988    -0.0000008011   0.000805649   0.000204602
  10  9     -112.8595064676    -0.0000002688   0.000303135   0.000075253
  11 10     -112.8595065150    -0.0000000475   0.000167878   0.000046048
  12 11     -112.8595065292    -0.0000000141   0.000056604   0.000016468
  13 12     -112.8595065316    -0.0000000025   0.000023289   0.000005671
  14 13     -112.8595065321    -0.0000000004   0.000007792   0.000002092
  15 14     -112.8595065322    -0.0000000001   0.000004195   0.000001211

          -----------------
          DENSITY CONVERGED
          -----------------
     TIME TO FORM FOCK OPERATORS=       0.0 SECONDS (       0.0 SEC/ITER)
     TIME TO SOLVE SCF EQUATIONS=       0.0 SECONDS (       0.0 SEC/ITER)

 FINAL UHF ENERGY IS     -112.8595065322 AFTER  15 ITERATIONS

          --------------------
          SPIN SZ   =    0.500
          S-SQUARED =    0.773
          --------------------

  ----- ALPHA SET ----- 

          ------------
          EIGENVECTORS
          ------------

                      1          2          3          4          5
                  -20.2849   -11.0540    -1.3092    -0.8538    -0.6112
                     A'         A'         A'         A'         A'  
    1  C  1  S    0.000407   0.992017  -0.091099  -0.215080  -0.004979
    2  C  1  S   -0.003516   0.035406   0.233619   0.690857   0.019593
    3  C  1  X    0.003872   0.000015  -0.107648   0.130786  -0.018309
    4  C  1  Y    0.000965  -0.001063   0.010615   0.015109   0.424197
    5  C  1  Z   -0.000000   0.000000   0.000000   0.000000  -0.000000
    6  O  2  S    0.994315   0.000344  -0.220914   0.092011   0.076311
    7  O  2  S    0.024836  -0.003822   0.796713  -0.401222  -0.374192
    8  O  2  X    0.003427  -0.002716   0.106945   0.150834   0.079031
    9  O  2  Y    0.002369   0.001001   0.077275  -0.039093   0.562265
   10  O  2  Z   -0.000000   0.000000   0.000000   0.000000  -0.000000
   11  H  3  S   -0.004537  -0.003727   0.132355  -0.060718   0.410719
   12  H  4  S    0.000146  -0.007232   0.023792   0.224289  -0.060838
   13  H  5  S    0.000146  -0.007232   0.023792   0.224289  -0.060838

                      6          7          8          9         10
                   -0.5913    -0.4912    -0.3758    -0.3087     0.5389
                     A''        A'         A''        A'         A'  
    1  C  1  S   -0.000000  -0.026036   0.000000  -0.044923  -0.018571
    2  C  1  S   -0.000000   0.139276   0.000000   0.257645   0.093525
    3  C  1  X   -0.000000  -0.529520   0.000000   0.012717  -0.151871
    4  C  1  Y   -0.000000  -0.030591   0.000000   0.874283  -0.246537
    5  C  1  Z    0.552110   0.000000  -0.186137   0.000000  -0.000000
    6  O  2  S   -0.000000   0.059422   0.000000  -0.025921   0.095659
    7  O  2  S   -0.000000  -0.305137   0.000000   0.137209  -0.598986
    8  O  2  X   -0.000000   0.627470   0.000000  -0.112972  -0.322175
    9  O  2  Y   -0.000000  -0.138050   0.000000  -0.489909  -0.711503
   10  O  2  Z    0.371864   0.000000   0.920965   0.000000  -0.000000
   11  H  3  S   -0.000000  -0.124887   0.000000  -0.245829   1.065100
   12  H  4  S    0.335443  -0.173747  -0.257128  -0.110087  -0.087484
   13  H  5  S   -0.335443  -0.173747   0.257128  -0.110087  -0.087484

                     11         12         13
                    0.5957     0.6888     0.7436
                     A'         A'         A'' 
    1  C  1  S   -0.193819  -0.093407  -0.000000
    2  C  1  S    1.117308   0.663760  -0.000000
    3  C  1  X   -0.457684   0.981001  -0.000000
    4  C  1  Y   -0.184284  -0.244124  -0.000000
    5  C  1  Z   -0.000000   0.000000   1.138985
    6  O  2  S    0.045766  -0.031898  -0.000000
    7  O  2  S   -0.274703   0.207588  -0.000000
    8  O  2  X   -0.727378   0.375215  -0.000000
    9  O  2  Y    0.292943  -0.043168  -0.000000
   10  O  2  Z   -0.000000   0.000000  -0.186389
   11  H  3  S   -0.392408   0.160850  -0.000000
   12  H  4  S   -0.476612  -0.772308  -0.876313
   13  H  5  S   -0.476612  -0.772308   0.876313

  ----- BETA SET ----- 

          ------------
          EIGENVECTORS
          ------------

                      1          2          3          4          5
                  -20.2810   -11.0239    -1.2802    -0.7678    -0.5716
                     A'         A'         A'         A'         A'' 
    1  C  1  S    0.000395   0.992920  -0.075956  -0.195485  -0.000000
    2  C  1  S   -0.003386   0.031507   0.176181   0.579306  -0.000000
    3  C  1  X    0.003777  -0.000073  -0.108834   0.120431  -0.000000
    4  C  1  Y    0.000982  -0.001275  -0.006897  -0.070489  -0.000000
    5  C  1  Z   -0.000000   0.000000   0.000000   0.000000   0.502491
    6  O  2  S    0.994409   0.000257  -0.224757   0.073616  -0.000000
    7  O  2  S    0.024445  -0.003264   0.814516  -0.322538  -0.000000
    8  O  2  X    0.003393  -0.002320   0.112075   0.189478  -0.000000
    9  O  2  Y    0.002374   0.000938   0.070237  -0.058287  -0.000000
   10  O  2  Z   -0.000000   0.000000   0.000000   0.000000   0.386339
   11  H  3  S   -0.004541  -0.003364   0.151080  -0.067172  -0.000000
   12  H  4  S    0.000138  -0.006403   0.024683   0.294128   0.369885
   13  H  5  S    0.000138  -0.006403   0.024683   0.294128  -0.369885

                      6          7          8          9         10
                   -0.5199    -0.4842    -0.3700     0.3196     0.5688
                     A'         A'         A''        A'         A'  
    1  C  1  S   -0.007932  -0.024362   0.000000  -0.066514   0.005946
    2  C  1  S   -0.005026   0.133373   0.000000   0.329350  -0.031356
    3  C  1  X    0.002492  -0.471366   0.000000   0.056405  -0.058802
    4  C  1  Y    0.199278   0.000980   0.000000   0.910394  -0.341253
    5  C  1  Z    0.000000   0.000000  -0.162868   0.000000   0.000000
    6  O  2  S    0.091715   0.057881   0.000000  -0.000915   0.082093
    7  O  2  S   -0.463094  -0.291536   0.000000   0.004431  -0.519881
    8  O  2  X    0.078085   0.671955   0.000000  -0.096751  -0.213378
    9  O  2  Y    0.567214  -0.127284   0.000000  -0.428886  -0.776843
   10  O  2  Z    0.000000   0.000000   0.913828   0.000000   0.000000
   11  H  3  S    0.576468  -0.110928   0.000000  -0.053298   1.058740
   12  H  4  S   -0.012143  -0.189457  -0.279946  -0.114382  -0.058134
   13  H  5  S   -0.012143  -0.189457   0.279946  -0.114382  -0.058134

                     11         12         13
                    0.6427     0.7250     0.7762
                     A'         A'         A'' 
    1  C  1  S   -0.204023  -0.106759   0.000000
    2  C  1  S    1.138283   0.725531   0.000000
    3  C  1  X   -0.529262   0.984473   0.000000
    4  C  1  Y   -0.194796  -0.268295   0.000000
    5  C  1  Z   -0.000000   0.000000   1.165219
    6  O  2  S    0.061918  -0.033188   0.000000
    7  O  2  S   -0.374741   0.217725   0.000000
    8  O  2  X   -0.739575   0.335611   0.000000
    9  O  2  Y    0.206577   0.016125   0.000000
   10  O  2  Z   -0.000000   0.000000  -0.191988
   11  H  3  S   -0.271940   0.102666   0.000000
   12  H  4  S   -0.439792  -0.771441  -0.855206
   13  H  5  S   -0.439792  -0.771441   0.855206
 ...... END OF UHF CALCULATION ......
 STEP CPU TIME =     0.00 TOTAL CPU TIME =        0.0 (    0.0 MIN)
 TOTAL WALL CLOCK TIME=        0.1 SECONDS, CPU UTILIZATION IS  80.00%

     ----------------------------------------------------------------
     PROPERTY VALUES FOR THE UHF   SELF-CONSISTENT FIELD WAVEFUNCTION
     ----------------------------------------------------------------

          -----------------
          ENERGY COMPONENTS
          -----------------

         WAVEFUNCTION NORMALIZATION =       1.0000000000

                ONE ELECTRON ENERGY =    -223.5737118784
                TWO ELECTRON ENERGY =      76.1974988935
           NUCLEAR REPULSION ENERGY =      34.5167064528
                                      ------------------
                       TOTAL ENERGY =    -112.8595065322

 ELECTRON-ELECTRON POTENTIAL ENERGY =      76.1974988935
  NUCLEUS-ELECTRON POTENTIAL ENERGY =    -335.8413501175
   NUCLEUS-NUCLEUS POTENTIAL ENERGY =      34.5167064528
                                      ------------------
             TOTAL POTENTIAL ENERGY =    -225.1271447713
               TOTAL KINETIC ENERGY =     112.2676382391
                 VIRIAL RATIO (V/T) =       2.0052719404

          ---------------------------------------
          MULLIKEN AND LOWDIN POPULATION ANALYSES
          ---------------------------------------

     ATOMIC MULLIKEN POPULATION IN EACH MOLECULAR ORBITAL
        ALPHA ORBITALS

                      1          2          3          4          5

                  1.000000   1.000000   1.000000   1.000000   1.000000

    1            -0.000250   1.001306   0.164139   0.584047   0.255412
    2             1.000462  -0.000174   0.750350   0.148284   0.508872
    3            -0.000213  -0.000108   0.077362   0.001083   0.224646
    4             0.000001  -0.000512   0.004074   0.133293   0.005535
    5             0.000001  -0.000512   0.004074   0.133293   0.005535

                      6          7          8          9

                  1.000000   1.000000   1.000000   1.000000

    1             0.480776   0.346070   0.049925   0.700069
    2             0.172699   0.558539   0.812204   0.243244
    3             0.000000   0.012649   0.000000   0.034464
    4             0.173262   0.041371   0.068935   0.011111
    5             0.173262   0.041371   0.068935   0.011111

     ATOMIC MULLIKEN POPULATION IN EACH MOLECULAR ORBITAL
         BETA ORBITALS

                      1          2          3          4          5

                  1.000000   1.000000   1.000000   1.000000   1.000000

    1            -0.000243   1.001139   0.129244   0.496193   0.427475
    2             1.000455  -0.000147   0.774422   0.129395   0.183162
    3            -0.000213  -0.000096   0.088971   0.002117   0.000000
    4             0.000001  -0.000448   0.003682   0.186147   0.194682
    5             0.000001  -0.000448   0.003682   0.186147   0.194682

                      6          7          8

                  1.000000   1.000000   1.000000

    1             0.079437   0.292208   0.043027
    2             0.557854   0.605486   0.801111
    3             0.362404   0.009572   0.000000
    4             0.000153   0.046367   0.077931
    5             0.000153   0.046367   0.077931

     ATOMIC SPIN POPULATION (ALPHA MINUS BETA)
       ATOM         MULL.POP.                    LOW.POP.
    1 C             1.113015                     1.050786
    2 O             0.142743                     0.142783
    3 H            -0.112871                    -0.090388
    4 H            -0.071444                    -0.051590
    5 H            -0.071444                    -0.051590


          ********* ALL ELECTRONS ********

               ----- POPULATIONS IN EACH AO -----
                             MULLIKEN      LOWDIN
              1  C  1  S      1.99330     1.98583
              2  C  1  S      1.21412     1.10833
              3  C  1  X      0.81308     0.85662
              4  C  1  Y      1.02827     1.03825
              5  C  1  Z      1.00120     1.02584
              6  O  2  S      1.99836     1.99710
              7  O  2  S      1.89520     1.79379
              8  O  2  X      1.21547     1.23989
              9  O  2  Y      1.16801     1.18363
             10  O  2  Z      1.96918     1.97007
             11  H  3  S      0.81264     0.84560
             12  H  4  S      0.94558     0.97753
             13  H  5  S      0.94558     0.97753

          ----- MULLIKEN ATOMIC OVERLAP POPULATIONS -----
          (OFF-DIAGONAL ELEMENTS NEED TO BE MULTIPLIED BY 2)

             1           2           3           4           5

    1    5.1201339
    2    0.2180068   7.8537750
    3   -0.0320754   0.2049497   0.6379480
    4    0.3719545  -0.0152567   0.0009082   0.6139569
    5    0.3719545  -0.0152567   0.0009082  -0.0259786   0.6139569

          TOTAL MULLIKEN AND LOWDIN ATOMIC POPULATIONS
       ATOM         MULL.POP.    CHARGE          LOW.POP.     CHARGE
    1 C             6.049974   -0.049974         6.014861   -0.014861
    2 O             8.246218   -0.246218         8.184483   -0.184483
    3 H             0.812639    0.187361         0.845604    0.154396
    4 H             0.945584    0.054416         0.977526    0.022474
    5 H             0.945584    0.054416         0.977526    0.022474

          -------------------------------
          BOND ORDER AND VALENCE ANALYSIS     BOND ORDER THRESHOLD=0.050
          -------------------------------

                   BOND                       BOND                       BOND
  ATOM PAIR DIST  ORDER      ATOM PAIR DIST  ORDER      ATOM PAIR DIST  ORDER
    1   2  1.423  1.074        1   3  1.484  0.087        1   4  1.087  0.961
    1   5  1.087  0.961        2   3  1.060  0.865

                       TOTAL       BONDED        FREE
      ATOM            VALENCE     VALENCE     VALENCE
    1 C                 3.902       3.083       0.818
    2 O                 2.035       1.986       0.049
    3 H                 0.965       0.952       0.013
    4 H                 0.997       0.992       0.005
    5 H                 0.997       0.992       0.005

          -----------------------------------------
          ATOMIC SPIN DENSITY AT THE NUCLEUS (A.U.)
          -----------------------------------------
                            SPIN DENS    ALPHA DENS     BETA DENS
    1  C            6.0     0.3078786      38.85059      38.54272
    2  O            8.0    -0.0421489      96.86183      96.90398
    3  H            1.0    -0.0405175       0.14629       0.18680
    4  H            1.0    -0.0238958       0.17169       0.19559
    5  H            1.0    -0.0238958       0.17169       0.19559

          ---------------------
          ELECTROSTATIC MOMENTS
          ---------------------

 POINT   1           X           Y           Z (BOHR)    CHARGE
                 0.000000    0.000000    0.000000       -0.00 (A.U.)
         DX          DY          DZ         /D/  (DEBYE)
     1.009498    0.971877   -0.000000    1.401297
 ...... END OF PROPERTY EVALUATION ......
 STEP CPU TIME =     0.00 TOTAL CPU TIME =        0.0 (    0.0 MIN)
 TOTAL WALL CLOCK TIME=        0.1 SECONDS, CPU UTILIZATION IS  80.00%

 BEGINNING ONE ELECTRON GRADIENT...
 ..... END OF 1-ELECTRON GRADIENT ......
 STEP CPU TIME =     0.00 TOTAL CPU TIME =        0.0 (    0.0 MIN)
 TOTAL WALL CLOCK TIME=        0.1 SECONDS, CPU UTILIZATION IS  80.00%

          ----------------------
          GRADIENT OF THE ENERGY
          ----------------------
 THE COARSE/FINE SCHWARZ SCREENINGS SKIPPED            0/           0 BLOCKS.
 THE NUMBER OF GRADIENT INTEGRAL BLOCKS COMPUTED WAS       260
 ...... END OF 2-ELECTRON GRADIENT ......
 STEP CPU TIME =     0.01 TOTAL CPU TIME =        0.0 (    0.0 MIN)
 TOTAL WALL CLOCK TIME=        0.1 SECONDS, CPU UTILIZATION IS 100.00%

          NSERCH=  0     ENERGY=    -112.8595065

                                 -----------------------
                                 GRADIENT (HARTREE/BOHR)
                                 -----------------------
        ATOM     ZNUC       DE/DX         DE/DY         DE/DZ
 --------------------------------------------------------------
    1  C            6.0    -0.0379836     0.0523301     0.0000000
    2  O            8.0    -0.0450831    -0.0711565     0.0000000
    3  H            1.0     0.0860797     0.0152827     0.0000000
    4  H            1.0    -0.0015065     0.0017719    -0.0010147
    5  H            1.0    -0.0015065     0.0017719     0.0010147


                     --------------------
                     INTERNAL COORDINATES
                     --------------------

                 - - ATOMS - -         COORDINATE        GRADIENT
 NO.   TYPE    I  J  K  L  M  N         (ANG,DEG)     (H/B,H/RAD)
 ----------------------------------------------------------------
   1 STRETCH   2  1                     1.4230000       0.0493789
   2 STRETCH   3  1                     1.4840000      -0.0570827
   3 BEND      3  1  2                 42.7000000       0.1856992
   4 STRETCH   5  1                     1.0870000      -0.0019501
   5 BEND      5  1  2                117.5000000      -0.0011442
   6 TORSION   5  1  2  3            -105.4000000       0.0027786
   7 STRETCH   4  1                     1.0870000      -0.0019501
   8 BEND      4  1  2                117.5000000      -0.0011442
   9 TORSION   4  1  2  3             105.4000000      -0.0027786

 NOTE: CARTESIAN GRADIENTS ARE ALWAYS TAKEN TO TEST CONVERGENCE,
       SO THE FOLLOWING GRADIENTS ARE CARTESIAN.

          MAXIMUM GRADIENT = 0.0860797    RMS GRADIENT = 0.0355275

 NSERCH:   0  E=     -112.8595065322  GRAD. MAX=  0.0860797  R.M.S.=  0.0355275

          FORCE CONSTANT MATRIX NOT UPDATED --- TAKING FIRST STEP
          THE FIRST FEW LOCAL MODES AND EIGENVALUES ARE

  MODE           1           2           3           4           5
          0.000223    0.012339    0.058450    0.192282    0.390290
  MODE
   1      0.000000    0.044999    0.021372   -0.000000    0.443626
   2     -0.000000   -0.951933    0.047043    0.000000    0.019327
   3      0.000000    0.298916   -0.016279    0.000000   -0.020386
   4      0.005572   -0.003366    0.036366    0.030220   -0.141799
   5     -0.064017   -0.012255   -0.192145   -0.703538   -0.593890
   6      0.704181   -0.032590   -0.678447   -0.064198    0.168498
   7     -0.005572   -0.003366    0.036366   -0.030220   -0.141799
   8      0.064017   -0.012255   -0.192145    0.703538   -0.593890
   9      0.704181    0.032590    0.678447   -0.064198   -0.168498

  MODE           6           7           8           9
          0.473468    0.482823    0.530008    2.119357
  MODE
   1      0.000187    0.000000    0.893793    0.042988
   2      0.006789    0.000000    0.022725    0.301121
   3      0.000987   -0.000000   -0.050358    0.952592
   4     -0.688255   -0.706439    0.069679    0.003039
   5      0.142630   -0.030601    0.299782    0.003553
   6     -0.077059    0.002808   -0.065697   -0.001155
   7     -0.688255    0.706439    0.069679    0.003039
   8      0.142630    0.030601    0.299782    0.003553
   9      0.077059    0.002808    0.065697    0.001155
 LOCAL CURVATURE   2 OF THE APPROXIMATE HESSIAN HAS EIGENVALUE=    0.012339
 *** THIS MODE HAS AN INCORRECT CURVATURE ***
 THE COMPONENTS OF THIS MODE FOLLOWS:
        0.044999      -0.951933       0.298916      -0.003366      -0.012255
       -0.032590      -0.003366      -0.012255       0.032590
          HESSIAN MODE FOLLOWING SWITCHED ON, FOLLOWING MODE   2
          FOLLOWING MODE  2 WITH EIGENVALUE    0.01234 AND COMPONENTS
              0.04500 -0.95193  0.29892 -0.00337 -0.01226 -0.03259
             -0.00337 -0.01226  0.03259
          TRIM/QA LAMBDA FOR     TS MODE  =   0.60941788
          TRIM/QA LAMBDA FOR NON-TS MODES =  -0.60941788
          TRIM/QA STEP HAS LENGTH         =   0.200000
          RADIUS OF STEP TAKEN=   0.20000  CURRENT TRUST RADIUS=   0.20000
          TRANSFORMING DISPLACEMENT FROM INTERNALS TO CARTESIANS
          THE ROOT MEAN SQUARE ERROR IN ITERATION   1 IS   0.00021875
          THE ROOT MEAN SQUARE ERROR IN ITERATION   2 IS   0.00000006
          THE ROOT MEAN SQUARE ERROR IN ITERATION   3 IS   0.00000000

 BEGINNING GEOMETRY SEARCH POINT NSERCH=   1 ...

 COORDINATES OF SYMMETRY UNIQUE ATOMS (ANGS)
   ATOM   CHARGE       X              Y              Z
 ------------------------------------------------------------
 C           6.0   0.7258009662   0.0354074441   0.0000000000
 O           8.0  -0.6793321780  -0.0580364165   0.0000000000
 H           1.0  -0.3471255216   0.9030942366   0.0000000000
 H           1.0   1.2433146785  -0.2018024058  -0.9269863668
 COORDINATES OF ALL ATOMS ARE (ANGS)
   ATOM   CHARGE       X              Y              Z
 ------------------------------------------------------------
 C           6.0   0.7258009662   0.0354074441   0.0000000000
 O           8.0  -0.6793321780  -0.0580364165   0.0000000000
 H           1.0  -0.3471255216   0.9030942366   0.0000000000
 H           1.0   1.2433146785  -0.2018024058   0.9269863668
 H           1.0   1.2433146785  -0.2018024058  -0.9269863668


                     --------------------
                     INTERNAL COORDINATES
                     --------------------

                 - - ATOMS - -         COORDINATE      COORDINATE
 NO.   TYPE    I  J  K  L  M  N        (BOHR,RAD)       (ANG,DEG)
 ----------------------------------------------------------------
   1 STRETCH   2  1                     2.6611817       1.4082368
   2 STRETCH   3  1                     2.6075833       1.3798738
   3 BEND      3  1  2                  0.7464336      42.7674973
   4 STRETCH   5  1                     2.0557168       1.0878385
   5 BEND      5  1  2                  2.0490269     117.4005917
   6 TORSION   5  1  2  3              -1.8552423    -106.2975519
   7 STRETCH   4  1                     2.0557168       1.0878385
   8 BEND      4  1  2                  2.0490269     117.4005917
   9 TORSION   4  1  2  3               1.8552423     106.2975519

 THE CURRENT FULLY SUBSTITUTED Z-MATRIX IS
 C   
 O      1   1.4082368
 H      1   1.3798738  2    42.7674973
 H      1   1.0878385  2   117.4005917  3  -106.2975519  0
 H      1   1.0878385  2   117.4005917  3   106.2975519  0

          INTERNUCLEAR DISTANCES (ANGS.)
          ------------------------------

                1 C          2 O          3 H          4 H          5 H     

   1 C       0.0000000    1.4082368 *  1.3798738 *  1.0878385 *  1.0878385 *
   2 O       1.4082368 *  0.0000000    1.0169235 *  2.1392857 *  2.1392857 *
   3 H       1.3798738 *  1.0169235 *  0.0000000    2.1469980 *  2.1469980 *
   4 H       1.0878385 *  2.1392857 *  2.1469980 *  0.0000000    1.8539727 *
   5 H       1.0878385 *  2.1392857 *  2.1469980 *  1.8539727 *  0.0000000  

  * ... LESS THAN  3.000

 ...... END OF ONE-ELECTRON INTEGRALS ......
 STEP CPU TIME =     0.00 TOTAL CPU TIME =        0.0 (    0.0 MIN)
 TOTAL WALL CLOCK TIME=        0.1 SECONDS, CPU UTILIZATION IS  83.33%
 TOTAL NUMBER OF NONZERO TWO-ELECTRON INTEGRALS =                2257
          1 INTEGRAL RECORDS WERE STORED ON DISK FILE  8.
  ...... END OF TWO-ELECTRON INTEGRALS .....
 STEP CPU TIME =     0.00 TOTAL CPU TIME =        0.0 (    0.0 MIN)
 TOTAL WALL CLOCK TIME=        0.1 SECONDS, CPU UTILIZATION IS  83.33%

          ---------------------------
                  UHF SCF CALCULATION
          ---------------------------
     DENSITY MATRIX CONV=  1.00E-05

 ITER EX      TOTAL ENERGY        E CHANGE  DENSITY CHANGE    ORB. GRAD 
          ---------------START SECOND ORDER SCF---------------
   1  0     -112.8439050562  -112.8439050562   0.029953034   0.015034346
   2  1     -112.8448941696    -0.0009891134   0.020678787   0.006802953
   3  2     -112.8451383534    -0.0002441838   0.006530452   0.001881446
   4  3     -112.8451622548    -0.0000239013   0.008713041   0.001426814
   5  4     -112.8451774380    -0.0000151832   0.001347275   0.000289990
   6  5     -112.8451782436    -0.0000008056   0.000601730   0.000123903
   7  6     -112.8451784128    -0.0000001692   0.000158581   0.000059648
   8  7     -112.8451784370    -0.0000000243   0.000086588   0.000025902
   9  8     -112.8451784437    -0.0000000067   0.000020921   0.000009784
  10  9     -112.8451784443    -0.0000000006   0.000009276   0.000003254
  11 10     -112.8451784444    -0.0000000001   0.000003098   0.000000969

          -----------------
          DENSITY CONVERGED
          -----------------
     TIME TO FORM FOCK OPERATORS=       0.0 SECONDS (       0.0 SEC/ITER)
     TIME TO SOLVE SCF EQUATIONS=       0.0 SECONDS (       0.0 SEC/ITER)

 FINAL UHF ENERGY IS     -112.8451784444 AFTER  11 ITERATIONS

          --------------------
          SPIN SZ   =    0.500
          S-SQUARED =    0.774
          --------------------
 ...... END OF UHF CALCULATION ......
 STEP CPU TIME =     0.00 TOTAL CPU TIME =        0.0 (    0.0 MIN)
 TOTAL WALL CLOCK TIME=        0.1 SECONDS, CPU UTILIZATION IS  83.33%
 ..... END OF 1-ELECTRON GRADIENT ......
 STEP CPU TIME =     0.00 TOTAL CPU TIME =        0.0 (    0.0 MIN)
 TOTAL WALL CLOCK TIME=        0.1 SECONDS, CPU UTILIZATION IS  83.33%
 ...... END OF 2-ELECTRON GRADIENT ......
 STEP CPU TIME =     0.00 TOTAL CPU TIME =        0.0 (    0.0 MIN)
 TOTAL WALL CLOCK TIME=        0.1 SECONDS, CPU UTILIZATION IS  83.33%

          NSERCH=  1     ENERGY=    -112.8451784

                                 -----------------------
                                 GRADIENT (HARTREE/BOHR)
                                 -----------------------
        ATOM     ZNUC       DE/DX         DE/DY         DE/DZ
 --------------------------------------------------------------
    1  C            6.0    -0.0632490     0.0650266     0.0000000
    2  O            8.0    -0.0201787    -0.0176973     0.0000000
    3  H            1.0     0.0867335    -0.0487621     0.0000000
    4  H            1.0    -0.0016529     0.0007164    -0.0008354
    5  H            1.0    -0.0016529     0.0007164     0.0008354


                     --------------------
                     INTERNAL COORDINATES
                     --------------------

                 - - ATOMS - -         COORDINATE        GRADIENT
 NO.   TYPE    I  J  K  L  M  N         (ANG,DEG)     (H/B,H/RAD)
 ----------------------------------------------------------------
   1 STRETCH   2  1                     1.4082368       0.0213086
   2 STRETCH   3  1                     1.3798738      -0.0981024
   3 BEND      3  1  2                 42.7674973       0.0433489
   4 STRETCH   5  1                     1.0878385      -0.0016544
   5 BEND      5  1  2                117.4005917      -0.0019457
   6 TORSION   5  1  2  3            -106.2975519       0.0010166
   7 STRETCH   4  1                     1.0878385      -0.0016544
   8 BEND      4  1  2                117.4005917      -0.0019457
   9 TORSION   4  1  2  3             106.2975519      -0.0010166

 NOTE: CARTESIAN GRADIENTS ARE ALWAYS TAKEN TO TEST CONVERGENCE,
       SO THE FOLLOWING GRADIENTS ARE CARTESIAN.

          MAXIMUM GRADIENT = 0.0867334    RMS GRADIENT = 0.0354567

 NSERCH:   1  E=     -112.8451784444  GRAD. MAX=  0.0867334  R.M.S.=  0.0354567

          HESSIAN UPDATED USING THE POWELL FORMULA
 LOCAL CURVATURE   1 OF THE APPROXIMATE HESSIAN HAS EIGENVALUE=   -0.063630
 *** THIS MODE HAS AN INCORRECT CURVATURE ***
 THE COMPONENTS OF THIS MODE FOLLOWS:
        0.069885      -0.938292       0.338544      -0.004948      -0.005309
       -0.001824      -0.004948      -0.005309       0.001824
 LOCAL CURVATURE   2 OF THE APPROXIMATE HESSIAN HAS EIGENVALUE=    0.000223
 *** THIS MODE HAS AN INCORRECT CURVATURE ***
 THE COMPONENTS OF THIS MODE FOLLOWS:
        0.000000      -0.000000       0.000000       0.005572      -0.064017
        0.704181      -0.005572       0.064017       0.704181
             ACTUAL ENERGY CHANGE WAS   0.0143280878
          PREDICTED ENERGY CHANGE WAS   0.0142197558 RATIO=  1.008
          OVERLAP OF CURRENT MODE   1 WITH PREVIOUS MODE IS     0.997815
 WARNING!! MODE SWITCHING WAS FOLLOWING MODE   2, NOW FOLLOWING MODE   1
          FOLLOWING MODE  1 WITH EIGENVALUE   -0.06363 AND COMPONENTS
              0.06989 -0.93829  0.33854 -0.00495 -0.00531 -0.00182
             -0.00495 -0.00531  0.00182
          TS SEARCH, CORRECT HESSIAN, TRYING PURE NR STEP
               NR STEP HAS LENGTH         =   1.701476
          TRIM/QA LAMBDA FOR     TS MODE  =   0.29784804
          TRIM/QA LAMBDA FOR NON-TS MODES =  -0.29784804
          TRIM/QA STEP HAS LENGTH         =   0.300000
          RADIUS OF STEP TAKEN=   0.30000  CURRENT TRUST RADIUS=   0.30000
          TRANSFORMING DISPLACEMENT FROM INTERNALS TO CARTESIANS
          THE ROOT MEAN SQUARE ERROR IN ITERATION   1 IS   0.01146575
          THE ROOT MEAN SQUARE ERROR IN ITERATION   2 IS   0.00011921
          THE ROOT MEAN SQUARE ERROR IN ITERATION   3 IS   0.00000000

 BEGINNING GEOMETRY SEARCH POINT NSERCH=   2 ...

 COORDINATES OF SYMMETRY UNIQUE ATOMS (ANGS)
   ATOM   CHARGE       X              Y              Z
 ------------------------------------------------------------
 C           6.0   0.7199586679   0.0433406164   0.0000000000
 O           8.0  -0.6862261372  -0.0650744205   0.0000000000
 H           1.0  -0.1639844868   0.8988688604   0.0000000000
 H           1.0   1.2412318387  -0.1910700797  -0.9257581670
 COORDINATES OF ALL ATOMS ARE (ANGS)
   ATOM   CHARGE       X              Y              Z
 ------------------------------------------------------------
 C           6.0   0.7199586679   0.0433406164   0.0000000000
 O           8.0  -0.6862261372  -0.0650744205   0.0000000000
 H           1.0  -0.1639844868   0.8988688604   0.0000000000
 H           1.0   1.2412318387  -0.1910700797   0.9257581670
 H           1.0   1.2412318387  -0.1910700797  -0.9257581670


                     --------------------
                     INTERNAL COORDINATES
                     --------------------

                 - - ATOMS - -         COORDINATE      COORDINATE
 NO.   TYPE    I  J  K  L  M  N        (BOHR,RAD)       (ANG,DEG)
 ----------------------------------------------------------------
   1 STRETCH   2  1                     2.6651901       1.4103579
   2 STRETCH   3  1                     2.3246580       1.2301561
   3 BEND      3  1  2                  0.8460107      48.4728446
   4 STRETCH   5  1                     2.0559856       1.0879808
   5 BEND      5  1  2                  2.0500759     117.4606941
   6 TORSION   5  1  2  3              -1.8583442    -106.4752804
   7 STRETCH   4  1                     2.0559856       1.0879808
   8 BEND      4  1  2                  2.0500759     117.4606941
   9 TORSION   4  1  2  3               1.8583442     106.4752804

 THE CURRENT FULLY SUBSTITUTED Z-MATRIX IS
 C   
 O      1   1.4103579
 H      1   1.2301561  2    48.4728446
 H      1   1.0879808  2   117.4606941  3  -106.4752804  0
 H      1   1.0879808  2   117.4606941  3   106.4752804  0

          INTERNUCLEAR DISTANCES (ANGS.)
          ------------------------------

                1 C          2 O          3 H          4 H          5 H     

   1 C       0.0000000    1.4103579 *  1.2301561 *  1.0879808 *  1.0879808 *
   2 O       1.4103579 *  0.0000000    1.0963225 *  2.1419611 *  2.1419611 *
   3 H       1.2301561 *  1.0963225 *  0.0000000    2.0049010 *  2.0049010 *
   4 H       1.0879808 *  2.1419611 *  2.0049010 *  0.0000000    1.8515163 *
   5 H       1.0879808 *  2.1419611 *  2.0049010 *  1.8515163 *  0.0000000  

  * ... LESS THAN  3.000

 ...... END OF ONE-ELECTRON INTEGRALS ......
 STEP CPU TIME =     0.00 TOTAL CPU TIME =        0.0 (    0.0 MIN)
 TOTAL WALL CLOCK TIME=        0.1 SECONDS, CPU UTILIZATION IS  83.33%
 TOTAL NUMBER OF NONZERO TWO-ELECTRON INTEGRALS =                2257
          1 INTEGRAL RECORDS WERE STORED ON DISK FILE  8.
  ...... END OF TWO-ELECTRON INTEGRALS .....
 STEP CPU TIME =     0.00 TOTAL CPU TIME =        0.0 (    0.0 MIN)
 TOTAL WALL CLOCK TIME=        0.1 SECONDS, CPU UTILIZATION IS  83.33%

          ---------------------------
                  UHF SCF CALCULATION
          ---------------------------
     DENSITY MATRIX CONV=  1.00E-05

 ITER EX      TOTAL ENERGY        E CHANGE  DENSITY CHANGE    ORB. GRAD 
          ---------------START SECOND ORDER SCF---------------
   1  0     -112.8003442634  -112.8003442634   0.097005273   0.041912164
   2  1     -112.8123668585    -0.0120225951   0.146701470   0.024135826
   3  2     -112.8198032008    -0.0074363424   0.035006690   0.012743830
   4  3     -112.8205995285    -0.0007963277   0.030896015   0.007725068
   5  4     -112.8209955744    -0.0003960459   0.007370256   0.002128684
   6  5     -112.8210346799    -0.0000391055   0.005419575   0.001511007
   7  6     -112.8210501180    -0.0000154381   0.001311492   0.000580494
   8  7     -112.8210521384    -0.0000020205   0.000863541   0.000296827
   9  8     -112.8210528174    -0.0000006789   0.000396469   0.000130178
  10  9     -112.8210529167    -0.0000000994   0.000134372   0.000040548
  11 10     -112.8210529310    -0.0000000143   0.000028515   0.000009599
  12 11     -112.8210529322    -0.0000000012   0.000017478   0.000004820
  13 12     -112.8210529325    -0.0000000003   0.000009572   0.000003099
  14 13     -112.8210529325    -0.0000000001   0.000003460   0.000001199

          -----------------
          DENSITY CONVERGED
          -----------------
     TIME TO FORM FOCK OPERATORS=       0.0 SECONDS (       0.0 SEC/ITER)
     TIME TO SOLVE SCF EQUATIONS=       0.0 SECONDS (       0.0 SEC/ITER)

 FINAL UHF ENERGY IS     -112.8210529325 AFTER  14 ITERATIONS

          --------------------
          SPIN SZ   =    0.500
          S-SQUARED =    0.805
          --------------------
 ...... END OF UHF CALCULATION ......
 STEP CPU TIME =     0.01 TOTAL CPU TIME =        0.1 (    0.0 MIN)
 TOTAL WALL CLOCK TIME=        0.1 SECONDS, CPU UTILIZATION IS  85.71%
 ..... END OF 1-ELECTRON GRADIENT ......
 STEP CPU TIME =     0.00 TOTAL CPU TIME =        0.1 (    0.0 MIN)
 TOTAL WALL CLOCK TIME=        0.1 SECONDS, CPU UTILIZATION IS  85.71%
 ...... END OF 2-ELECTRON GRADIENT ......
 STEP CPU TIME =     0.00 TOTAL CPU TIME =        0.1 (    0.0 MIN)
 TOTAL WALL CLOCK TIME=        0.1 SECONDS, CPU UTILIZATION IS  85.71%

          NSERCH=  2     ENERGY=    -112.8210529

                                 -----------------------
                                 GRADIENT (HARTREE/BOHR)
                                 -----------------------
        ATOM     ZNUC       DE/DX         DE/DY         DE/DZ
 --------------------------------------------------------------
    1  C            6.0    -0.0417769     0.0427140     0.0000000
    2  O            8.0     0.0169119     0.0307055     0.0000000
    3  H            1.0     0.0254834    -0.0722751     0.0000000
    4  H            1.0    -0.0003092    -0.0005722    -0.0001507
    5  H            1.0    -0.0003092    -0.0005722     0.0001507


                     --------------------
                     INTERNAL COORDINATES
                     --------------------

                 - - ATOMS - -         COORDINATE        GRADIENT
 NO.   TYPE    I  J  K  L  M  N         (ANG,DEG)     (H/B,H/RAD)
 ----------------------------------------------------------------
   1 STRETCH   2  1                     1.4103579      -0.0192222
   2 STRETCH   3  1                     1.2301561      -0.0685761
   3 BEND      3  1  2                 48.4728446      -0.0795298
   4 STRETCH   5  1                     1.0879808      -0.0001531
   5 BEND      5  1  2                117.4606941      -0.0006526
   6 TORSION   5  1  2  3            -106.4752804      -0.0010344
   7 STRETCH   4  1                     1.0879808      -0.0001531
   8 BEND      4  1  2                117.4606941      -0.0006526
   9 TORSION   4  1  2  3             106.4752804       0.0010344

 NOTE: CARTESIAN GRADIENTS ARE ALWAYS TAKEN TO TEST CONVERGENCE,
       SO THE FOLLOWING GRADIENTS ARE CARTESIAN.

          MAXIMUM GRADIENT = 0.0722751    RMS GRADIENT = 0.0266741

 NSERCH:   2  E=     -112.8210529325  GRAD. MAX=  0.0722751  R.M.S.=  0.0266741

          HESSIAN UPDATED USING THE POWELL FORMULA
             ACTUAL ENERGY CHANGE WAS   0.0241255119
          PREDICTED ENERGY CHANGE WAS   0.0293791083 RATIO=  0.821
          OVERLAP OF CURRENT MODE   1 WITH PREVIOUS MODE IS     0.987845
          FOLLOWING MODE  1 WITH EIGENVALUE   -0.29884 AND COMPONENTS
             -0.15823  0.87815 -0.45089  0.00865  0.01093 -0.00753
              0.00865  0.01093  0.00753
          TS SEARCH, CORRECT HESSIAN, TRYING PURE NR STEP
               NR STEP HAS LENGTH         =   0.090828
          RADIUS OF STEP TAKEN=   0.09083  CURRENT TRUST RADIUS=   0.30000
          TRANSFORMING DISPLACEMENT FROM INTERNALS TO CARTESIANS
          THE ROOT MEAN SQUARE ERROR IN ITERATION   1 IS   0.00497176
          THE ROOT MEAN SQUARE ERROR IN ITERATION   2 IS   0.00000207
          THE ROOT MEAN SQUARE ERROR IN ITERATION   3 IS   0.00000000

 BEGINNING GEOMETRY SEARCH POINT NSERCH=   3 ...

 COORDINATES OF SYMMETRY UNIQUE ATOMS (ANGS)
   ATOM   CHARGE       X              Y              Z
 ------------------------------------------------------------
 C           6.0   0.7298473975   0.0452501770   0.0000000000
 O           8.0  -0.6996980472  -0.0703262871   0.0000000000
 H           1.0  -0.0833289700   0.9415582687   0.0000000000
 H           1.0   1.2489368399  -0.1821077333  -0.9276495916
 COORDINATES OF ALL ATOMS ARE (ANGS)
   ATOM   CHARGE       X              Y              Z
 ------------------------------------------------------------
 C           6.0   0.7298473975   0.0452501770   0.0000000000
 O           8.0  -0.6996980472  -0.0703262871   0.0000000000
 H           1.0  -0.0833289700   0.9415582687   0.0000000000
 H           1.0   1.2489368399  -0.1821077333   0.9276495916
 H           1.0   1.2489368399  -0.1821077333  -0.9276495916


                     --------------------
                     INTERNAL COORDINATES
                     --------------------

                 - - ATOMS - -         COORDINATE      COORDINATE
 NO.   TYPE    I  J  K  L  M  N        (BOHR,RAD)       (ANG,DEG)
 ----------------------------------------------------------------
   1 STRETCH   2  1                     2.7102638       1.4342099
   2 STRETCH   3  1                     2.2869776       1.2102165
   3 BEND      3  1  2                  0.9146625      52.4063023
   4 STRETCH   5  1                     2.0542280       1.0870507
   5 BEND      5  1  2                  2.0477932     117.3299071
   6 TORSION   5  1  2  3              -1.8524880    -106.1397448
   7 STRETCH   4  1                     2.0542280       1.0870507
   8 BEND      4  1  2                  2.0477932     117.3299071
   9 TORSION   4  1  2  3               1.8524880     106.1397448

 THE CURRENT FULLY SUBSTITUTED Z-MATRIX IS
 C   
 O      1   1.4342099
 H      1   1.2102165  2    52.4063023
 H      1   1.0870507  2   117.3299071  3  -106.1397448  0
 H      1   1.0870507  2   117.3299071  3   106.1397448  0

          INTERNUCLEAR DISTANCES (ANGS.)
          ------------------------------

                1 C          2 O          3 H          4 H          5 H     

   1 C       0.0000000    1.4342099 *  1.2102165 *  1.0870507 *  1.0870507 *
   2 O       1.4342099 *  0.0000000    1.1848296 *  2.1610661 *  2.1610661 *
   3 H       1.2102165 *  1.1848296 *  0.0000000    1.9743584 *  1.9743584 *
   4 H       1.0870507 *  2.1610661 *  1.9743584 *  0.0000000    1.8552992 *
   5 H       1.0870507 *  2.1610661 *  1.9743584 *  1.8552992 *  0.0000000  

  * ... LESS THAN  3.000

 ...... END OF ONE-ELECTRON INTEGRALS ......
 STEP CPU TIME =     0.00 TOTAL CPU TIME =        0.1 (    0.0 MIN)
 TOTAL WALL CLOCK TIME=        0.1 SECONDS, CPU UTILIZATION IS  85.71%
 TOTAL NUMBER OF NONZERO TWO-ELECTRON INTEGRALS =                2250
          1 INTEGRAL RECORDS WERE STORED ON DISK FILE  8.
  ...... END OF TWO-ELECTRON INTEGRALS .....
 STEP CPU TIME =     0.00 TOTAL CPU TIME =        0.1 (    0.0 MIN)
 TOTAL WALL CLOCK TIME=        0.1 SECONDS, CPU UTILIZATION IS  85.71%

          ---------------------------
                  UHF SCF CALCULATION
          ---------------------------
     DENSITY MATRIX CONV=  1.00E-05

 ITER EX      TOTAL ENERGY        E CHANGE  DENSITY CHANGE    ORB. GRAD 
          ---------------START SECOND ORDER SCF---------------
   1  0     -112.8204741677  -112.8204741677   0.054512394   0.021043411
   2  1     -112.8247752953    -0.0043011275   0.102418502   0.015465368
   3  2     -112.8274883953    -0.0027131000   0.008309788   0.004866946
   4  3     -112.8276414989    -0.0001531037   0.011343123   0.002774631
   5  4     -112.8277289746    -0.0000874756   0.004467428   0.001152458
   6  5     -112.8277427763    -0.0000138017   0.004169637   0.000674362
   7  6     -112.8277501414    -0.0000073652   0.000979007   0.000305250
   8  7     -112.8277509314    -0.0000007900   0.000753033   0.000146933
   9  8     -112.8277511549    -0.0000002235   0.000240786   0.000051302
  10  9     -112.8277511885    -0.0000000336   0.000079559   0.000020828
  11 10     -112.8277511943    -0.0000000058   0.000035789   0.000010637
  12 11     -112.8277511951    -0.0000000008   0.000020934   0.000004771
  13 12     -112.8277511954    -0.0000000002   0.000007554   0.000001919
  14 13     -112.8277511954    -0.0000000000   0.000002547   0.000000719

          -----------------
          DENSITY CONVERGED
          -----------------
     TIME TO FORM FOCK OPERATORS=       0.0 SECONDS (       0.0 SEC/ITER)
     TIME TO SOLVE SCF EQUATIONS=       0.0 SECONDS (       0.0 SEC/ITER)

 FINAL UHF ENERGY IS     -112.8277511954 AFTER  14 ITERATIONS

          --------------------
          SPIN SZ   =    0.500
          S-SQUARED =    0.810
          --------------------
 ...... END OF UHF CALCULATION ......
 STEP CPU TIME =     0.00 TOTAL CPU TIME =        0.1 (    0.0 MIN)
 TOTAL WALL CLOCK TIME=        0.1 SECONDS, CPU UTILIZATION IS  85.71%
 ..... END OF 1-ELECTRON GRADIENT ......
 STEP CPU TIME =     0.00 TOTAL CPU TIME =        0.1 (    0.0 MIN)
 TOTAL WALL CLOCK TIME=        0.1 SECONDS, CPU UTILIZATION IS  85.71%
 ...... END OF 2-ELECTRON GRADIENT ......
 STEP CPU TIME =     0.01 TOTAL CPU TIME =        0.1 (    0.0 MIN)
 TOTAL WALL CLOCK TIME=        0.1 SECONDS, CPU UTILIZATION IS  87.50%

          NSERCH=  3     ENERGY=    -112.8277512

                                 -----------------------
                                 GRADIENT (HARTREE/BOHR)
                                 -----------------------
        ATOM     ZNUC       DE/DX         DE/DY         DE/DZ
 --------------------------------------------------------------
    1  C            6.0     0.0189331     0.0045136     0.0000000
    2  O            8.0     0.0135075     0.0546953     0.0000000
    3  H            1.0    -0.0322906    -0.0588881     0.0000000
    4  H            1.0    -0.0000750    -0.0001604     0.0000410
    5  H            1.0    -0.0000750    -0.0001604    -0.0000410


                     --------------------
                     INTERNAL COORDINATES
                     --------------------

                 - - ATOMS - -         COORDINATE        GRADIENT
 NO.   TYPE    I  J  K  L  M  N         (ANG,DEG)     (H/B,H/RAD)
 ----------------------------------------------------------------
   1 STRETCH   2  1                     1.4342099      -0.0178712
   2 STRETCH   3  1                     1.2102165      -0.0219167
   3 BEND      3  1  2                 52.4063023      -0.1451853
   4 STRETCH   5  1                     1.0870507       0.0000327
   5 BEND      5  1  2                117.3299071      -0.0002375
   6 TORSION   5  1  2  3            -106.1397448      -0.0002489
   7 STRETCH   4  1                     1.0870507       0.0000327
   8 BEND      4  1  2                117.3299071      -0.0002375
   9 TORSION   4  1  2  3             106.1397448       0.0002489

 NOTE: CARTESIAN GRADIENTS ARE ALWAYS TAKEN TO TEST CONVERGENCE,
       SO THE FOLLOWING GRADIENTS ARE CARTESIAN.

          MAXIMUM GRADIENT = 0.0588881    RMS GRADIENT = 0.0231854

 NSERCH:   3  E=     -112.8277511954  GRAD. MAX=  0.0588881  R.M.S.=  0.0231854

          HESSIAN UPDATED USING THE POWELL FORMULA
             ACTUAL ENERGY CHANGE WAS  -0.0066982629
          PREDICTED ENERGY CHANGE WAS  -0.0018754504 RATIO=  3.572
          OVERLAP OF CURRENT MODE   1 WITH PREVIOUS MODE IS     0.885373
          FOLLOWING MODE  1 WITH EIGENVALUE   -0.92457 AND COMPONENTS
             -0.19257  0.55918 -0.80623  0.00639  0.00767 -0.00324
              0.00639  0.00767  0.00324
          TS SEARCH, CORRECT HESSIAN, TRYING PURE NR STEP
               NR STEP HAS LENGTH         =   0.153039
          TRIM/QA LAMBDA FOR     TS MODE  =   1.18809753
          TRIM/QA LAMBDA FOR NON-TS MODES =  -1.18809753
          TRIM/QA STEP HAS LENGTH         =   0.064225
          RADIUS OF STEP TAKEN=   0.06423  CURRENT TRUST RADIUS=   0.06423
          TRANSFORMING DISPLACEMENT FROM INTERNALS TO CARTESIANS
          THE ROOT MEAN SQUARE ERROR IN ITERATION   1 IS   0.00046999
          THE ROOT MEAN SQUARE ERROR IN ITERATION   2 IS   0.00000024
          THE ROOT MEAN SQUARE ERROR IN ITERATION   3 IS   0.00000000

 BEGINNING GEOMETRY SEARCH POINT NSERCH=   4 ...

 COORDINATES OF SYMMETRY UNIQUE ATOMS (ANGS)
   ATOM   CHARGE       X              Y              Z
 ------------------------------------------------------------
 C           6.0   0.7301022643   0.0432433579   0.0000000000
 O           8.0  -0.6975097589  -0.0689707930   0.0000000000
 H           1.0  -0.1212784893   0.9479956977   0.0000000000
 H           1.0   1.2490294149  -0.1841353566  -0.9279004307
 COORDINATES OF ALL ATOMS ARE (ANGS)
   ATOM   CHARGE       X              Y              Z
 ------------------------------------------------------------
 C           6.0   0.7301022643   0.0432433579   0.0000000000
 O           8.0  -0.6975097589  -0.0689707930   0.0000000000
 H           1.0  -0.1212784893   0.9479956977   0.0000000000
 H           1.0   1.2490294149  -0.1841353566   0.9279004307
 H           1.0   1.2490294149  -0.1841353566  -0.9279004307


                     --------------------
                     INTERNAL COORDINATES
                     --------------------

                 - - ATOMS - -         COORDINATE      COORDINATE
 NO.   TYPE    I  J  K  L  M  N        (BOHR,RAD)       (ANG,DEG)
 ----------------------------------------------------------------
   1 STRETCH   2  1                     2.7061167       1.4320154
   2 STRETCH   3  1                     2.3476953       1.2423470
   3 BEND      3  1  2                  0.8942218      51.2351329
   4 STRETCH   5  1                     2.0544943       1.0871916
   5 BEND      5  1  2                  2.0481760     117.3518393
   6 TORSION   5  1  2  3              -1.8513152    -106.0725503
   7 STRETCH   4  1                     2.0544943       1.0871916
   8 BEND      4  1  2                  2.0481760     117.3518393
   9 TORSION   4  1  2  3               1.8513152     106.0725503

 THE CURRENT FULLY SUBSTITUTED Z-MATRIX IS
 C   
 O      1   1.4320154
 H      1   1.2423470  2    51.2351329
 H      1   1.0871916  2   117.3518393  3  -106.0725503  0
 H      1   1.0871916  2   117.3518393  3   106.0725503  0

          INTERNUCLEAR DISTANCES (ANGS.)
          ------------------------------

                1 C          2 O          3 H          4 H          5 H     

   1 C       0.0000000    1.4320154 *  1.2423470 *  1.0871916 *  1.0871916 *
   2 O       1.4320154 *  0.0000000    1.1688727 *  2.1594622 *  2.1594622 *
   3 H       1.2423470 *  1.1688727 *  0.0000000    2.0051094 *  2.0051094 *
   4 H       1.0871916 *  2.1594622 *  2.0051094 *  0.0000000    1.8558009 *
   5 H       1.0871916 *  2.1594622 *  2.0051094 *  1.8558009 *  0.0000000  

  * ... LESS THAN  3.000

 ...... END OF ONE-ELECTRON INTEGRALS ......
 STEP CPU TIME =     0.00 TOTAL CPU TIME =        0.1 (    0.0 MIN)
 TOTAL WALL CLOCK TIME=        0.1 SECONDS, CPU UTILIZATION IS  87.50%
 TOTAL NUMBER OF NONZERO TWO-ELECTRON INTEGRALS =                2250
          1 INTEGRAL RECORDS WERE STORED ON DISK FILE  8.
  ...... END OF TWO-ELECTRON INTEGRALS .....
 STEP CPU TIME =     0.00 TOTAL CPU TIME =        0.1 (    0.0 MIN)
 TOTAL WALL CLOCK TIME=        0.1 SECONDS, CPU UTILIZATION IS  87.50%

          ---------------------------
                  UHF SCF CALCULATION
          ---------------------------
     DENSITY MATRIX CONV=  1.00E-05

 ITER EX      TOTAL ENERGY        E CHANGE  DENSITY CHANGE    ORB. GRAD 
          ---------------START SECOND ORDER SCF---------------
   1  0     -112.8256218128  -112.8256218128   0.020390470   0.008575603
   2  1     -112.8262279567    -0.0006061439   0.036802915   0.006690922
   3  2     -112.8266318685    -0.0004039118   0.003952488   0.001594549
   4  3     -112.8266548615    -0.0000229930   0.004095723   0.001098337
   5  4     -112.8266658577    -0.0000109962   0.001736957   0.000387502
   6  5     -112.8266676505    -0.0000017927   0.001425678   0.000243728
   7  6     -112.8266684944    -0.0000008440   0.000283231   0.000100095
   8  7     -112.8266685774    -0.0000000830   0.000155620   0.000031700
   9  8     -112.8266685927    -0.0000000153   0.000058248   0.000016812
  10  9     -112.8266685949    -0.0000000023   0.000020262   0.000005753
  11 10     -112.8266685953    -0.0000000004   0.000005156   0.000002327
  12 11     -112.8266685953    -0.0000000000   0.000002243   0.000000768

          -----------------
          DENSITY CONVERGED
          -----------------
     TIME TO FORM FOCK OPERATORS=       0.0 SECONDS (       0.0 SEC/ITER)
     TIME TO SOLVE SCF EQUATIONS=       0.0 SECONDS (       0.0 SEC/ITER)

 FINAL UHF ENERGY IS     -112.8266685953 AFTER  12 ITERATIONS

          --------------------
          SPIN SZ   =    0.500
          S-SQUARED =    0.819
          --------------------
 ...... END OF UHF CALCULATION ......
 STEP CPU TIME =     0.00 TOTAL CPU TIME =        0.1 (    0.0 MIN)
 TOTAL WALL CLOCK TIME=        0.1 SECONDS, CPU UTILIZATION IS  87.50%
 ..... END OF 1-ELECTRON GRADIENT ......
 STEP CPU TIME =     0.00 TOTAL CPU TIME =        0.1 (    0.0 MIN)
 TOTAL WALL CLOCK TIME=        0.1 SECONDS, CPU UTILIZATION IS  87.50%
 ...... END OF 2-ELECTRON GRADIENT ......
 STEP CPU TIME =     0.00 TOTAL CPU TIME =        0.1 (    0.0 MIN)
 TOTAL WALL CLOCK TIME=        0.1 SECONDS, CPU UTILIZATION IS  87.50%

          NSERCH=  4     ENERGY=    -112.8266686

                                 -----------------------
                                 GRADIENT (HARTREE/BOHR)
                                 -----------------------
        ATOM     ZNUC       DE/DX         DE/DY         DE/DZ
 --------------------------------------------------------------
    1  C            6.0     0.0076698     0.0107999     0.0000000
    2  O            8.0     0.0045165     0.0347496     0.0000000
    3  H            1.0    -0.0117055    -0.0454332     0.0000000
    4  H            1.0    -0.0002404    -0.0000581    -0.0000680
    5  H            1.0    -0.0002404    -0.0000581     0.0000680


                     --------------------
                     INTERNAL COORDINATES
                     --------------------

                 - - ATOMS - -         COORDINATE        GRADIENT
 NO.   TYPE    I  J  K  L  M  N         (ANG,DEG)     (H/B,H/RAD)
 ----------------------------------------------------------------
   1 STRETCH   2  1                     1.4320154      -0.0072256
   2 STRETCH   3  1                     1.2423470      -0.0250655
   3 BEND      3  1  2                 51.2351329      -0.0931098
   4 STRETCH   5  1                     1.0871916      -0.0001606
   5 BEND      5  1  2                117.3518393      -0.0003942
   6 TORSION   5  1  2  3            -106.0725503      -0.0001029
   7 STRETCH   4  1                     1.0871916      -0.0001606
   8 BEND      4  1  2                117.3518393      -0.0003942
   9 TORSION   4  1  2  3             106.0725503       0.0001029

 NOTE: CARTESIAN GRADIENTS ARE ALWAYS TAKEN TO TEST CONVERGENCE,
       SO THE FOLLOWING GRADIENTS ARE CARTESIAN.

          MAXIMUM GRADIENT = 0.0454332    RMS GRADIENT = 0.0155021

 NSERCH:   4  E=     -112.8266685953  GRAD. MAX=  0.0454332  R.M.S.=  0.0155021

          HESSIAN UPDATED USING THE POWELL FORMULA
             ACTUAL ENERGY CHANGE WAS   0.0010826001
          PREDICTED ENERGY CHANGE WAS   0.0015233028 RATIO=  0.711
          OVERLAP OF CURRENT MODE   1 WITH PREVIOUS MODE IS     0.989703
          FOLLOWING MODE  1 WITH EIGENVALUE   -0.78400 AND COMPONENTS
             -0.27751  0.63254 -0.72191  0.01168  0.01536 -0.02215
              0.01168  0.01536  0.02215
          TS SEARCH, CORRECT HESSIAN, TRYING PURE NR STEP
               NR STEP HAS LENGTH         =   0.111251
          TRIM/QA LAMBDA FOR     TS MODE  =   0.54239312
          TRIM/QA LAMBDA FOR NON-TS MODES =  -0.54239312
          TRIM/QA STEP HAS LENGTH         =   0.064225
          RADIUS OF STEP TAKEN=   0.06423  CURRENT TRUST RADIUS=   0.06423
          TRANSFORMING DISPLACEMENT FROM INTERNALS TO CARTESIANS
          THE ROOT MEAN SQUARE ERROR IN ITERATION   1 IS   0.00009992
          THE ROOT MEAN SQUARE ERROR IN ITERATION   2 IS   0.00000001
          THE ROOT MEAN SQUARE ERROR IN ITERATION   3 IS   0.00000000

 BEGINNING GEOMETRY SEARCH POINT NSERCH=   5 ...

 COORDINATES OF SYMMETRY UNIQUE ATOMS (ANGS)
   ATOM   CHARGE       X              Y              Z
 ------------------------------------------------------------
 C           6.0   0.7290749470   0.0414100263   0.0000000000
 O           8.0  -0.6953916776  -0.0690312968   0.0000000000
 H           1.0  -0.1420362598   0.9739775468   0.0000000000
 H           1.0   1.2487166057  -0.1857315795  -0.9278923625
 COORDINATES OF ALL ATOMS ARE (ANGS)
   ATOM   CHARGE       X              Y              Z
 ------------------------------------------------------------
 C           6.0   0.7290749470   0.0414100263   0.0000000000
 O           8.0  -0.6953916776  -0.0690312968   0.0000000000
 H           1.0  -0.1420362598   0.9739775468   0.0000000000
 H           1.0   1.2487166057  -0.1857315795   0.9278923625
 H           1.0   1.2487166057  -0.1857315795  -0.9278923625


                     --------------------
                     INTERNAL COORDINATES
                     --------------------

                 - - ATOMS - -         COORDINATE      COORDINATE
 NO.   TYPE    I  J  K  L  M  N        (BOHR,RAD)       (ANG,DEG)
 ----------------------------------------------------------------
   1 STRETCH   2  1                     2.6999301       1.4287416
   2 STRETCH   3  1                     2.4115428       1.2761336
[...]
 TOTAL WALL CLOCK TIME=        0.1 SECONDS, CPU UTILIZATION IS  90.91%
 ..... END OF 1-ELECTRON GRADIENT ......
 STEP CPU TIME =     0.01 TOTAL CPU TIME =        0.1 (    0.0 MIN)
 TOTAL WALL CLOCK TIME=        0.1 SECONDS, CPU UTILIZATION IS 100.00%
 ...... END OF 2-ELECTRON GRADIENT ......
 STEP CPU TIME =     0.00 TOTAL CPU TIME =        0.1 (    0.0 MIN)
 TOTAL WALL CLOCK TIME=        0.1 SECONDS, CPU UTILIZATION IS 100.00%

          NSERCH=  9     ENERGY=    -112.8289938

                                 -----------------------
                                 GRADIENT (HARTREE/BOHR)
                                 -----------------------
        ATOM     ZNUC       DE/DX         DE/DY         DE/DZ
 --------------------------------------------------------------
    1  C            6.0    -0.0000335     0.0000109     0.0000000
    2  O            8.0     0.0000196     0.0000004     0.0000000
    3  H            1.0     0.0000100    -0.0000092     0.0000000
    4  H            1.0     0.0000019    -0.0000011     0.0000002
    5  H            1.0     0.0000019    -0.0000011    -0.0000002


                     --------------------
                     INTERNAL COORDINATES
                     --------------------

                 - - ATOMS - -         COORDINATE        GRADIENT
 NO.   TYPE    I  J  K  L  M  N         (ANG,DEG)     (H/B,H/RAD)
 ----------------------------------------------------------------
   1 STRETCH   2  1                     1.4232122      -0.0000196
   2 STRETCH   3  1                     1.3255671      -0.0000135
   3 BEND      3  1  2                 51.8402948       0.0000029
   4 STRETCH   5  1                     1.0884568       0.0000014
   5 BEND      5  1  2                117.4717750       0.0000028
   6 TORSION   5  1  2  3            -106.3676756      -0.0000020
   7 STRETCH   4  1                     1.0884568       0.0000014
   8 BEND      4  1  2                117.4717750       0.0000028
   9 TORSION   4  1  2  3             106.3676756       0.0000020

 NOTE: CARTESIAN GRADIENTS ARE ALWAYS TAKEN TO TEST CONVERGENCE,
       SO THE FOLLOWING GRADIENTS ARE CARTESIAN.

          MAXIMUM GRADIENT = 0.0000335    RMS GRADIENT = 0.0000110

 NSERCH:   9  E=     -112.8289937879  GRAD. MAX=  0.0000335  R.M.S.=  0.0000110


      ***** SADDLE POINT LOCATED *****
 COORDINATES OF SYMMETRY UNIQUE ATOMS (ANGS)
   ATOM   CHARGE       X              Y              Z
 ------------------------------------------------------------
 C           6.0   0.7269641516   0.0398177088   0.0000000000
 O           8.0  -0.6920371045  -0.0695823565   0.0000000000
 H           1.0  -0.1697401854   1.0160601980   0.0000000000
 H           1.0   1.2485152609  -0.1929203212  -0.9265828297
 COORDINATES OF ALL ATOMS ARE (ANGS)
   ATOM   CHARGE       X              Y              Z
 ------------------------------------------------------------
 C           6.0   0.7269641516   0.0398177088   0.0000000000
 O           8.0  -0.6920371045  -0.0695823565   0.0000000000
 H           1.0  -0.1697401854   1.0160601980   0.0000000000
 H           1.0   1.2485152609  -0.1929203212   0.9265828297
 H           1.0   1.2485152609  -0.1929203212  -0.9265828297


                     --------------------
                     INTERNAL COORDINATES
                     --------------------

                 - - ATOMS - -         COORDINATE      COORDINATE
 NO.   TYPE    I  J  K  L  M  N        (BOHR,RAD)       (ANG,DEG)
 ----------------------------------------------------------------
   1 STRETCH   2  1                     2.6894811       1.4232122
   2 STRETCH   3  1                     2.5049585       1.3255671
   3 BEND      3  1  2                  0.9047838      51.8402948
   4 STRETCH   5  1                     2.0568852       1.0884568
   5 BEND      5  1  2                  2.0502693     117.4717750
   6 TORSION   5  1  2  3              -1.8564662    -106.3676756
   7 STRETCH   4  1                     2.0568852       1.0884568
   8 BEND      4  1  2                  2.0502693     117.4717750
   9 TORSION   4  1  2  3               1.8564662     106.3676756

 THE CURRENT FULLY SUBSTITUTED Z-MATRIX IS
 C   
 O      1   1.4232122
 H      1   1.3255671  2    51.8402948
 H      1   1.0884568  2   117.4717750  3  -106.3676756  0
 H      1   1.0884568  2   117.4717750  3   106.3676756  0

          INTERNUCLEAR DISTANCES (ANGS.)
          ------------------------------

                1 C          2 O          3 H          4 H          5 H     

   1 C       0.0000000    1.4232122 *  1.3255671 *  1.0884568 *  1.0884568 *
   2 O       1.4232122 *  0.0000000    1.2047464 *  2.1539525 *  2.1539525 *
   3 H       1.3255671 *  1.2047464 *  0.0000000    2.0812588 *  2.0812588 *
   4 H       1.0884568 *  2.1539525 *  2.0812588 *  0.0000000    1.8531657 *
   5 H       1.0884568 *  2.1539525 *  2.0812588 *  1.8531657 *  0.0000000  

  * ... LESS THAN  3.000


          NUCLEAR ENERGY    =       34.3154785807
          ELECTRONIC ENERGY =     -147.1444723686
          TOTAL ENERGY      =     -112.8289937879

          SPIN SZ   =   0.500
          S-SQUARED =   0.845

          ------------------
          MOLECULAR ORBITALS
          ------------------

          **** ALPHA SET **** 

                      1          2          3          4          5
                  -20.2716   -11.0627    -1.3103    -0.8508    -0.6329
                     A'         A'         A'         A'         A'  
    1  C  1  S    0.000422   0.992035  -0.091580  -0.210649  -0.008864
    2  C  1  S   -0.003566   0.035585   0.233050   0.667995   0.027801
    3  C  1  X    0.003989  -0.000465  -0.111340   0.127516   0.117228
    4  C  1  Y    0.001114  -0.000370   0.006986   0.031036  -0.389497
    5  C  1  Z    0.000000   0.000000   0.000000   0.000000   0.000000
    6  O  2  S    0.994302   0.000360  -0.225845   0.102261  -0.058640
    7  O  2  S    0.024483  -0.004023   0.825980  -0.454108   0.283880
    8  O  2  X    0.003486  -0.002656   0.106107   0.157215  -0.104329
    9  O  2  Y    0.001282   0.000892   0.056023   0.010569  -0.603728
   10  O  2  Z    0.000000   0.000000   0.000000   0.000000   0.000000
   11  H  3  S   -0.003137  -0.004771   0.095400   0.032166  -0.351732
   12  H  4  S    0.000137  -0.007066   0.024541   0.223021   0.109847
   13  H  5  S    0.000137  -0.007066   0.024541   0.223021   0.109847

                      6          7          8          9         10
                   -0.5910    -0.4880    -0.3775    -0.2992     0.4640
                     A''        A'         A''        A'         A'  
    1  C  1  S    0.000000   0.021776   0.000000   0.038527  -0.020373
    2  C  1  S    0.000000  -0.117293   0.000000  -0.216751   0.147565
    3  C  1  X    0.000000   0.504847   0.000000  -0.029883   0.160628
    4  C  1  Y    0.000000   0.118477   0.000000  -0.800392   0.492085
    5  C  1  Z   -0.548892   0.000000  -0.186447   0.000000   0.000000
    6  O  2  S    0.000000  -0.061046   0.000000   0.001933  -0.076403
    7  O  2  S    0.000000   0.319977   0.000000  -0.003288   0.453996
    8  O  2  X    0.000000  -0.623138   0.000000   0.107151   0.387917
    9  O  2  Y    0.000000   0.253374   0.000000   0.655138   0.451702
   10  O  2  Z   -0.375272   0.000000   0.919469   0.000000   0.000000
   11  H  3  S    0.000000   0.072197   0.000000  -0.020496  -1.077316
   12  H  4  S   -0.337626   0.160454  -0.259841   0.110920   0.001569
   13  H  5  S    0.337626   0.160454   0.259841   0.110920   0.001569

                     11         12         13
                    0.6065     0.6977     0.7367
                     A'         A'         A'' 
    1  C  1  S   -0.212075   0.073261   0.000000
    2  C  1  S    1.233891  -0.539480   0.000000
    3  C  1  X   -0.411665  -1.018904   0.000000
    4  C  1  Y   -0.135379   0.305357   0.000000
    5  C  1  Z    0.000000   0.000000   1.136334
    6  O  2  S    0.049453   0.031859   0.000000
    7  O  2  S   -0.308015  -0.213434   0.000000
    8  O  2  X   -0.686208  -0.389942   0.000000
    9  O  2  Y    0.177434   0.046525   0.000000
   10  O  2  Z    0.000000   0.000000  -0.186766
   11  H  3  S   -0.414829  -0.295380   0.000000
   12  H  4  S   -0.536332   0.734393  -0.872439
   13  H  5  S   -0.536332   0.734393   0.872439

          **** BETA SET ****

                      1          2          3          4          5
                  -20.2551   -11.0405    -1.2339    -0.7732    -0.5730
                     A'         A'         A'         A'         A'' 
    1  C  1  S    0.000391   0.992712  -0.093038  -0.190675   0.000000
    2  C  1  S   -0.003271   0.032638   0.230150   0.568181   0.000000
    3  C  1  X    0.003723  -0.000545  -0.128464   0.147684   0.000000
    4  C  1  Y    0.001087  -0.000570  -0.006387  -0.050349   0.000000
    5  C  1  Z    0.000000   0.000000   0.000000   0.000000  -0.520736
    6  O  2  S    0.994645   0.000273  -0.216695   0.098015   0.000000
    7  O  2  S    0.023064  -0.003535   0.784648  -0.427581   0.000000
    8  O  2  X    0.003355  -0.002347   0.121460   0.159325   0.000000
    9  O  2  Y    0.001268   0.000817   0.038780  -0.022586   0.000000
   10  O  2  Z    0.000000   0.000000   0.000000   0.000000  -0.350209
   11  H  3  S   -0.003074  -0.004468   0.146185   0.019890   0.000000
   12  H  4  S    0.000122  -0.006445   0.032353   0.283831  -0.371753
   13  H  5  S    0.000122  -0.006445   0.032353   0.283831   0.371753

                      6          7          8          9         10
                   -0.5185    -0.4457    -0.3529     0.3274     0.5234
                     A'         A'         A''        A'         A'  
    1  C  1  S    0.009800  -0.024384   0.000000  -0.059225  -0.025103
    2  C  1  S   -0.027211   0.147042   0.000000   0.313805   0.142975
    3  C  1  X    0.266089  -0.394850   0.000000   0.091099   0.058630
    4  C  1  Y   -0.258996  -0.220034   0.000000   0.797456   0.540061
    5  C  1  Z    0.000000   0.000000  -0.144386   0.000000   0.000000
    6  O  2  S   -0.107063   0.019556   0.000000  -0.011584  -0.059654
    7  O  2  S    0.529012  -0.100376   0.000000   0.062056   0.355878
    8  O  2  X   -0.324109   0.581374   0.000000  -0.047452   0.296007
    9  O  2  Y   -0.244840  -0.316685   0.000000  -0.650383   0.693067
   10  O  2  Z    0.000000   0.000000   0.927466   0.000000   0.000000
   11  H  3  S   -0.540161  -0.423174   0.000000  -0.136153  -0.948101
   12  H  4  S    0.151351  -0.116567  -0.266384  -0.125297   0.040386
   13  H  5  S    0.151351  -0.116567   0.266384  -0.125297   0.040386

                     11         12         13
                    0.6497     0.7251     0.7607
                     A'         A'         A'' 
    1  C  1  S    0.219514  -0.078631   0.000000
    2  C  1  S   -1.250080   0.563709   0.000000
    3  C  1  X    0.427564   1.035388   0.000000
    4  C  1  Y    0.150780  -0.304459   0.000000
    5  C  1  Z    0.000000   0.000000   1.155546
    6  O  2  S   -0.060368  -0.038761   0.000000
    7  O  2  S    0.367431   0.253218   0.000000
    8  O  2  X    0.695941   0.403331   0.000000
    9  O  2  Y   -0.180158   0.027863   0.000000
   10  O  2  Z    0.000000   0.000000  -0.195691
   11  H  3  S    0.330741   0.199978   0.000000
   12  H  4  S    0.519558  -0.722550  -0.856445
   13  H  5  S    0.519558  -0.722550   0.856445

     ----------------------------------------------------------------
     PROPERTY VALUES FOR THE UHF   SELF-CONSISTENT FIELD WAVEFUNCTION
     ----------------------------------------------------------------

          -----------------
          ENERGY COMPONENTS
          -----------------

         WAVEFUNCTION NORMALIZATION =       1.0000000000

                ONE ELECTRON ENERGY =    -223.2121323521
                TWO ELECTRON ENERGY =      76.0676599835
           NUCLEAR REPULSION ENERGY =      34.3154785807
                                      ------------------
                       TOTAL ENERGY =    -112.8289937879

 ELECTRON-ELECTRON POTENTIAL ENERGY =      76.0676599835
  NUCLEUS-ELECTRON POTENTIAL ENERGY =    -335.5325417262
   NUCLEUS-NUCLEUS POTENTIAL ENERGY =      34.3154785807
                                      ------------------
             TOTAL POTENTIAL ENERGY =    -225.1494031619
               TOTAL KINETIC ENERGY =     112.3204093740
                 VIRIAL RATIO (V/T) =       2.0045279786

          ---------------------------------------
          MULLIKEN AND LOWDIN POPULATION ANALYSES
          ---------------------------------------

     ATOMIC MULLIKEN POPULATION IN EACH MOLECULAR ORBITAL
        ALPHA ORBITALS

                      1          2          3          4          5

                  1.000000   1.000000   1.000000   1.000000   1.000000

    1            -0.000257   1.001368   0.166414   0.560909   0.256937
    2             1.000361  -0.000176   0.776878   0.172740   0.512406
    3            -0.000105  -0.000197   0.048272   0.005405   0.191152
    4             0.000001  -0.000498   0.004218   0.130473   0.019752
    5             0.000001  -0.000498   0.004218   0.130473   0.019752

                      6          7          8          9

                  1.000000   1.000000   1.000000   1.000000

    1             0.476575   0.331125   0.050303   0.611787
    2             0.175392   0.594640   0.809421   0.364351
    3             0.000000   0.004179   0.000000   0.002059
    4             0.174017   0.035028   0.070138   0.010902
    5             0.174017   0.035028   0.070138   0.010902

     ATOMIC MULLIKEN POPULATION IN EACH MOLECULAR ORBITAL
         BETA ORBITALS

                      1          2          3          4          5

                  1.000000   1.000000   1.000000   1.000000   1.000000

    1            -0.000238   1.001236   0.177971   0.481942   0.449865
    2             1.000339  -0.000154   0.731097   0.163876   0.154223
    3            -0.000102  -0.000182   0.079231   0.002083   0.000000
    4             0.000000  -0.000450   0.005851   0.176050   0.197956
    5             0.000000  -0.000450   0.005851   0.176050   0.197956

                      6          7          8

                  1.000000   1.000000   1.000000

    1             0.229352   0.261777   0.033479
    2             0.387139   0.536241   0.828793
    3             0.322383   0.168112   0.000000
    4             0.030563   0.016935   0.068864
    5             0.030563   0.016935   0.068864

     ATOMIC SPIN POPULATION (ALPHA MINUS BETA)
       ATOM         MULL.POP.                    LOW.POP.
    1 C             0.819782                     0.756842
    2 O             0.604456                     0.588363
    3 H            -0.320759                    -0.270710
    4 H            -0.051740                    -0.037248
    5 H            -0.051740                    -0.037248


          ********* ALL ELECTRONS ********

               ----- POPULATIONS IN EACH AO -----
                             MULLIKEN      LOWDIN
              1  C  1  S      1.99299     1.98547
              2  C  1  S      1.20534     1.08550
              3  C  1  X      0.82622     0.86678
              4  C  1  Y      1.05577     1.07089
              5  C  1  Z      1.01022     1.03302
              6  O  2  S      1.99875     1.99772
              7  O  2  S      1.91948     1.84458
              8  O  2  X      1.18775     1.21351
              9  O  2  Y      1.13376     1.14405
             10  O  2  Z      1.96783     1.96886
             11  H  3  S      0.82229     0.84284
             12  H  4  S      0.93980     0.97339
             13  H  5  S      0.93980     0.97339

          ----- MULLIKEN ATOMIC OVERLAP POPULATIONS -----
          (OFF-DIAGONAL ELEMENTS NEED TO BE MULTIPLIED BY 2)

             1           2           3           4           5

    1    5.0306264
    2    0.1908904   7.9652503
    3    0.1196457   0.0791923   0.6321605
    4    0.3746916  -0.0138834  -0.0043546   0.6093186
    5    0.3746916  -0.0138834  -0.0043546  -0.0259726   0.6093186

          TOTAL MULLIKEN AND LOWDIN ATOMIC POPULATIONS
       ATOM         MULL.POP.    CHARGE          LOW.POP.     CHARGE
    1 C             6.090546   -0.090546         6.041662   -0.041662
    2 O             8.207566   -0.207566         8.168725   -0.168725
    3 H             0.822289    0.177711         0.842842    0.157158
    4 H             0.939799    0.060201         0.973386    0.026614
    5 H             0.939799    0.060201         0.973386    0.026614

          -------------------------------
          BOND ORDER AND VALENCE ANALYSIS     BOND ORDER THRESHOLD=0.050
          -------------------------------

                   BOND                       BOND                       BOND
  ATOM PAIR DIST  ORDER      ATOM PAIR DIST  ORDER      ATOM PAIR DIST  ORDER
    1   2  1.423  1.106        1   3  1.326  0.414        1   4  1.088  0.962
    1   5  1.088  0.962        2   3  1.205  0.451

                       TOTAL       BONDED        FREE
      ATOM            VALENCE     VALENCE     VALENCE
    1 C                 3.909       3.444       0.466
    2 O                 2.018       1.606       0.412
    3 H                 0.968       0.866       0.103
    4 H                 0.996       0.994       0.003
    5 H                 0.996       0.994       0.003

          -----------------------------------------
          ATOMIC SPIN DENSITY AT THE NUCLEUS (A.U.)
          -----------------------------------------
                            SPIN DENS    ALPHA DENS     BETA DENS
    1  C            6.0     0.2196900      38.77962      38.55993
    2  O            8.0    -0.0333773      96.95718      96.99055
    3  H            1.0    -0.1348862       0.08760       0.22249
    4  H            1.0    -0.0171931       0.17409       0.19129
    5  H            1.0    -0.0171931       0.17409       0.19129

          ---------------------
          ELECTROSTATIC MOMENTS
          ---------------------

 POINT   1           X           Y           Z (BOHR)    CHARGE
                 0.000000   -0.000000    0.000000        0.00 (A.U.)
         DX          DY          DZ         /D/  (DEBYE)
     1.012597    0.713641    0.000000    1.238804
 ...... END OF PROPERTY EVALUATION ......
 STEP CPU TIME =     0.00 TOTAL CPU TIME =        0.1 (    0.0 MIN)
 TOTAL WALL CLOCK TIME=        0.1 SECONDS, CPU UTILIZATION IS  91.67%
  $VIB   
          IVIB=   0 IATOM=   0 ICOORD=   0 E=     -112.8289937879
 -3.349873226E-05 1.107574534E-05 7.411538288E-22 1.964652584E-05 2.738373235E-07
  0.000000000E+00 9.980461752E-06-9.166811490E-06-4.235164736E-22 1.935872335E-06
 -1.091385587E-06 2.290414725E-07 1.935872335E-06-1.091385587E-06-2.290414725E-07
  1.012596877E+00 7.136411953E-01 0.000000000E+00
 ......END OF GEOMETRY SEARCH......
 STEP CPU TIME =     0.00 TOTAL CPU TIME =        0.1 (    0.0 MIN)
 TOTAL WALL CLOCK TIME=        0.1 SECONDS, CPU UTILIZATION IS  91.67%
               580000  WORDS OF DYNAMIC MEMORY USED
 EXECUTION OF GAMESS TERMINATED NORMALLY Wed Aug  9 22:43:41 2017
 DDI: 263640 bytes (0.3 MB / 0 MWords) used by master data server.

 ----------------------------------------
 CPU timing information for all processes
 ========================================
 0: 0.97 + 0.20 = 0.118
 ----------------------------------------
 ddikick.x: exited gracefully.
unset echo
----- accounting info -----
Files used on the master node compute-1-8.local were:
-rw-rw-r-- 1 sarom sarom 4.6K Aug  9 22:43 /scratch/sadpt-culot2.F05
-rw-rw-r-- 1 sarom sarom 176K Aug  9 22:43 /scratch/sadpt-culot2.F08
-rw-rw-r-- 1 sarom sarom 2.3M Aug  9 22:43 /scratch/sadpt-culot2.F10
rm: cannot remove `/scratch/tmp': Is a directory
ls: No match.
ls: No match.
ls: No match.
Wed Aug  9 22:43:44 CDT 2017
0.255u 0.157s 0:03.59 11.1%	0+0k 16+368io 0pf+0w
/opt/gridengine/default/spool/compute-1-8/active_jobs/36333.1/pe_hostfile compute-1-8.local
