----- GAMESS execution script 'rungms' -----
This job is running on host compute-3-0
under operating system Linux at Mon Nov 28 20:06:11 CST 2016
Available scratch disk space (Kbyte units) at beginning of the job is
Filesystem            1K-blocks       Used  Available Use% Mounted on
bolt.local:/export/home/sarom
                     9590469632 1552200704 7551100928  18% /home/sarom
Copying input file globop-fmo-pair.inp to your run's scratch directory...
cp globop-fmo-pair.inp .//globop-fmo-pair.F05
unset echo
/home/sarom/gamessGH/ddikick.x /home/sarom/gamessGH/gamess.00.x globop-fmo-pair -ddi 1 1 localhost -scr ./

 Distributed Data Interface kickoff program.
 Initiating 1 compute processes on 1 nodes to run the following command:
 /home/sarom/gamessGH/gamess.00.x globop-fmo-pair 

          ******************************************************
          *         GAMESS VERSION = 18 AUG 2016 (R1)          *
          *             FROM IOWA STATE UNIVERSITY             *
          * M.W.SCHMIDT, K.K.BALDRIDGE, J.A.BOATZ, S.T.ELBERT, *
          *   M.S.GORDON, J.H.JENSEN, S.KOSEKI, N.MATSUNAGA,   *
          *          K.A.NGUYEN, S.J.SU, T.L.WINDUS,           *
          *       TOGETHER WITH M.DUPUIS, J.A.MONTGOMERY       *
          *         J.COMPUT.CHEM.  14, 1347-1363(1993)        *
          **************** 64 BIT LINUX VERSION ****************

  SINCE 1993, STUDENTS AND POSTDOCS WORKING AT IOWA STATE UNIVERSITY
  AND ALSO IN THEIR VARIOUS JOBS AFTER LEAVING ISU HAVE MADE IMPORTANT
  CONTRIBUTIONS TO THE CODE:
     IVANA ADAMOVIC, CHRISTINE AIKENS, YURI ALEXEEV, POOJA ARORA,
     ANDREY ASADCHEV, ROB BELL, PRADIPTA BANDYOPADHYAY, JONATHAN BENTZ,
     BRETT BODE, KURT BRORSEN, CALEB CARLIN, GALINA CHABAN, WEI CHEN,
     CHEOL HO CHOI, PAUL DAY, ALBERT DEFUSCO, NUWAN DESILVA, TIM DUDLEY,
     DMITRI FEDOROV, GRAHAM FLETCHER, MARK FREITAG, KURT GLAESEMANN,
     DAN KEMP, GRANT MERRILL, NORIYUKI MINEZAWA, JONATHAN MULLIN,
     TAKESHI NAGATA, SEAN NEDD, HEATHER NETZLOFF, BOSILJKA NJEGIC, RYAN OLSON,
     MIKE PAK, SPENCER PRUITT, LUKE ROSKOP, JIM SHOEMAKER, LYUDMILA SLIPCHENKO,
     TONY SMITH, SAROM SOK LEANG, JIE SONG, TETSUYA TAKETSUGU, SIMON WEBB,
     PENG XU, SOOHAENG YOO, FEDERICO ZAHARIEV

  ADDITIONAL CODE HAS BEEN PROVIDED BY COLLABORATORS IN OTHER GROUPS:
     IOWA STATE UNIVERSITY:
          JOE IVANIC, AARON WEST, LAIMUTIS BYTAUTAS, KLAUS RUEDENBERG
     UNIVERSITY OF TOKYO: KIMIHIKO HIRAO, TAKAHITO NAKAJIMA,
          TAKAO TSUNEDA, MUNEAKI KAMIYA, SUSUMU YANAGISAWA,
          KIYOSHI YAGI, MAHITO CHIBA, SEIKEN TOKURA, NAOAKI KAWAKAMI
     UNIVERSITY OF AARHUS: FRANK JENSEN
     UNIVERSITY OF IOWA: VISVALDAS KAIRYS, HUI LI
     NATIONAL INST. OF STANDARDS AND TECHNOLOGY: WALT STEVENS, DAVID GARMER
     UNIVERSITY OF PISA: BENEDETTA MENNUCCI, JACOPO TOMASI
     UNIVERSITY OF MEMPHIS: HENRY KURTZ, PRAKASHAN KORAMBATH
     UNIVERSITY OF ALBERTA: TOBY ZENG, MARIUSZ KLOBUKOWSKI
     UNIVERSITY OF NEW ENGLAND: MARK SPACKMAN
     MIE UNIVERSITY: HIROAKI UMEDA
     NAT. INST. OF ADVANCED INDUSTRIAL SCIENCE AND TECHNOLOGY: KAZUO KITAURA
     MICHIGAN STATE UNIVERSITY:
          KAROL KOWALSKI, MARTA WLOCH, JEFFREY GOUR, JESSE LUTZ,
          WEI LI, PIOTR PIECUCH
     UNIVERSITY OF SILESIA: MONIKA MUSIAL, STANISLAW KUCHARSKI
     FACULTES UNIVERSITAIRES NOTRE-DAME DE LA PAIX:
          OLIVIER QUINET, BENOIT CHAMPAGNE
     UNIVERSITY OF CALIFORNIA - SANTA BARBARA: BERNARD KIRTMAN
     INSTITUTE FOR MOLECULAR SCIENCE:
          KAZUYA ISHIMURA, MICHIO KATOUDA, AND SHIGERU NAGASE
     UNIVERSITY OF NOTRE DAME: ANNA POMOGAEVA, DAN CHIPMAN
     KYUSHU UNIVERSITY:
          HARUYUKI NAKANO,
          FENG LONG GU, JACEK KORCHOWIEC, MARCIN MAKOWSKI, AND YURIKO AOKI,
          HIROTOSHI MORI AND EISAKU MIYOSHI
     PENNSYLVANIA STATE UNIVERSITY:
          TZVETELIN IORDANOV, CHET SWALINA, JONATHAN SKONE,
          SHARON HAMMES-SCHIFFER
     WASEDA UNIVERSITY:
          MASATO KOBAYASHI, TOMOKO AKAMA, TSUGUKI TOUMA,
          TAKESHI YOSHIKAWA, YASUHIRO IKABATA, JUNJI SEINO,
          YUYA NAKAJIMA, HIROMI NAKAI
     NANJING UNIVERSITY: SHUHUA LI
     UNIVERSITY OF NEBRASKA:
          PEIFENG SU, DEJUN SI, NANDUN THELLAMUREGE, YALI WANG, HUI LI
     UNIVERSITY OF ZURICH: ROBERTO PEVERATI, KIM BALDRIDGE
     N. COPERNICUS UNIVERSITY AND JACKSON STATE UNIVERSITY:
          MARIA BARYSZ
     UNIVERSITY OF COPENHAGEN: Jimmy Kromann, CASPER STEINMANN
     TOKYO INSTITUTE OF TECHNOLOGY: HIROYA NAKATA
     NAGOYA UNIVERSITY: YOSHIO NISHIMOTO, STEPHAN IRLE
     MOSCOW STATE UNIVERSITY: VLADIMIR MIRONOV

 EXECUTION OF GAMESS BEGUN Mon Nov 28 20:06:11 2016

            ECHO OF THE FIRST FEW INPUT CARDS -
 INPUT CARD>!  Monte Carlo FMO test case                                                    
 INPUT CARD>!  This is a sample input file for testing the pair                             
 INPUT CARD>!  binding option on a 5 methanol cluster.  The bindings                        
 INPUT CARD>!  don't correspond to a local minimum.                                         
 INPUT CARD>!                                                                               
 INPUT CARD>!  The output should contain a line similar to:                                 
 INPUT CARD>! MINIMUM ENERGY FOUND =           -571.3348688847  AT GEOMETRY NUMBER     79   
 INPUT CARD>!  The geometry number may be different, but the minimum                        
 INPUT CARD>!  energy should be within 2 Hartree of the value listed.                       
 INPUT CARD>!                                                                               
 INPUT CARD> $CONTRL SCFTYP=RHF RUNTYP=GLOBOP MAXIT=90 MULT=1 $END                          
 INPUT CARD> $SYSTEM TIMLIM=525600 MWORDS=400 memddi=400 $END                               
 INPUT CARD> $BASIS GBASIS=MINI $END                                                        
 INPUT CARD> $SCF DIRSCF=.TRUE. FDIFF=.f. DAMP=.TRUE. SOSCF=.t. $END                        
 INPUT CARD> $GLOBOP MCTYP=2 NROT=2 NTRAN=2 NBLOCK=20 MCMIN=.f.                             
 INPUT CARD>    RNDINI=.f. septol=1.0 TEMPI=200 NTEMPS=1                                    
 INPUT CARD>    XMIN=-10 XMAX=10  SCALE(1)=0.1                                              
 INPUT CARD>    YMIN=-10 YMAX=10  NPRBND=4                                                  
 INPUT CARD>    ZMIN=-10 ZMAX=10 $END                                                       
 INPUT CARD> $GLBFRG IBNDS(1)=18,25,1,30,6,7,7,24                                           
 INPUT CARD>      $END                                                                      
 INPUT CARD> $FMO                                                                           
 INPUT CARD>  NFRAG=5 NBODY=2 NACUT=6 RESPAP=0 RESPPC=-1                                    
 INPUT CARD>  RESDIM=0 RCORSD=0 RITRIM(1)=2,-1,2.5,2 MODESP=0 $END                          
 INPUT CARD> $FMOPRP MAXIT=40 $END                                                          
 INPUT CARD> $DATA                                                                          
 INPUT CARD>                                                                                
 INPUT CARD>C1                                                                              
 INPUT CARD>O 8                                                                             
 INPUT CARD>C 6                                                                             
 INPUT CARD>H 1                                                                             
 INPUT CARD> $END                                                                           
 INPUT CARD> $FMOXYZ                                                                        
 INPUT CARD>O     8.0    -0.61064     1.21747     0.61984                                   
 INPUT CARD>C     6.0    -0.32864     0.65320    -0.66895                                   
 INPUT CARD>H     1.0     0.09383    -0.34252    -0.48346                                   
 INPUT CARD>H     1.0    -1.24177     0.54221    -1.27767                                   
 INPUT CARD>H     1.0     0.41017     1.25250    -1.22720                                   
 INPUT CARD>H     1.0    -0.98475     2.09727     0.48320                                   
 INPUT CARD>O     8.0    -2.02481     2.79080    -0.96312                                   
 INPUT CARD>C     6.0    -3.35890     2.95695    -1.46461                                   
 INPUT CARD>H     1.0    -3.99935     2.30356    -0.85860                                   
 INPUT CARD>H     1.0    -3.71176     3.99647    -1.35726                                   
 INPUT CARD>H     1.0    -3.44161     2.65194    -2.52139                                   
 INPUT CARD>H     1.0    -1.43994     3.35762    -1.48205                                   
 INPUT CARD>O     8.0     0.00557    -0.52035     2.39029                                   
 INPUT CARD>C     6.0     1.04624    -1.50815     2.37729                                   
 INPUT CARD>H     1.0     1.88082    -1.06890     1.81616                                   
 INPUT CARD>H     1.0     1.39396    -1.75213     3.39524                                   
 INPUT CARD>H     1.0     0.72745    -2.43424     1.86997                                   
  400000000 WORDS OF MEMORY AVAILABLE

     BASIS OPTIONS
     -------------
     GBASIS=MINI         IGAUSS=       0      POLAR=NONE    
     NDFUNC=       0     NFFUNC=       0     DIFFSP=       F
     NPFUNC=       0      DIFFS=       F     BASNAM=        


     RUN TITLE
     ---------
                                                                                 

 THE POINT GROUP OF THE MOLECULE IS C1      
 THE ORDER OF THE PRINCIPAL AXIS IS     0

 ATOM   ATOMIC CHARGE
 O           8.0
 C           6.0
 H           1.0

     ATOMIC BASIS SET LIBRARY
     ----------------
 THE CONTRACTED PRIMITIVE FUNCTIONS HAVE BEEN UNNORMALIZED
 THE CONTRACTED BASIS FUNCTIONS ARE NOW NORMALIZED TO UNITY

  SHELL TYPE  PRIMITIVE        EXPONENT          CONTRACTION COEFFICIENT(S)

 O         

      1   S       1           281.8665800    0.069059895330
      1   S       2            42.4160000    0.393159473412
      1   S       3             9.0956200    0.665669054983

      2   S       4            11.7893262   -0.080819896351
      2   S       5             0.9128941    0.582089473721
      2   S       6             0.2866610    0.497159577555

      3   P       7             8.2741400    0.124270892747
      3   P       8             1.7154628    0.476593472182
      3   P       9             0.3830133    0.613044464218

 C         

      4   S      10           153.1722600    0.070740101715
      4   S      11            23.0730300    0.395380409585
      4   S      12             4.9232900    0.663310716080

      5   S      13             6.6166118   -0.081380500552
      5   S      14             0.5258556    0.574853203898
      5   S      15             0.1699578    0.502412803407

      6   P      16             4.9129201    0.109930601675
      6   P      17             0.9976164    0.462712707051
      6   P      18             0.2326851    0.627513709563

 H         

      7   S      19             7.0340625    0.070452003325
      7   S      20             1.0647563    0.407826019247
      7   S      21             0.2365594    0.647752030571

 TOTAL NUMBER OF BASIS SET SHELLS             =    7
 NUMBER OF CARTESIAN GAUSSIAN BASIS FUNCTIONS =   11

     $CONTRL OPTIONS
     ---------------
 SCFTYP=RHF          RUNTYP=GLOBOP       EXETYP=RUN     
 MPLEVL=       0     CITYP =NONE         CCTYP =NONE         VBTYP =NONE    
 DFTTYP=NONE         TDDFT =NONE    
 MULT  =       1     ICHARG=       0     NZVAR =       0     COORD =UNIQUE  
 PP    =NONE         RELWFN=NONE         LOCAL =NONE         NUMGRD=       F
 ISPHER=      -1     NOSYM =       0     MAXIT =      90     UNITS =ANGS    
 PLTORB=       F     MOLPLT=       F     AIMPAC=       F     FRIEND=        
 NPRINT=       7     IREST =       0     GEOM  =INPUT   
 NORMF =       0     NORMP =       0     ITOL  =      24     ICUT  =      12
 INTTYP=BEST         GRDTYP=BEST         QMTTOL= 1.0E-06

     $SYSTEM OPTIONS
     ---------------
  REPLICATED MEMORY=   400000000 WORDS (ON EVERY NODE).
 DISTRIBUTED MEMDDI=         400 MILLION WORDS IN AGGREGATE,
 MEMDDI DISTRIBUTED OVER   1 PROCESSORS IS   400000000 WORDS/PROCESSOR.
 TOTAL MEMORY REQUESTED ON EACH PROCESSOR=   800000000 WORDS.
 TIMLIM=      525600.00 MINUTES, OR     365.0 DAYS.
 PARALL= F  BALTYP=  DLB     KDIAG=    0  COREFL= F
 MXSEQ2=     300 MXSEQ3=     150  mem10=         0

          ----------------
          PROPERTIES INPUT
          ----------------

     MOMENTS            FIELD           POTENTIAL          DENSITY
 IEMOM =       1   IEFLD =       0   IEPOT =       0   IEDEN =       0
 WHERE =COMASS     WHERE =NUCLEI     WHERE =NUCLEI     WHERE =NUCLEI  
 OUTPUT=BOTH       OUTPUT=BOTH       OUTPUT=NONE       OUTPUT=BOTH    
 IEMINT=       0   IEFINT=       0                     IEDINT=       0
                                                       MORB  =       0
          EXTRAPOLATION IN EFFECT
          DAMPING IN EFFECT
          SOSCF IN EFFECT
 ORBITAL PRINTING OPTION: NPREO=     1 32767     2     1

     -------------------------------
     INTEGRAL TRANSFORMATION OPTIONS
     -------------------------------
     NWORD  =            0
     CUTOFF = 1.0E-10     MPTRAN =       0
     DIRTRF =       T     AOINTS =DUP     

          ----------------------
          INTEGRAL INPUT OPTIONS
          ----------------------
 NOPK  =       1 NORDER=       0 SCHWRZ=       T

 ..... DONE SETTING UP THE RUN .....
 STEP CPU TIME =     0.02 TOTAL CPU TIME =        0.0 (    0.0 MIN)
 TOTAL WALL CLOCK TIME=        0.0 SECONDS, CPU UTILIZATION IS  40.00%
 STEP CPU TIME =     0.00 TOTAL CPU TIME =        0.0 (    0.0 MIN)
 TOTAL WALL CLOCK TIME=        0.0 SECONDS, CPU UTILIZATION IS  40.00%

                    ----------------------
                    AO INTEGRAL TECHNOLOGY
                    ----------------------
     S,P,L SHELL ROTATED AXIS INTEGRALS, REPROGRAMMED BY
        KAZUYA ISHIMURA (IMS) AND JOSE SIERRA (SYNSTAR).
     S,P,D,L SHELL ROTATED AXIS INTEGRALS PROGRAMMED BY
        KAZUYA ISHIMURA (INSTITUTE FOR MOLECULAR SCIENCE).
     S,P,D,F,G SHELL TO TOTAL QUARTET ANGULAR MOMENTUM SUM 5,
        ERIC PROGRAM BY GRAHAM FLETCHER (ELORET AND NASA ADVANCED
        SUPERCOMPUTING DIVISION, AMES RESEARCH CENTER).
     S,P,D,F,G,L SHELL GENERAL RYS QUADRATURE PROGRAMMED BY
        MICHEL DUPUIS (PACIFIC NORTHWEST NATIONAL LABORATORY).
 STEP CPU TIME =     0.03 TOTAL CPU TIME =        0.0 (    0.0 MIN)
 TOTAL WALL CLOCK TIME=        0.1 SECONDS, CPU UTILIZATION IS  55.56%
 Copied FMO -> GAMESS
 STEP CPU TIME =     0.00 TOTAL CPU TIME =        0.0 (    0.0 MIN)
 TOTAL WALL CLOCK TIME=        0.1 SECONDS, CPU UTILIZATION IS  55.56%

          ---- MONTE CARLO/SIMULATED ANNEALING OPTIONS -----
 TEMPI=     200.0 TEMPF=       0.0 NTEMPS=   1 NGEOPT=   80
 NFRMOV=   1 NTRAN=   2 NROT=   2 NBLOCK=  20 SCALE=  0.10  1.00 SEPTOL= 1.000
 MCMIN= F NSTMIN=  10 OPTN= F
 XMIN/XMAX= -1.00E+01  1.00E+01
 YMIN/YMAX= -1.00E+01  1.00E+01
 ZMIN/ZMAX= -1.00E+01  1.00E+01
 ALPHA=    0.0000 DACRAT=    0.5000 UPDFAC=    0.9500 BOLTWT=STANDARD
 AIMOVE=   0.0000  NPRT=   1  RANDOM=RAND3    RNDINI= F  RIORD=RAND    
   NAIFG=   0 NFMOMOV=   1
 NSMSTP=
 IFXFRG=
 NFRMOV=                    1  IS GREATER THAN THE NUMBER OF FRAGMENTS=                    0

 -------------------     ----------------------------------------------
 GLOBAL OPTIMIZATION     WRITTEN BY PAUL DAY AND PRADIPTA BANDYOPADHYAY
 -------------------     ----------------------------------------------
 STEP CPU TIME =     0.00 TOTAL CPU TIME =        0.0 (    0.0 MIN)
 TOTAL WALL CLOCK TIME=        0.1 SECONDS, CPU UTILIZATION IS  45.45%
 STEP CPU TIME =     0.00 TOTAL CPU TIME =        0.0 (    0.0 MIN)
 TOTAL WALL CLOCK TIME=        0.1 SECONDS, CPU UTILIZATION IS  45.45%
 STEP CPU TIME =     0.00 TOTAL CPU TIME =        0.0 (    0.0 MIN)
 TOTAL WALL CLOCK TIME=        0.1 SECONDS, CPU UTILIZATION IS  45.45%
 Initialising fragments
 STEP CPU TIME =     0.00 TOTAL CPU TIME =        0.0 (    0.0 MIN)
 TOTAL WALL CLOCK TIME=        0.1 SECONDS, CPU UTILIZATION IS  45.45%
 STEP CPU TIME =     0.00 TOTAL CPU TIME =        0.0 (    0.0 MIN)
 TOTAL WALL CLOCK TIME=        0.1 SECONDS, CPU UTILIZATION IS  45.45%
 OPENING FILE SOCCDAT WITH      21 LOGICAL RECORDS OF     105 WORDS
 WITH A MAXIMUM OF          21 PHYSICAL RECORDS OF    2048 WORDS

 -----------------------------------------------------------------------
                  The Fragment Molecular Orbital (FMO) method.
                       The program is developed at the
                     Nanoscience Research Institute (NRI)
     (formerly, Research Institute for Computational Sciences, RICS)
 National Institute of Advanced Industrial Science and Technology (AIST)
     AIST Tsukuba Central 2, Umezono 1-1-1, Tsukuba, 305-8568, Japan.

                              Version 5.2
                    coded by D. G. Fedorov and K. Kitaura,
 with contributions from N. Asada, K.R. Brorsen, M. Chiba, C. Choi, N. Minezawa,
 T. Nagata, H. Nakata, Y. Nishimoto, S.R. Pruitt, C. Steinmann, and F. Zahariev.
       All publications using the FMO method in GAMESS should reference:
          D. G. Fedorov, K. Kitaura, J. Chem. Phys. 120, 6832 (2004).
 -----------------------------------------------------------------------

 Used memory (words):        10097
 Number of fragments:      5
 Number of layers:         1
 N-body FMO method:        2
 Number of atoms:         30
 Total charge:             0
 Total spin multiplicity:  1
 Number of basis sets:     1
 Number of LMO types:      0
 Number of boundaries:     0
 MonomerSCF convergence:   0.1000E-06
 Max monomerSCF iter:     40
 MonomerSCF criterion:     internal
 Max AOs per n-mer:       14       28
 Layer electron correlation information
     nbody=  2
    SCFTYP=RHF     
    MPLEVL=  0
    DFTTYP=NONE    
     CITYP=NONE    
     CCTYP=NONE    
     TDDFT=NONE    
 FMO method: FMO2-RHF

 FMO approximations.
    Using point charge approximation for the 2e ESP of all fragments.
    The uniform distances will be used in ESPs.
    Van der Waals radii in Angstrom are:
       R(O  )=  1.4000
       R(C  )=  1.5000
       R(H  )=  1.2000

 FMO initial guess options.
    Using monomer density to form dimer guess.

 FMO extensions.

 FMO automation options.
    Number of atoms per fragment  6

 FMO SCF converger options.
    SCF convergers:
    579    579    579    579    579    579    579    579    579    579
    Fragment densities will be exchanged.

 FMO parallelisation options.
    Smart parallel load balancing: large jobs first.
    ESPs will be shell parallelised.
    Broadcast all fragments at once.
    Do the fragment initialisation in the reverse order.

 FMO properties and print-out level.
    Interfragment CT method:    4
       Compact print-out level.

 Array dimensions maxbnd,maxknd,maxcbs,maxcao,maxbbd are:
                      11     10      5      5      5

 --------------------------------------------------




 Starting layer 1 nbody=2
 SCFTYP=RHF     MPLEVL=0 DFTTYP=NONE    CITYP=NONE    CCTYP=NONE    TDDFT=NONE    



 Running initial guess for monomer       5


          ********************
          1 ELECTRON INTEGRALS
          ********************
 ...... END OF ONE-ELECTRON INTEGRALS ......
 STEP CPU TIME =     0.00 TOTAL CPU TIME =        0.0 (    0.0 MIN)
 TOTAL WALL CLOCK TIME=        0.1 SECONDS, CPU UTILIZATION IS  35.71%

          -------------
          GUESS OPTIONS
          -------------
          GUESS =HUCKEL            NORB  =       0          NORDER=       0
          MIX   =       F          PRTMO =       F          PUNMO =       F
          TOLZ  = 1.0E-08          TOLE  = 1.0E-05
          SYMDEN=       F          PURIFY=       F

 INITIAL GUESS ORBITALS GENERATED BY HUCKEL   ROUTINE.
 HUCKEL GUESS REQUIRES      6318 WORDS.

 SYMMETRIES FOR INITIAL GUESS ORBITALS FOLLOW.   BOTH SET(S).
     9 ORBITALS ARE OCCUPIED (    2 CORE ORBITALS).
     3=A        4=A        5=A        6=A        7=A        8=A        9=A   
    10=A       11=A       12=A       13=A       14=A   
 ...... END OF INITIAL ORBITAL SELECTION ......
 STEP CPU TIME =     0.00 TOTAL CPU TIME =        0.0 (    0.0 MIN)
 TOTAL WALL CLOCK TIME=        0.1 SECONDS, CPU UTILIZATION IS  35.71%

 Running initial guess for monomer       4


          ********************
          1 ELECTRON INTEGRALS
          ********************
 ...... END OF ONE-ELECTRON INTEGRALS ......
 STEP CPU TIME =     0.00 TOTAL CPU TIME =        0.0 (    0.0 MIN)
 TOTAL WALL CLOCK TIME=        0.2 SECONDS, CPU UTILIZATION IS  27.78%

          -------------
          GUESS OPTIONS
          -------------
          GUESS =HUCKEL            NORB  =       0          NORDER=       0
          MIX   =       F          PRTMO =       F          PUNMO =       F
          TOLZ  = 1.0E-08          TOLE  = 1.0E-05
          SYMDEN=       F          PURIFY=       F

 INITIAL GUESS ORBITALS GENERATED BY HUCKEL   ROUTINE.
 HUCKEL GUESS REQUIRES      6318 WORDS.

 SYMMETRIES FOR INITIAL GUESS ORBITALS FOLLOW.   BOTH SET(S).
     9 ORBITALS ARE OCCUPIED (    2 CORE ORBITALS).
     3=A        4=A        5=A        6=A        7=A        8=A        9=A   
    10=A       11=A       12=A       13=A       14=A   
 ...... END OF INITIAL ORBITAL SELECTION ......
 STEP CPU TIME =     0.01 TOTAL CPU TIME =        0.1 (    0.0 MIN)
 TOTAL WALL CLOCK TIME=        0.2 SECONDS, CPU UTILIZATION IS  33.33%

 Running initial guess for monomer       3


          ********************
          1 ELECTRON INTEGRALS
          ********************
 ...... END OF ONE-ELECTRON INTEGRALS ......
 STEP CPU TIME =     0.00 TOTAL CPU TIME =        0.1 (    0.0 MIN)
 TOTAL WALL CLOCK TIME=        0.2 SECONDS, CPU UTILIZATION IS  27.27%

          -------------
          GUESS OPTIONS
          -------------
          GUESS =HUCKEL            NORB  =       0          NORDER=       0
          MIX   =       F          PRTMO =       F          PUNMO =       F
          TOLZ  = 1.0E-08          TOLE  = 1.0E-05
          SYMDEN=       F          PURIFY=       F

 INITIAL GUESS ORBITALS GENERATED BY HUCKEL   ROUTINE.
 HUCKEL GUESS REQUIRES      6318 WORDS.

 SYMMETRIES FOR INITIAL GUESS ORBITALS FOLLOW.   BOTH SET(S).
     9 ORBITALS ARE OCCUPIED (    2 CORE ORBITALS).
     3=A        4=A        5=A        6=A        7=A        8=A        9=A   
    10=A       11=A       12=A       13=A       14=A   
 ...... END OF INITIAL ORBITAL SELECTION ......
 STEP CPU TIME =     0.01 TOTAL CPU TIME =        0.1 (    0.0 MIN)
 TOTAL WALL CLOCK TIME=        0.2 SECONDS, CPU UTILIZATION IS  31.82%

 Running initial guess for monomer       2


          ********************
          1 ELECTRON INTEGRALS
          ********************
 ...... END OF ONE-ELECTRON INTEGRALS ......
 STEP CPU TIME =     0.00 TOTAL CPU TIME =        0.1 (    0.0 MIN)
 TOTAL WALL CLOCK TIME=        0.3 SECONDS, CPU UTILIZATION IS  25.93%

          -------------
          GUESS OPTIONS
          -------------
          GUESS =HUCKEL            NORB  =       0          NORDER=       0
          MIX   =       F          PRTMO =       F          PUNMO =       F
          TOLZ  = 1.0E-08          TOLE  = 1.0E-05
          SYMDEN=       F          PURIFY=       F

 INITIAL GUESS ORBITALS GENERATED BY HUCKEL   ROUTINE.
 HUCKEL GUESS REQUIRES      6318 WORDS.

 SYMMETRIES FOR INITIAL GUESS ORBITALS FOLLOW.   BOTH SET(S).
     9 ORBITALS ARE OCCUPIED (    2 CORE ORBITALS).
     3=A        4=A        5=A        6=A        7=A        8=A        9=A   
    10=A       11=A       12=A       13=A       14=A   
 ...... END OF INITIAL ORBITAL SELECTION ......
 STEP CPU TIME =     0.00 TOTAL CPU TIME =        0.1 (    0.0 MIN)
 TOTAL WALL CLOCK TIME=        0.3 SECONDS, CPU UTILIZATION IS  25.93%

 Running initial guess for monomer       1


          ********************
          1 ELECTRON INTEGRALS
          ********************
 ...... END OF ONE-ELECTRON INTEGRALS ......
 STEP CPU TIME =     0.00 TOTAL CPU TIME =        0.1 (    0.0 MIN)
 TOTAL WALL CLOCK TIME=        0.3 SECONDS, CPU UTILIZATION IS  22.58%

          -------------
          GUESS OPTIONS
          -------------
          GUESS =HUCKEL            NORB  =       0          NORDER=       0
          MIX   =       F          PRTMO =       F          PUNMO =       F
          TOLZ  = 1.0E-08          TOLE  = 1.0E-05
          SYMDEN=       F          PURIFY=       F

 INITIAL GUESS ORBITALS GENERATED BY HUCKEL   ROUTINE.
 HUCKEL GUESS REQUIRES      6318 WORDS.

 SYMMETRIES FOR INITIAL GUESS ORBITALS FOLLOW.   BOTH SET(S).
     9 ORBITALS ARE OCCUPIED (    2 CORE ORBITALS).
     3=A        4=A        5=A        6=A        7=A        8=A        9=A   
    10=A       11=A       12=A       13=A       14=A   
 ...... END OF INITIAL ORBITAL SELECTION ......
 STEP CPU TIME =     0.00 TOTAL CPU TIME =        0.1 (    0.0 MIN)
 TOTAL WALL CLOCK TIME=        0.3 SECONDS, CPU UTILIZATION IS  22.58%

 There are           0 separated and      10 SCF (       0 of them correlated) dimers.
 Estimate of max dimer size:   28 AOs,   18 occ. MOs

 Fragment statistics

      I  NAME     Q NAT0 NATB NA  NAO LAY MUL SCFTYP        NOP     MOL    CONV
 ==============================================================================
      1 frg00001  0    6   0    9   14 1  1 G RHF             0      -1      -1
      2 frg00002  0    6   0    9   14 1  1 G RHF             0      -1      -1
      3 frg00003  0    6   0    9   14 1  1 G RHF             0      -1      -1
      4 frg00004  0    6   0    9   14 1  1 G RHF             0      -1      -1
      5 frg00005  0    6   0    9   14 1  1 G RHF             0      -1      -1

 Close fragment pairs, distance relative to vdW radii

      4     2   0.48895 very close!
      5     3   0.48871 very close!

 RHF      monomer      2 corr= NONE       , L1=    14, L0=    14 ID=      1


          ********************
          1 ELECTRON INTEGRALS
          ********************

          --------------------
          2 ELECTRON INTEGRALS
          --------------------

 DIRECT SCF METHOD SKIPS INTEGRAL STORAGE ON DISK.
 DIRECT TRANSFORMATION SKIPS AO INTEGRAL STORAGE ON DISK.
 ...... END OF ONE-ELECTRON INTEGRALS ......
 STEP CPU TIME =     0.01 TOTAL CPU TIME =        0.1 (    0.0 MIN)
 TOTAL WALL CLOCK TIME=        0.3 SECONDS, CPU UTILIZATION IS  22.86%

          --------------------
          2 ELECTRON INTEGRALS
          --------------------

 DIRECT SCF METHOD SKIPS INTEGRAL STORAGE ON DISK.
 DIRECT TRANSFORMATION SKIPS AO INTEGRAL STORAGE ON DISK.

          --------------------------
                 RHF SCF CALCULATION
          --------------------------

     NUCLEAR ENERGY =        39.9663021841
     MAXIT =   90     NPUNCH=   -2
     EXTRAP=T  DAMP=T  SHIFT=F  RSTRCT=F  DIIS=F  DEM=F  SOSCF=T
     DENSITY MATRIX CONV=  2.00E-07
     SOSCF WILL OPTIMIZE      45 ORBITAL ROTATIONS, SOGTOL=   0.250
     MEMORY REQUIRED FOR RHF ITERS=     46214 WORDS.

 DIRECT SCF CALCULATION, SCHWRZ=T   FDIFF=F,  DIRTHR=  0.00E+00 NITDIR=10
 SCHWARZ INEQUALITY OVERHEAD:       105 INTEGRALS, T=        0.00

                                                                                                                   NONZERO     BLOCKS
 ITER EX DEM     TOTAL ENERGY        E CHANGE  DENSITY CHANGE     ORB. GRAD      VIR. SHIFT       DAMPING        INTEGRALS    SKIPPED
   1  0  0     -114.4274203987  -114.4274203987   0.573143769   0.000000000     0.000000000     1.000000000           5342         15
          ---------------START SECOND ORDER SCF---------------
   2  1  0     -114.6293988429    -0.2019784442   0.164101363   0.045912468     0.000000000     0.000000000           5347         10
   3  2  0     -114.6411082701    -0.0117094272   0.079953605   0.012182137     0.000000000     0.000000000           5347         10
   4  3  0     -114.6424031791    -0.0012949090   0.003517441   0.001643265     0.000000000     0.000000000           5347         10
   5  4  0     -114.6424308835    -0.0000277043   0.002086635   0.000722705     0.000000000     0.000000000           5347         10
   6  5  0     -114.6424353992    -0.0000045158   0.000143535   0.000061242     0.000000000     0.000000000           5347         10
   7  6  0     -114.6424354234    -0.0000000241   0.000022160   0.000012776     0.000000000     0.000000000           5347         10
   8  7  0     -114.6424354247    -0.0000000013   0.000003393   0.000002197     0.000000000     0.000000000           5347         10
   9  8  0     -114.6424354247    -0.0000000000   0.000000651   0.000000310     0.000000000     0.000000000           5347         10
  10  9  0     -114.6424354247    -0.0000000000   0.000000230   0.000000089     0.000000000     0.000000000           5347         10
  11 10  0     -114.6424354247    -0.0000000000   0.000000000   0.000000009     0.000000000     0.000000000           5347         10

          -----------------
          DENSITY CONVERGED
          -----------------
     TIME TO FORM FOCK OPERATORS=       0.1 SECONDS (       0.0 SEC/ITER)
     FOCK TIME ON FIRST ITERATION=       0.0, LAST ITERATION=       0.0
     TIME TO SOLVE SCF EQUATIONS=       0.0 SECONDS (       0.0 SEC/ITER)

 FINAL RHF ENERGY IS     -114.6424354247 AFTER  11 ITERATIONS

          ------------
          EIGENVECTORS
          ------------

                      1          2          3          4          5
                  -20.3191   -11.2249    -1.3425    -0.9354    -0.6728
                     A          A          A          A          A   
    1  O  1  S    0.990263   0.000904  -0.212825   0.068323   0.042553
    2  O  1  S    0.048684  -0.007713   0.797186  -0.290300  -0.205411
    3  O  1  X   -0.001718   0.005580  -0.040715  -0.210484   0.339242
    4  O  1  Y    0.004665  -0.000058   0.072039  -0.038447   0.303369
    5  O  1  Z   -0.005786   0.001376  -0.093225  -0.008419  -0.253460
    6  C  2  S    0.000774   0.988519  -0.079186  -0.193140  -0.013583
    7  C  2  S   -0.008760   0.060396   0.201122   0.595794   0.042881
    8  C  2  X   -0.007973  -0.001376   0.096391  -0.097577  -0.105150
    9  C  2  Y    0.001203  -0.000274  -0.013732  -0.006491   0.271116
   10  C  2  Z   -0.003236  -0.000139   0.033350  -0.035975  -0.309316
   11  H  3  S    0.000510  -0.012775   0.027150   0.195691  -0.141908
   12  H  4  S    0.000204  -0.012506   0.028649   0.187521   0.184733
   13  H  5  S    0.000205  -0.012568   0.028638   0.193031   0.170122
   14  H  6  S   -0.012470  -0.002420   0.141229  -0.146801   0.302726

                      6          7          8          9         10
                   -0.6314    -0.5826    -0.4869    -0.4403     0.4987
                     A          A          A          A          A   
    1  O  1  S   -0.001437  -0.018249  -0.068132   0.000131   0.115258
    2  O  1  S    0.007678   0.108012   0.382109  -0.001087  -0.819833
    3  O  1  X   -0.087707   0.489928   0.157226  -0.136279   0.484986
    4  O  1  Y    0.307778  -0.050234  -0.439222   0.674450  -0.294692
    5  O  1  Z    0.285621   0.194624   0.534568   0.583715   0.456715
    6  C  2  S   -0.002352   0.005730   0.011870   0.000473  -0.072332
    7  C  2  S    0.005574  -0.015187  -0.028231  -0.000479   0.417104
    8  C  2  X   -0.073039  -0.489636  -0.076024   0.045599   0.904667
    9  C  2  Y    0.409213  -0.212800   0.229932  -0.203180  -0.064237
   10  C  2  Z    0.353853   0.141945  -0.287267  -0.176276   0.261347
   11  H  3  S    0.001925   0.354044  -0.257469  -0.005740   0.092168
   12  H  4  S    0.297045  -0.022205   0.183696  -0.261766   0.056583
   13  H  5  S   -0.297877  -0.032654   0.192921   0.262028   0.028521
   14  H  6  S   -0.017012   0.190938  -0.228175  -0.000940   0.464646

                     11         12         13         14
                    0.6178     0.6598     0.6908     0.7142
                     A          A          A          A   
    1  O  1  S    0.040058   0.003557   0.030536   0.010665
    2  O  1  S   -0.295420  -0.027195  -0.210774  -0.048718
    3  O  1  X   -0.554030  -0.027726  -0.544229   0.326354
    4  O  1  Y   -0.238888  -0.183006  -0.343313   0.078763
    5  O  1  Z    0.154644  -0.102119   0.287071  -0.035818
    6  C  2  S    0.037120   0.009926  -0.043730  -0.198380
    7  C  2  S   -0.248007  -0.073727   0.331088   1.419684
    8  C  2  X   -0.455238  -0.157852  -0.228248  -0.394447
    9  C  2  Y   -0.509791   0.884747   0.494522  -0.149957
   10  C  2  Z    0.442947   0.710105  -0.721663   0.201087
   11  H  3  S   -0.721402   0.073570   0.370875  -1.014659
   12  H  4  S    0.418698  -0.881808  -0.578591  -0.619060
   13  H  5  S    0.375479   0.908259  -0.673138  -0.502622
   14  H  6  S    0.846496   0.078952   0.724994  -0.201448
 ...... END OF RHF CALCULATION ......
 STEP CPU TIME =     0.07 TOTAL CPU TIME =        0.2 (    0.0 MIN)
 TOTAL WALL CLOCK TIME=        0.5 SECONDS, CPU UTILIZATION IS  31.25%

     ----------------------------------------------------------------
     PROPERTY VALUES FOR THE RHF   SELF-CONSISTENT FIELD WAVEFUNCTION
     ----------------------------------------------------------------

          -----------------
          ENERGY COMPONENTS
          -----------------

         WAVEFUNCTION NORMALIZATION =       1.0000000000

                ONE ELECTRON ENERGY =    -235.9455302163
                TWO ELECTRON ENERGY =      81.3367926075
           NUCLEAR REPULSION ENERGY =      39.9663021841
                                      ------------------
                       TOTAL ENERGY =    -114.6424354247

 ELECTRON-ELECTRON POTENTIAL ENERGY =      81.3367926075
  NUCLEUS-ELECTRON POTENTIAL ENERGY =    -350.3509112563
   NUCLEUS-NUCLEUS POTENTIAL ENERGY =      39.9663021841
                                      ------------------
             TOTAL POTENTIAL ENERGY =    -229.0478164647
               TOTAL KINETIC ENERGY =     114.4053810399
                 VIRIAL RATIO (V/T) =       2.0020720562

          ---------------------------------------
          MULLIKEN AND LOWDIN POPULATION ANALYSES
          ---------------------------------------

     ATOMIC MULLIKEN POPULATION IN EACH MOLECULAR ORBITAL

                      1          2          3          4          5

                  2.000000   2.000000   2.000000   2.000000   2.000000

    1             2.002742  -0.000896   1.526052   0.294644   0.820299
    2            -0.001302   2.006100   0.279834   1.011957   0.609313
    3             0.000004  -0.001758   0.009326   0.214686   0.072558
    4             0.000001  -0.001700   0.009701   0.194764   0.124039
    5             0.000001  -0.001708   0.009846   0.206615   0.104629
    6            -0.001445  -0.000037   0.165242   0.077334   0.269162

                      6          7          8          9

                  2.000000   2.000000   2.000000   2.000000

    1             0.470202   0.697593   1.190006   1.506214
    2             0.943665   0.832057   0.352644   0.178046
    3             0.000017   0.389328   0.164347   0.000085
    4             0.293497   0.000894   0.087188   0.158458
    5             0.291866   0.002305   0.095599   0.157196
    6             0.000753   0.077823   0.110216   0.000001

               ----- POPULATIONS IN EACH AO -----
                             MULLIKEN      LOWDIN
              1  O  1  S      1.99549     1.99510
              2  O  1  S      1.79938     1.65114
              3  O  1  X      1.20201     1.21911
              4  O  1  Y      1.77136     1.76963
              5  O  1  Z      1.73861     1.73793
              6  C  2  S      1.98829     1.98559
              7  C  2  S      1.16897     1.02094
              8  C  2  X      0.83898     0.88618
              9  C  2  Y      1.13430     1.12832
             10  C  2  Z      1.08177     1.08591
             11  H  3  S      0.84859     0.90327
             12  H  4  S      0.86684     0.91828
             13  H  5  S      0.86635     0.91902
             14  H  6  S      0.69905     0.77958

          ----- MULLIKEN ATOMIC OVERLAP POPULATIONS -----
          (OFF-DIAGONAL ELEMENTS NEED TO BE MULTIPLIED BY 2)

             1           2           3           4           5

    1    8.0005477
    2    0.2599062   4.8241952
    3   -0.0199315   0.3917890   0.5020152
    4   -0.0171750   0.3910972  -0.0124809   0.5225237
    5   -0.0179545   0.3902863  -0.0146000  -0.0153692   0.5257103
    6    0.3014621  -0.0449608   0.0018012  -0.0017532  -0.0017252

             6

    6    0.4442245

          TOTAL MULLIKEN AND LOWDIN ATOMIC POPULATIONS
       ATOM         MULL.POP.    CHARGE          LOW.POP.     CHARGE
    1 O             8.506855   -0.506855         8.372901   -0.372901
    2 C             6.212313   -0.212313         6.106947   -0.106947
    3 H             0.848593    0.151407         0.903273    0.096727
    4 H             0.866843    0.133157         0.918280    0.081720
    5 H             0.866348    0.133652         0.919018    0.080982
    6 H             0.699049    0.300951         0.779581    0.220419

          -------------------------------
          BOND ORDER AND VALENCE ANALYSIS     BOND ORDER THRESHOLD=0.050
          -------------------------------

                   BOND                       BOND                       BOND
  ATOM PAIR DIST  ORDER      ATOM PAIR DIST  ORDER      ATOM PAIR DIST  ORDER
    1   2  1.435  0.961        1   6  0.966  0.892        2   3  1.097  0.963
    2   4  1.103  0.963        2   5  1.103  0.961

                       TOTAL       BONDED        FREE
      ATOM            VALENCE     VALENCE     VALENCE
    1 O                 1.896       1.896       0.000
    2 C                 3.859       3.859      -0.000
    3 H                 0.977       0.977      -0.000
    4 H                 0.982       0.982       0.000
    5 H                 0.982       0.982      -0.000
    6 H                 0.909       0.909       0.000

          ---------------------
          ELECTROSTATIC MOMENTS
          ---------------------

 POINT   1           X           Y           Z (BOHR)    CHARGE
                -3.135321    1.435455    1.320122        0.00 (A.U.)
         DX          DY          DZ         /D/  (DEBYE)
    -0.594811    1.239838   -1.514754    2.045844
 ...... END OF PROPERTY EVALUATION ......
 STEP CPU TIME =     0.01 TOTAL CPU TIME =        0.2 (    0.0 MIN)
 TOTAL WALL CLOCK TIME=        0.5 SECONDS, CPU UTILIZATION IS  33.33%

 Iter=  1 iFrag=      2 EFMO=  -114.271994786, DD= 0.818845784, DE=************


 RHF      monomer      3 corr= NONE       , L1=    14, L0=    14 ID=      2


          ********************
          1 ELECTRON INTEGRALS
          ********************

          --------------------
          2 ELECTRON INTEGRALS
          --------------------

 DIRECT SCF METHOD SKIPS INTEGRAL STORAGE ON DISK.
 DIRECT TRANSFORMATION SKIPS AO INTEGRAL STORAGE ON DISK.
 ...... END OF ONE-ELECTRON INTEGRALS ......
 STEP CPU TIME =     0.00 TOTAL CPU TIME =        0.2 (    0.0 MIN)
 TOTAL WALL CLOCK TIME=        0.5 SECONDS, CPU UTILIZATION IS  30.77%

          --------------------
          2 ELECTRON INTEGRALS
          --------------------

 DIRECT SCF METHOD SKIPS INTEGRAL STORAGE ON DISK.
 DIRECT TRANSFORMATION SKIPS AO INTEGRAL STORAGE ON DISK.

          --------------------------
                 RHF SCF CALCULATION
          --------------------------

     NUCLEAR ENERGY =        39.9661345226
     MAXIT =   90     NPUNCH=   -2
     EXTRAP=T  DAMP=T  SHIFT=F  RSTRCT=F  DIIS=F  DEM=F  SOSCF=T
     DENSITY MATRIX CONV=  2.00E-07
     SOSCF WILL OPTIMIZE      45 ORBITAL ROTATIONS, SOGTOL=   0.250
     MEMORY REQUIRED FOR RHF ITERS=     46214 WORDS.

 DIRECT SCF CALCULATION, SCHWRZ=T   FDIFF=F,  DIRTHR=  0.00E+00 NITDIR=10
 SCHWARZ INEQUALITY OVERHEAD:       105 INTEGRALS, T=        0.00

                                                                                                                   NONZERO     BLOCKS
 ITER EX DEM     TOTAL ENERGY        E CHANGE  DENSITY CHANGE     ORB. GRAD      VIR. SHIFT       DAMPING        INTEGRALS    SKIPPED
   1  0  0     -113.7082064481  -113.7082064481   0.574901009   0.000000000     0.000000000     1.000000000           5338         15
          ---------------START SECOND ORDER SCF---------------
   2  1  0     -113.9078670806    -0.1996606325   0.163298641   0.043947686     0.000000000     0.000000000           5344         10
   3  2  0     -113.9195699445    -0.0117028639   0.079829071   0.012103430     0.000000000     0.000000000           5344         10
   4  3  0     -113.9208731653    -0.0013032208   0.004323477   0.001745573     0.000000000     0.000000000           5344         10
   5  4  0     -113.9209014236    -0.0000282583   0.002522510   0.000708939     0.000000000     0.000000000           5344         10
   6  5  0     -113.9209060163    -0.0000045927   0.000112734   0.000049146     0.000000000     0.000000000           5344         10
   7  6  0     -113.9209060353    -0.0000000190   0.000029595   0.000010883     0.000000000     0.000000000           5344         10
   8  7  0     -113.9209060366    -0.0000000013   0.000002932   0.000001932     0.000000000     0.000000000           5344         10
   9  8  0     -113.9209060366    -0.0000000000   0.000000701   0.000000258     0.000000000     0.000000000           5344         10
  10  9  0     -113.9209060366    -0.0000000000   0.000000143   0.000000065     0.000000000     0.000000000           5344         10
  11 10  0     -113.9209060366     0.0000000000   0.000000030   0.000000013     0.000000000     0.000000000           5344         10

          -----------------
          DENSITY CONVERGED
          -----------------
     TIME TO FORM FOCK OPERATORS=       0.1 SECONDS (       0.0 SEC/ITER)
     FOCK TIME ON FIRST ITERATION=       0.0, LAST ITERATION=       0.0
     TIME TO SOLVE SCF EQUATIONS=       0.0 SECONDS (       0.0 SEC/ITER)

 FINAL RHF ENERGY IS     -113.9209060366 AFTER  11 ITERATIONS

          ------------
          EIGENVECTORS
          ------------

                      1          2          3          4          5
                  -20.2756   -11.1959    -1.3007    -0.9007    -0.6341
                     A          A          A          A          A   
    1  O  1  S    0.990262   0.000900  -0.212562   0.070404  -0.038665
    2  O  1  S    0.048691  -0.007674   0.796636  -0.298382   0.185483
    3  O  1  X   -0.000651  -0.004610   0.003525   0.181273   0.408721
    4  O  1  Y   -0.006824   0.003331  -0.115369  -0.073087   0.169883
    5  O  1  Z    0.003342   0.000525   0.051097  -0.047139  -0.250576
    6  C  2  S    0.000776   0.988538  -0.080554  -0.192071   0.008358
    7  C  2  S   -0.008772   0.060307   0.205171   0.590756  -0.025833
    8  C  2  X    0.006134   0.001283  -0.077558   0.085817   0.057521
    9  C  2  Y   -0.006174  -0.000647   0.069703  -0.076896   0.387729
   10  C  2  Z    0.000080  -0.000270   0.002828  -0.003014  -0.195671
   11  H  3  S    0.000511  -0.012747   0.028458   0.197362   0.172159
   12  H  4  S    0.000205  -0.012548   0.030075   0.196403  -0.179088
   13  H  5  S    0.000204  -0.012548   0.030063   0.196371  -0.181493
   14  H  6  S   -0.012451  -0.002407   0.135725  -0.136312  -0.282872

                      6          7          8          9         10
                   -0.5963    -0.5457    -0.4484    -0.4017     0.5380
                     A          A          A          A          A   
    1  O  1  S    0.000177  -0.018374  -0.069359   0.001188  -0.112471
    2  O  1  S   -0.000614   0.109473   0.387328  -0.006291   0.800015
    3  O  1  X    0.149363  -0.404896   0.081820   0.336248   0.310807
    4  O  1  Y    0.156132   0.341276   0.647888   0.335889  -0.653471
    5  O  1  Z    0.347895   0.025437  -0.312026   0.776515   0.156559
    6  C  2  S   -0.000006   0.008107   0.013837  -0.000251   0.071081
    7  C  2  S    0.000077  -0.026550  -0.035328   0.000738  -0.407603
    8  C  2  X    0.201719   0.509383  -0.031343  -0.094183   0.757862
    9  C  2  Y    0.203671  -0.035478  -0.322375  -0.092252  -0.588598
   10  C  2  Z    0.462416  -0.207895   0.152394  -0.215987  -0.068325
   11  H  3  S   -0.001004   0.352445  -0.254526   0.002803  -0.133949
   12  H  4  S    0.311115  -0.024643   0.180451  -0.263080  -0.040294
   13  H  5  S   -0.308535  -0.023387   0.188398   0.258763  -0.040891
   14  H  6  S    0.001066   0.203744  -0.225357   0.002814  -0.417259

                     11         12         13         14
                    0.6567     0.6927     0.7276     0.7455
                     A          A          A          A   
    1  O  1  S   -0.040753  -0.000068   0.040083  -0.000382
    2  O  1  S    0.301653   0.000476  -0.273300   0.028129
    3  O  1  X   -0.462610  -0.075383   0.557890  -0.507219
    4  O  1  Y    0.011846  -0.076740   0.149526   0.045534
    5  O  1  Z    0.196895  -0.171574  -0.310448   0.201394
    6  C  2  S   -0.036902  -0.000177  -0.095796  -0.180487
    7  C  2  S    0.254349   0.001334   0.702425   1.283129
    8  C  2  X   -0.583035   0.427955   0.134012   0.379514
    9  C  2  Y   -0.481753   0.436983  -0.704202   0.249882
   10  C  2  Z    0.469013   0.979576   0.255559  -0.278499
   11  H  3  S    0.771076  -0.000079  -0.032158  -1.039387
   12  H  4  S   -0.472888  -0.895779  -0.702477  -0.378558
   13  H  5  S   -0.474562   0.893592  -0.703562  -0.379746
   14  H  6  S   -0.758206  -0.000664   0.753726  -0.447638
 ...... END OF RHF CALCULATION ......
 STEP CPU TIME =     0.07 TOTAL CPU TIME =        0.2 (    0.0 MIN)
 TOTAL WALL CLOCK TIME=        0.6 SECONDS, CPU UTILIZATION IS  35.94%

     ----------------------------------------------------------------
     PROPERTY VALUES FOR THE RHF   SELF-CONSISTENT FIELD WAVEFUNCTION
     ----------------------------------------------------------------

          -----------------
          ENERGY COMPONENTS
          -----------------

         WAVEFUNCTION NORMALIZATION =       1.0000000000

                ONE ELECTRON ENERGY =    -235.1761000995
                TWO ELECTRON ENERGY =      81.2890595403
           NUCLEAR REPULSION ENERGY =      39.9661345226
                                      ------------------
                       TOTAL ENERGY =    -113.9209060366

 ELECTRON-ELECTRON POTENTIAL ENERGY =      81.2890595403
  NUCLEUS-ELECTRON POTENTIAL ENERGY =    -349.5669647084
   NUCLEUS-NUCLEUS POTENTIAL ENERGY =      39.9661345226
                                      ------------------
             TOTAL POTENTIAL ENERGY =    -228.3117706456
               TOTAL KINETIC ENERGY =     114.3908646089
                 VIRIAL RATIO (V/T) =       1.9958916424

          ---------------------------------------
          MULLIKEN AND LOWDIN POPULATION ANALYSES
          ---------------------------------------

     ATOMIC MULLIKEN POPULATION IN EACH MOLECULAR ORBITAL

                      1          2          3          4          5

                  2.000000   2.000000   2.000000   2.000000   2.000000

    1             2.002742  -0.000891   1.524222   0.283260   0.779503
    2            -0.001305   2.006092   0.287443   1.011247   0.643457
    3             0.000004  -0.001754   0.009906   0.215327   0.104904
    4             0.000001  -0.001705   0.010502   0.210433   0.112526
    5             0.000001  -0.001705   0.010489   0.210378   0.115591
    6            -0.001443  -0.000037   0.157439   0.069354   0.244019

                      6          7          8          9

                  2.000000   2.000000   2.000000   2.000000

    1             0.433168   0.707820   1.242184   1.541063
    2             0.945786   0.817993   0.319034   0.153991
    3             0.000003   0.378260   0.157399   0.000017
    4             0.313087   0.001106   0.081496   0.155021
    5             0.307953   0.000965   0.088746   0.149892
    6             0.000003   0.093856   0.111142   0.000017

               ----- POPULATIONS IN EACH AO -----
                             MULLIKEN      LOWDIN
              1  O  1  S      1.99550     1.99512
              2  O  1  S      1.80133     1.65207
              3  O  1  X      1.28591     1.29552
              4  O  1  Y      1.59815     1.60362
              5  O  1  Z      1.83217     1.83013
              6  C  2  S      1.98825     1.98551
              7  C  2  S      1.16089     1.01613
              8  C  2  X      0.95794     0.98489
              9  C  2  Y      0.96960     0.99389
             10  C  2  Z      1.10706     1.10730
             11  H  3  S      0.86407     0.91454
             12  H  4  S      0.88247     0.93086
             13  H  5  S      0.88231     0.93072
             14  H  6  S      0.67435     0.75970

          ----- MULLIKEN ATOMIC OVERLAP POPULATIONS -----
          (OFF-DIAGONAL ELEMENTS NEED TO BE MULTIPLIED BY 2)

             1           2           3           4           5

    1    8.0048003
    2    0.2621463   4.7909448
    3   -0.0197033   0.3928193   0.5171447
    4   -0.0177134   0.3909801  -0.0139945   0.5417644
    5   -0.0176867   0.3910290  -0.0139694  -0.0168537   0.5415113
    6    0.3012266  -0.0441826   0.0017693  -0.0017158  -0.0017199

             6

    6    0.4189720

          TOTAL MULLIKEN AND LOWDIN ATOMIC POPULATIONS
       ATOM         MULL.POP.    CHARGE          LOW.POP.     CHARGE
    1 O             8.513070   -0.513070         8.376464   -0.376464
    2 C             6.183737   -0.183737         6.087714   -0.087714
    3 H             0.864066    0.135934         0.914543    0.085457
    4 H             0.882467    0.117533         0.930857    0.069143
    5 H             0.882311    0.117689         0.930719    0.069281
    6 H             0.674350    0.325650         0.759703    0.240297

          -------------------------------
          BOND ORDER AND VALENCE ANALYSIS     BOND ORDER THRESHOLD=0.050
          -------------------------------

                   BOND                       BOND                       BOND
  ATOM PAIR DIST  ORDER      ATOM PAIR DIST  ORDER      ATOM PAIR DIST  ORDER
    1   2  1.435  0.972        1   6  0.966  0.876        2   3  1.097  0.967
    2   4  1.103  0.965        2   5  1.103  0.965

                       TOTAL       BONDED        FREE
      ATOM            VALENCE     VALENCE     VALENCE
    1 O                 1.892       1.892       0.000
    2 C                 3.880       3.880      -0.000
    3 H                 0.982       0.982      -0.000
    4 H                 0.986       0.986      -0.000
    5 H                 0.986       0.986      -0.000
    6 H                 0.894       0.894       0.000

          ---------------------
          ELECTROSTATIC MOMENTS
          ---------------------

 POINT   1           X           Y           Z (BOHR)    CHARGE
                -3.135321    1.435455    1.320122       -0.00 (A.U.)
         DX          DY          DZ         /D/  (DEBYE)
    -0.275462   -1.747883    0.900609    1.985465
 ...... END OF PROPERTY EVALUATION ......
 STEP CPU TIME =     0.00 TOTAL CPU TIME =        0.2 (    0.0 MIN)
 TOTAL WALL CLOCK TIME=        0.6 SECONDS, CPU UTILIZATION IS  35.94%

 Iter=  1 iFrag=      3 EFMO=  -114.271826160, DD= 0.819641812, DE=************


 RHF      monomer      4 corr= NONE       , L1=    14, L0=    14 ID=      3


          ********************
          1 ELECTRON INTEGRALS
          ********************

          --------------------
          2 ELECTRON INTEGRALS
          --------------------

 DIRECT SCF METHOD SKIPS INTEGRAL STORAGE ON DISK.
 DIRECT TRANSFORMATION SKIPS AO INTEGRAL STORAGE ON DISK.
 ...... END OF ONE-ELECTRON INTEGRALS ......
 STEP CPU TIME =     0.00 TOTAL CPU TIME =        0.2 (    0.0 MIN)
 TOTAL WALL CLOCK TIME=        0.7 SECONDS, CPU UTILIZATION IS  34.85%

          --------------------
          2 ELECTRON INTEGRALS
          --------------------

 DIRECT SCF METHOD SKIPS INTEGRAL STORAGE ON DISK.
 DIRECT TRANSFORMATION SKIPS AO INTEGRAL STORAGE ON DISK.

          --------------------------
                 RHF SCF CALCULATION
          --------------------------

     NUCLEAR ENERGY =        39.9663121083
     MAXIT =   90     NPUNCH=   -2
     EXTRAP=T  DAMP=T  SHIFT=F  RSTRCT=F  DIIS=F  DEM=F  SOSCF=T
     DENSITY MATRIX CONV=  2.00E-07
     SOSCF WILL OPTIMIZE      45 ORBITAL ROTATIONS, SOGTOL=   0.250
     MEMORY REQUIRED FOR RHF ITERS=     46214 WORDS.

 DIRECT SCF CALCULATION, SCHWRZ=T   FDIFF=F,  DIRTHR=  0.00E+00 NITDIR=10
 SCHWARZ INEQUALITY OVERHEAD:       105 INTEGRALS, T=        0.00

                                                                                                                   NONZERO     BLOCKS
 ITER EX DEM     TOTAL ENERGY        E CHANGE  DENSITY CHANGE     ORB. GRAD      VIR. SHIFT       DAMPING        INTEGRALS    SKIPPED
   1  0  0     -113.9771233337  -113.9771233337   0.572633116   0.000000000     0.000000000     1.000000000           5340         15
          ---------------START SECOND ORDER SCF---------------
   2  1  0     -114.1763071671    -0.1991838334   0.165769702   0.047273271     0.000000000     0.000000000           5346         10
   3  2  0     -114.1881805120    -0.0118733449   0.081046089   0.012771445     0.000000000     0.000000000           5346         10
   4  3  0     -114.1894991139    -0.0013186019   0.004245788   0.001722206     0.000000000     0.000000000           5346         10
   5  4  0     -114.1895272311    -0.0000281171   0.002450148   0.000735798     0.000000000     0.000000000           5346         10
   6  5  0     -114.1895318875    -0.0000046565   0.000128093   0.000052605     0.000000000     0.000000000           5346         10
   7  6  0     -114.1895319085    -0.0000000209   0.000031461   0.000012809     0.000000000     0.000000000           5346         10
   8  7  0     -114.1895319097    -0.0000000013   0.000004190   0.000001992     0.000000000     0.000000000           5346         10
   9  8  0     -114.1895319097    -0.0000000000   0.000000675   0.000000305     0.000000000     0.000000000           5346         10
  10  9  0     -114.1895319097    -0.0000000000   0.000000264   0.000000094     0.000000000     0.000000000           5346         10
  11 10  0     -114.1895319097    -0.0000000000   0.000000029   0.000000011     0.000000000     0.000000000           5346         10

          -----------------
          DENSITY CONVERGED
          -----------------
     TIME TO FORM FOCK OPERATORS=       0.1 SECONDS (       0.0 SEC/ITER)
     FOCK TIME ON FIRST ITERATION=       0.0, LAST ITERATION=       0.0
     TIME TO SOLVE SCF EQUATIONS=       0.0 SECONDS (       0.0 SEC/ITER)

 FINAL RHF ENERGY IS     -114.1895319097 AFTER  11 ITERATIONS

          ------------
          EIGENVECTORS
          ------------

                      1          2          3          4          5
                  -20.3030   -11.2050    -1.3237    -0.9111    -0.6526
                     A          A          A          A          A   
    1  O  1  S    0.990267   0.000903  -0.213130   0.066246   0.044525
    2  O  1  S    0.048669  -0.007702   0.798415  -0.281035  -0.216073
    3  O  1  X    0.001914   0.000091   0.027731  -0.019091   0.119151
    4  O  1  Y    0.004621   0.002552   0.066745  -0.143937   0.511394
    5  O  1  Z    0.005772  -0.005142   0.102553   0.163045  -0.050732
    6  C  2  S    0.000774   0.988540  -0.077627  -0.193238  -0.013756
    7  C  2  S   -0.008751   0.060292   0.195680   0.594493   0.044772
    8  C  2  X    0.000340  -0.000151  -0.003086  -0.001745   0.085898
    9  C  2  Y   -0.002370  -0.000845   0.033230  -0.035534   0.237710
   10  C  2  Z    0.008344   0.001083  -0.095907   0.095179   0.327615
   11  H  3  S    0.000510  -0.012742   0.026361   0.195998  -0.131910
   12  H  4  S    0.000205  -0.012502   0.027262   0.186728   0.161773
   13  H  5  S    0.000205  -0.012543   0.028233   0.194964   0.186537
   14  H  6  S   -0.012481  -0.002422   0.145080  -0.150549   0.316521

                      6          7          8          9         10
                   -0.6062    -0.5618    -0.4660    -0.4205     0.5180
                     A          A          A          A          A   
    1  O  1  S    0.001643   0.018796   0.067949   0.000753  -0.116514
    2  O  1  S   -0.008246  -0.110510  -0.381323  -0.005251   0.829384
    3  O  1  X    0.433745   0.025371   0.155316   0.860407   0.120099
    4  O  1  Y   -0.096164  -0.144388   0.424428  -0.222676   0.143438
    5  O  1  Z   -0.050146   0.505492   0.537705  -0.090782   0.697299
    6  C  2  S   -0.002373  -0.004958  -0.011853   0.000918   0.071735
    7  C  2  S    0.009285   0.013294   0.026448  -0.004889  -0.411639
    8  C  2  X    0.517121   0.105315  -0.097383  -0.273998   0.006048
    9  C  2  Y   -0.134491   0.484478  -0.238178   0.065124  -0.359195
   10  C  2  Z   -0.047061  -0.242236  -0.279718   0.022790   0.860271
   11  H  3  S    0.000886  -0.359786   0.264128   0.006102  -0.088744
   12  H  4  S    0.298054   0.030204  -0.183914  -0.271290  -0.044703
   13  H  5  S   -0.293075   0.028456  -0.195769   0.265928  -0.039978
   14  H  6  S    0.011873  -0.183991   0.229428   0.005317  -0.495661

                     11         12         13         14
                    0.6337     0.6867     0.7103     0.7370
                     A          A          A          A   
    1  O  1  S    0.039187  -0.003943  -0.025287   0.012465
    2  O  1  S   -0.288719   0.026011   0.173438  -0.061626
    3  O  1  X   -0.127857  -0.174291   0.167228   0.027167
    4  O  1  Y   -0.588336   0.113948   0.627623   0.232904
    5  O  1  Z    0.315948   0.008481  -0.177362  -0.207505
    6  C  2  S    0.038662   0.014187   0.036926  -0.199842
    7  C  2  S   -0.256617  -0.102912  -0.284057   1.429363
    8  C  2  X   -0.166169   1.085438  -0.341566  -0.028346
    9  C  2  Y   -0.758745  -0.306337  -0.549910  -0.431237
   10  C  2  Z    0.036148  -0.210998  -0.699060   0.171479
   11  H  3  S   -0.680429   0.035678  -0.454064  -1.009056
   12  H  4  S    0.338474  -0.809123   0.714030  -0.628609
   13  H  5  S    0.386653   0.973126   0.542660  -0.522742
   14  H  6  S    0.882930  -0.076223  -0.660997  -0.168164
 ...... END OF RHF CALCULATION ......
 STEP CPU TIME =     0.07 TOTAL CPU TIME =        0.3 (    0.0 MIN)
 TOTAL WALL CLOCK TIME=        0.8 SECONDS, CPU UTILIZATION IS  38.96%

     ----------------------------------------------------------------
     PROPERTY VALUES FOR THE RHF   SELF-CONSISTENT FIELD WAVEFUNCTION
     ----------------------------------------------------------------

          -----------------
          ENERGY COMPONENTS
          -----------------

         WAVEFUNCTION NORMALIZATION =       1.0000000000

                ONE ELECTRON ENERGY =    -235.4115565857
                TWO ELECTRON ENERGY =      81.2557125677
           NUCLEAR REPULSION ENERGY =      39.9663121083
                                      ------------------
                       TOTAL ENERGY =    -114.1895319097

 ELECTRON-ELECTRON POTENTIAL ENERGY =      81.2557125677
  NUCLEUS-ELECTRON POTENTIAL ENERGY =    -349.7828059816
   NUCLEUS-NUCLEUS POTENTIAL ENERGY =      39.9663121083
                                      ------------------
             TOTAL POTENTIAL ENERGY =    -228.5607813056
               TOTAL KINETIC ENERGY =     114.3712493959
                 VIRIAL RATIO (V/T) =       1.9984111611

          ---------------------------------------
          MULLIKEN AND LOWDIN POPULATION ANALYSES
          ---------------------------------------

     ATOMIC MULLIKEN POPULATION IN EACH MOLECULAR ORBITAL

                      1          2          3          4          5

                  2.000000   2.000000   2.000000   2.000000   2.000000

    1             2.002741  -0.000895   1.530232   0.292607   0.844786
    2            -0.001301   2.006088   0.271340   1.010077   0.583376
    3             0.000004  -0.001753   0.008838   0.214024   0.062955
    4             0.000001  -0.001699   0.009103   0.195865   0.096879
    5             0.000001  -0.001704   0.009518   0.208237   0.124797
    6            -0.001446  -0.000037   0.170969   0.079191   0.287208

                      6          7          8          9

                  2.000000   2.000000   2.000000   2.000000

    1             0.504533   0.687739   1.167353   1.471448
    2             0.919047   0.836496   0.364203   0.193915
    3             0.000003   0.401992   0.173450   0.000085
    4             0.297138   0.001977   0.088624   0.172833
    5             0.278873   0.001626   0.097588   0.161654
    6             0.000405   0.070169   0.108782   0.000064

               ----- POPULATIONS IN EACH AO -----
                             MULLIKEN      LOWDIN
              1  O  1  S      1.99550     1.99511
              2  O  1  S      1.79996     1.65189
              3  O  1  X      1.93637     1.93567
              4  O  1  Y      1.35844     1.36118
              5  O  1  Z      1.41028     1.42395
              6  C  2  S      1.98826     1.98552
              7  C  2  S      1.16291     1.01709
              8  C  2  X      1.11775     1.11541
              9  C  2  Y      1.09613     1.09832
             10  C  2  Z      0.81820     0.86856
             11  H  3  S      0.85960     0.91101
             12  H  4  S      0.86072     0.91439
             13  H  5  S      0.88059     0.92924
             14  H  6  S      0.71530     0.79264

          ----- MULLIKEN ATOMIC OVERLAP POPULATIONS -----
          (OFF-DIAGONAL ELEMENTS NEED TO BE MULTIPLIED BY 2)

             1           2           3           4           5

    1    7.9934773
    2    0.2606985   4.7930839
    3   -0.0195559   0.3926746   0.5118401
    4   -0.0173355   0.3911880  -0.0133898   0.5182164
    5   -0.0177712   0.3910880  -0.0138012  -0.0161965   0.5390155
    6    0.3010313  -0.0454903   0.0018300  -0.0017615  -0.0017445

             6

    6    0.4614390

          TOTAL MULLIKEN AND LOWDIN ATOMIC POPULATIONS
       ATOM         MULL.POP.    CHARGE          LOW.POP.     CHARGE
    1 O             8.500545   -0.500545         8.367808   -0.367808
    2 C             6.183243   -0.183243         6.084901   -0.084901
    3 H             0.859598    0.140402         0.911014    0.088986
    4 H             0.860721    0.139279         0.914393    0.085607
    5 H             0.880590    0.119410         0.929239    0.070761
    6 H             0.715304    0.284696         0.792645    0.207355

          -------------------------------
          BOND ORDER AND VALENCE ANALYSIS     BOND ORDER THRESHOLD=0.050
          -------------------------------

                   BOND                       BOND                       BOND
  ATOM PAIR DIST  ORDER      ATOM PAIR DIST  ORDER      ATOM PAIR DIST  ORDER
    1   2  1.435  0.956        1   6  0.966  0.901        2   3  1.097  0.967
    2   4  1.103  0.961        2   5  1.103  0.965

                       TOTAL       BONDED        FREE
      ATOM            VALENCE     VALENCE     VALENCE
    1 O                 1.899       1.899       0.000
    2 C                 3.860       3.860       0.000
    3 H                 0.980       0.980       0.000
    4 H                 0.981       0.981       0.000
    5 H                 0.986       0.986       0.000
    6 H                 0.919       0.919       0.000

          ---------------------
          ELECTROSTATIC MOMENTS
          ---------------------

 POINT   1           X           Y           Z (BOHR)    CHARGE
                -3.135321    1.435455    1.320122        0.00 (A.U.)
         DX          DY          DZ         /D/  (DEBYE)
     0.545699    1.042932    1.644866    2.022642
 ...... END OF PROPERTY EVALUATION ......
 STEP CPU TIME =     0.00 TOTAL CPU TIME =        0.3 (    0.0 MIN)
 TOTAL WALL CLOCK TIME=        0.8 SECONDS, CPU UTILIZATION IS  38.46%

 Iter=  1 iFrag=      4 EFMO=  -114.272127116, DD= 0.821124373, DE=************


 RHF      monomer      5 corr= NONE       , L1=    14, L0=    14 ID=      4


          ********************
          1 ELECTRON INTEGRALS
          ********************

          --------------------
          2 ELECTRON INTEGRALS
          --------------------

 DIRECT SCF METHOD SKIPS INTEGRAL STORAGE ON DISK.
 DIRECT TRANSFORMATION SKIPS AO INTEGRAL STORAGE ON DISK.
 ...... END OF ONE-ELECTRON INTEGRALS ......
 STEP CPU TIME =     0.00 TOTAL CPU TIME =        0.3 (    0.0 MIN)
 TOTAL WALL CLOCK TIME=        0.8 SECONDS, CPU UTILIZATION IS  37.50%

          --------------------
          2 ELECTRON INTEGRALS
          --------------------

 DIRECT SCF METHOD SKIPS INTEGRAL STORAGE ON DISK.
 DIRECT TRANSFORMATION SKIPS AO INTEGRAL STORAGE ON DISK.

          --------------------------
                 RHF SCF CALCULATION
          --------------------------

     NUCLEAR ENERGY =        39.9660715719
     MAXIT =   90     NPUNCH=   -2
     EXTRAP=T  DAMP=T  SHIFT=F  RSTRCT=F  DIIS=F  DEM=F  SOSCF=T
     DENSITY MATRIX CONV=  2.00E-07
     SOSCF WILL OPTIMIZE      45 ORBITAL ROTATIONS, SOGTOL=   0.250
     MEMORY REQUIRED FOR RHF ITERS=     46214 WORDS.

 DIRECT SCF CALCULATION, SCHWRZ=T   FDIFF=F,  DIRTHR=  0.00E+00 NITDIR=10
 SCHWARZ INEQUALITY OVERHEAD:       105 INTEGRALS, T=        0.00

                                                                                                                   NONZERO     BLOCKS
 ITER EX DEM     TOTAL ENERGY        E CHANGE  DENSITY CHANGE     ORB. GRAD      VIR. SHIFT       DAMPING        INTEGRALS    SKIPPED
   1  0  0     -113.9336335689  -113.9336335689   0.572279959   0.000000000     0.000000000     1.000000000           5351         15
          ---------------START SECOND ORDER SCF---------------
   2  1  0     -114.1327789298    -0.1991453609   0.158273562   0.043289729     0.000000000     0.000000000           5357         10
   3  2  0     -114.1440654815    -0.0112865516   0.076681756   0.011761568     0.000000000     0.000000000           5357         10
   4  3  0     -114.1452905674    -0.0012250859   0.004844264   0.001638663     0.000000000     0.000000000           5357         10
   5  4  0     -114.1453156798    -0.0000251124   0.002691316   0.000645440     0.000000000     0.000000000           5357         10
   6  5  0     -114.1453197654    -0.0000040857   0.000094210   0.000040185     0.000000000     0.000000000           5357         10
   7  6  0     -114.1453197804    -0.0000000150   0.000028986   0.000009691     0.000000000     0.000000000           5357         10
   8  7  0     -114.1453197815    -0.0000000011   0.000002312   0.000001337     0.000000000     0.000000000           5357         10
   9  8  0     -114.1453197815    -0.0000000000   0.000000884   0.000000298     0.000000000     0.000000000           5357         10
  10  9  0     -114.1453197815    -0.0000000000   0.000000211   0.000000082     0.000000000     0.000000000           5357         10
  11 10  0     -114.1453197815    -0.0000000000   0.000000095   0.000000029     0.000000000     0.000000000           5357         10

          -----------------
          DENSITY CONVERGED
          -----------------
     TIME TO FORM FOCK OPERATORS=       0.1 SECONDS (       0.0 SEC/ITER)
     FOCK TIME ON FIRST ITERATION=       0.0, LAST ITERATION=       0.0
     TIME TO SOLVE SCF EQUATIONS=       0.0 SECONDS (       0.0 SEC/ITER)

 FINAL RHF ENERGY IS     -114.1453197815 AFTER  11 ITERATIONS

          ------------
          EIGENVECTORS
          ------------

                      1          2          3          4          5
                  -20.2837   -11.2045    -1.3108    -0.9088    -0.6442
                     A          A          A          A          A   
    1  O  1  S    0.990253   0.000901  -0.213264   0.070274   0.038980
    2  O  1  S    0.048724  -0.007679   0.799949  -0.298632  -0.188372
    3  O  1  X   -0.000727   0.004037  -0.021740  -0.151866   0.265476
    4  O  1  Y    0.007510  -0.002318   0.117987   0.034115   0.311598
    5  O  1  Z   -0.000730  -0.003323  -0.000528   0.133456  -0.318117
    6  C  2  S    0.000775   0.988541  -0.079995  -0.192351  -0.009198
    7  C  2  S   -0.008771   0.060293   0.203766   0.591416   0.028385
    8  C  2  X   -0.005674  -0.001063   0.069784  -0.076755  -0.029080
    9  C  2  Y    0.004964   0.000318  -0.054163   0.056922   0.426106
   10  C  2  Z    0.004348   0.000922  -0.054949   0.060007  -0.062405
   11  H  3  S    0.000512  -0.012745   0.028153   0.197239  -0.168772
   12  H  4  S    0.000204  -0.012536   0.029482   0.194574   0.172956
   13  H  5  S    0.000203  -0.012541   0.029613   0.195734   0.180591
   14  H  6  S   -0.012447  -0.002409   0.134551  -0.135316   0.283625

                      6          7          8          9         10
                   -0.6043    -0.5558    -0.4643    -0.4122     0.5292
                     A          A          A          A          A   
    1  O  1  S    0.000271   0.019789   0.065664   0.002797  -0.112839
    2  O  1  S   -0.000715  -0.118421  -0.368529  -0.015325   0.801278
    3  O  1  X    0.289829  -0.369056  -0.067922   0.609634  -0.350706
    4  O  1  Y    0.055832   0.284530   0.699192   0.150803   0.613191
    5  O  1  Z    0.297241   0.288265  -0.109779   0.653428   0.211766
    6  C  2  S   -0.000396  -0.007533  -0.012018  -0.000551   0.072053
    7  C  2  S    0.001664   0.023000   0.027842   0.001523  -0.413553
    8  C  2  X    0.362732   0.389108   0.025869  -0.172504  -0.671795
    9  C  2  Y    0.081909   0.088942  -0.365507  -0.047202   0.425400
   10  C  2  Z    0.394807  -0.371339   0.061513  -0.189188   0.546684
   11  H  3  S   -0.000484  -0.342140   0.269564   0.007432  -0.132644
   12  H  4  S    0.309393   0.018898  -0.177703  -0.268505  -0.038502
   13  H  5  S   -0.303167   0.011499  -0.198958   0.256904  -0.037087
   14  H  6  S    0.003896  -0.194636   0.226481   0.007082  -0.411266

                     11         12         13         14
                    0.6490     0.6853     0.7201     0.7374
                     A          A          A          A   
    1  O  1  S   -0.041529  -0.000626   0.040098   0.001146
    2  O  1  S    0.307183   0.004180  -0.274239   0.017782
    3  O  1  X    0.349149  -0.132275  -0.403682   0.362964
    4  O  1  Y    0.122151  -0.025294  -0.319743   0.078674
    5  O  1  Z   -0.347167  -0.150124   0.435188  -0.355298
    6  C  2  S   -0.036214   0.001506  -0.087271  -0.184562
    7  C  2  S    0.249320  -0.010819   0.641807   1.313669
    8  C  2  X    0.340713   0.785754  -0.204063  -0.247209
    9  C  2  Y    0.674948   0.159478   0.746514  -0.338861
   10  C  2  Z   -0.458229   0.829945   0.060915   0.304150
   11  H  3  S    0.768727   0.012342   0.026159  -1.041587
   12  H  4  S   -0.461683  -0.891198  -0.695065  -0.418109
   13  H  5  S   -0.475763   0.899295  -0.680828  -0.407157
   14  H  6  S   -0.767953  -0.009310   0.769680  -0.411459
 ...... END OF RHF CALCULATION ......
 STEP CPU TIME =     0.08 TOTAL CPU TIME =        0.4 (    0.0 MIN)
 TOTAL WALL CLOCK TIME=        0.9 SECONDS, CPU UTILIZATION IS  41.30%

     ----------------------------------------------------------------
     PROPERTY VALUES FOR THE RHF   SELF-CONSISTENT FIELD WAVEFUNCTION
     ----------------------------------------------------------------

          -----------------
          ENERGY COMPONENTS
          -----------------

         WAVEFUNCTION NORMALIZATION =       1.0000000000

                ONE ELECTRON ENERGY =    -235.4454617844
                TWO ELECTRON ENERGY =      81.3340704310
           NUCLEAR REPULSION ENERGY =      39.9660715719
                                      ------------------
                       TOTAL ENERGY =    -114.1453197815

 ELECTRON-ELECTRON POTENTIAL ENERGY =      81.3340704310
  NUCLEUS-ELECTRON POTENTIAL ENERGY =    -349.8552564810
   NUCLEUS-NUCLEUS POTENTIAL ENERGY =      39.9660715719
                                      ------------------
             TOTAL POTENTIAL ENERGY =    -228.5551144782
               TOTAL KINETIC ENERGY =     114.4097946967
                 VIRIAL RATIO (V/T) =       1.9976883543

          ---------------------------------------
          MULLIKEN AND LOWDIN POPULATION ANALYSES
          ---------------------------------------

     ATOMIC MULLIKEN POPULATION IN EACH MOLECULAR ORBITAL

                      1          2          3          4          5

                  2.000000   2.000000   2.000000   2.000000   2.000000

    1             2.002741  -0.000892   1.529311   0.287965   0.802777
    2            -0.001305   2.006090   0.284870   1.011205   0.627396
    3             0.000004  -0.001753   0.009771   0.215302   0.101248
    4             0.000001  -0.001703   0.010190   0.207669   0.106088
    5             0.000001  -0.001704   0.010242   0.209512   0.115242
    6            -0.001443  -0.000037   0.155615   0.068347   0.247249

                      6          7          8          9

                  2.000000   2.000000   2.000000   2.000000

    1             0.450448   0.752076   1.178237   1.524415
    2             0.939669   0.803057   0.347660   0.163414
    3             0.000001   0.358659   0.179852   0.000122
    4             0.311792   0.000535   0.080512   0.163245
    5             0.298045   0.000070   0.100358   0.148691
    6             0.000045   0.085603   0.113381   0.000113

               ----- POPULATIONS IN EACH AO -----
                             MULLIKEN      LOWDIN
              1  O  1  S      1.99546     1.99506
              2  O  1  S      1.79724     1.64806
              3  O  1  X      1.54191     1.54963
              4  O  1  Y      1.59152     1.59054
              5  O  1  Z      1.60094     1.60497
              6  C  2  S      1.98825     1.98550
              7  C  2  S      1.16104     1.01605
              8  C  2  X      0.97360     0.99741
              9  C  2  Y      1.03084     1.04413
             10  C  2  Z      1.02833     1.04254
             11  H  3  S      0.86321     0.91389
             12  H  4  S      0.87833     0.92770
             13  H  5  S      0.88046     0.92926
             14  H  6  S      0.66887     0.75527

          ----- MULLIKEN ATOMIC OVERLAP POPULATIONS -----
          (OFF-DIAGONAL ELEMENTS NEED TO BE MULTIPLIED BY 2)

             1           2           3           4           5

    1    8.0169917
    2    0.2630154   4.7880457
    3   -0.0197092   0.3926917   0.5162457
    4   -0.0176563   0.3911617  -0.0138802   0.5371068
    5   -0.0176998   0.3912851  -0.0138960  -0.0167056   0.5391712
    6    0.3021376  -0.0441441   0.0017536  -0.0016970  -0.0016983

             6

    6    0.4125215

          TOTAL MULLIKEN AND LOWDIN ATOMIC POPULATIONS
       ATOM         MULL.POP.    CHARGE          LOW.POP.     CHARGE
    1 O             8.527079   -0.527079         8.388259   -0.388259
    2 C             6.182055   -0.182055         6.085620   -0.085620
    3 H             0.863206    0.136794         0.913895    0.086105
    4 H             0.878329    0.121671         0.927700    0.072300
    5 H             0.880457    0.119543         0.929257    0.070743
    6 H             0.668873    0.331127         0.755269    0.244731

          -------------------------------
          BOND ORDER AND VALENCE ANALYSIS     BOND ORDER THRESHOLD=0.050
          -------------------------------

                   BOND                       BOND                       BOND
  ATOM PAIR DIST  ORDER      ATOM PAIR DIST  ORDER      ATOM PAIR DIST  ORDER
    1   2  1.435  0.967        1   6  0.966  0.873        2   3  1.097  0.968
    2   4  1.103  0.964        2   5  1.103  0.965

                       TOTAL       BONDED        FREE
      ATOM            VALENCE     VALENCE     VALENCE
    1 O                 1.883       1.883      -0.000
    2 C                 3.875       3.875      -0.000
    3 H                 0.981       0.981      -0.000
    4 H                 0.985       0.985      -0.000
    5 H                 0.986       0.986       0.000
    6 H                 0.890       0.890      -0.000

          ---------------------
          ELECTROSTATIC MOMENTS
          ---------------------

 POINT   1           X           Y           Z (BOHR)    CHARGE
                -3.135321    1.435455    1.320122       -0.00 (A.U.)
         DX          DY          DZ         /D/  (DEBYE)
    -0.131237    2.033021   -0.252940    2.052894
 ...... END OF PROPERTY EVALUATION ......
 STEP CPU TIME =     0.00 TOTAL CPU TIME =        0.4 (    0.0 MIN)
 TOTAL WALL CLOCK TIME=        0.9 SECONDS, CPU UTILIZATION IS  41.30%

 Iter=  1 iFrag=      5 EFMO=  -114.271675980, DD= 0.808730004, DE=************


 RHF      monomer      1 corr= NONE       , L1=    14, L0=    14 ID=      5


          ********************
          1 ELECTRON INTEGRALS
          ********************

          --------------------
          2 ELECTRON INTEGRALS
          --------------------

 DIRECT SCF METHOD SKIPS INTEGRAL STORAGE ON DISK.
 DIRECT TRANSFORMATION SKIPS AO INTEGRAL STORAGE ON DISK.
 ...... END OF ONE-ELECTRON INTEGRALS ......
 STEP CPU TIME =     0.01 TOTAL CPU TIME =        0.4 (    0.0 MIN)
 TOTAL WALL CLOCK TIME=        0.9 SECONDS, CPU UTILIZATION IS  41.05%

          --------------------
          2 ELECTRON INTEGRALS
          --------------------

 DIRECT SCF METHOD SKIPS INTEGRAL STORAGE ON DISK.
 DIRECT TRANSFORMATION SKIPS AO INTEGRAL STORAGE ON DISK.

          --------------------------
                 RHF SCF CALCULATION
          --------------------------

     NUCLEAR ENERGY =        39.9661397880
     MAXIT =   90     NPUNCH=   -2
     EXTRAP=T  DAMP=T  SHIFT=F  RSTRCT=F  DIIS=F  DEM=F  SOSCF=T
     DENSITY MATRIX CONV=  2.00E-07
     SOSCF WILL OPTIMIZE      45 ORBITAL ROTATIONS, SOGTOL=   0.250
     MEMORY REQUIRED FOR RHF ITERS=     46214 WORDS.

 DIRECT SCF CALCULATION, SCHWRZ=T   FDIFF=F,  DIRTHR=  0.00E+00 NITDIR=10
 SCHWARZ INEQUALITY OVERHEAD:       105 INTEGRALS, T=        0.00

                                                                                                                   NONZERO     BLOCKS
 ITER EX DEM     TOTAL ENERGY        E CHANGE  DENSITY CHANGE     ORB. GRAD      VIR. SHIFT       DAMPING        INTEGRALS    SKIPPED
   1  0  0     -113.8092581465  -113.8092581465   0.572627144   0.000000000     0.000000000     1.000000000           5348         15
          ---------------START SECOND ORDER SCF---------------
   2  1  0     -114.0077861146    -0.1985279681   0.164389678   0.045950801     0.000000000     0.000000000           5355         10
   3  2  0     -114.0195356844    -0.0117495698   0.080421245   0.012402378     0.000000000     0.000000000           5355         10
   4  3  0     -114.0208422928    -0.0013066084   0.003593539   0.001730854     0.000000000     0.000000000           5355         10
   5  4  0     -114.0208704198    -0.0000281270   0.002264866   0.000723257     0.000000000     0.000000000           5355         10
   6  5  0     -114.0208750518    -0.0000046319   0.000127155   0.000048582     0.000000000     0.000000000           5355         10
   7  6  0     -114.0208750708    -0.0000000190   0.000030735   0.000011485     0.000000000     0.000000000           5355         10
[...]
     TIME TO SOLVE SCF EQUATIONS=       0.0 SECONDS (       0.0 SEC/ITER)

 FINAL RHF ENERGY IS     -227.6507677026 AFTER  12 ITERATIONS
 ...... END OF RHF CALCULATION ......
 STEP CPU TIME =     0.46 TOTAL CPU TIME =      131.8 (    2.2 MIN)
 TOTAL WALL CLOCK TIME=      194.0 SECONDS, CPU UTILIZATION IS  67.93%

          ---------------------
          ELECTROSTATIC MOMENTS
          ---------------------

 POINT   1           X           Y           Z (BOHR)    CHARGE
                -5.047634    3.399252    2.157817        0.00 (A.U.)
         DX          DY          DZ         /D/  (DEBYE)
     1.357351   -0.045635   -3.096922    3.381629
 Redoing 1e ESP:                    -1

  iFrag=      5 jFrag=      3 EFMOu=  -228.425246635 Tr=-0.001282046

 RHF      dimer      5      4 corr= NONE       , LL1=    28 ID=             9

 DIRECT SCF CALCULATION, SCHWRZ=T   FDIFF=F,  DIRTHR=  0.00E+00 NITDIR=10

                                                                                                                   NONZERO     BLOCKS
 ITER EX DEM     TOTAL ENERGY        E CHANGE  DENSITY CHANGE     ORB. GRAD      VIR. SHIFT       DAMPING        INTEGRALS    SKIPPED
   1  0  0     -227.8740038643  -227.8740038643   0.015363244   0.000000000     0.000000000     1.000000000          66789       4479
          ---------------START SECOND ORDER SCF---------------
   2  1  0     -227.8739500252     0.0000538391   0.001764905   0.000439374     0.000000000     0.000000000          66790       4478
   3  2  0     -227.8739517593    -0.0000017341   0.000302156   0.000064712     0.000000000     0.000000000          66790       4478
   4  3  0     -227.8739517985    -0.0000000391   0.000013096   0.000004507     0.000000000     0.000000000          66790       4478
   5  4  0     -227.8739517988    -0.0000000003   0.000004551   0.000001202     0.000000000     0.000000000          66790       4478
   6  5  0     -227.8739517988    -0.0000000000   0.000000836   0.000000311     0.000000000     0.000000000          66790       4478
   7  6  0     -227.8739517988     0.0000000000   0.000000220   0.000000061     0.000000000     0.000000000          66790       4478
   8  7  0     -227.8739517988    -0.0000000000   0.000000093   0.000000020     0.000000000     0.000000000          66790       4478

          -----------------
          DENSITY CONVERGED
          -----------------
     TIME TO FORM FOCK OPERATORS=       0.2 SECONDS (       0.0 SEC/ITER)
     FOCK TIME ON FIRST ITERATION=       0.0, LAST ITERATION=       0.0
     TIME TO SOLVE SCF EQUATIONS=       0.0 SECONDS (       0.0 SEC/ITER)

 FINAL RHF ENERGY IS     -227.8739517988 AFTER   8 ITERATIONS
 ...... END OF RHF CALCULATION ......
 STEP CPU TIME =     0.25 TOTAL CPU TIME =      132.0 (    2.2 MIN)
 TOTAL WALL CLOCK TIME=      194.3 SECONDS, CPU UTILIZATION IS  67.96%

          ---------------------
          ELECTROSTATIC MOMENTS
          ---------------------

 POINT   1           X           Y           Z (BOHR)    CHARGE
                -5.047634    3.399252    2.157817        0.00 (A.U.)
         DX          DY          DZ         /D/  (DEBYE)
     2.184658    0.341108   -1.665540    2.768232
 Redoing 1e ESP:                    -1

  iFrag=      5 jFrag=      4 EFMOu=  -228.543847789 Tr= 0.000027219

 RHF      dimer      2      1 corr= NONE       , LL1=    28 ID=            10

 DIRECT SCF CALCULATION, SCHWRZ=T   FDIFF=F,  DIRTHR=  0.00E+00 NITDIR=10

                                                                                                                   NONZERO     BLOCKS
 ITER EX DEM     TOTAL ENERGY        E CHANGE  DENSITY CHANGE     ORB. GRAD      VIR. SHIFT       DAMPING        INTEGRALS    SKIPPED
   1  0  0     -229.2226594911  -229.2226594911   0.109095096   0.000000000     0.000000000     1.000000000          78986       1496
          ---------------START SECOND ORDER SCF---------------
   2  1  0     -229.1988007353     0.0238587558   0.010718620   0.003290387     0.000000000     0.000000000          78993       1487
   3  2  0     -229.1989363047    -0.0001355694   0.004040560   0.001034477     0.000000000     0.000000000          78993       1486
   4  3  0     -229.1989455133    -0.0000092086   0.000340745   0.000128459     0.000000000     0.000000000          78995       1486
   5  4  0     -229.1989457175    -0.0000002042   0.000123385   0.000026880     0.000000000     0.000000000          78995       1486
   6  5  0     -229.1989457406    -0.0000000231   0.000016770   0.000006593     0.000000000     0.000000000          78995       1486
   7  6  0     -229.1989457412    -0.0000000006   0.000007000   0.000002270     0.000000000     0.000000000          78995       1486
   8  7  0     -229.1989457412    -0.0000000001   0.000001337   0.000000378     0.000000000     0.000000000          78995       1486
   9  8  0     -229.1989457412    -0.0000000000   0.000000393   0.000000125     0.000000000     0.000000000          78995       1486
  10  9  0     -229.1989457412    -0.0000000000   0.000000071   0.000000023     0.000000000     0.000000000          78995       1486

          -----------------
          DENSITY CONVERGED
          -----------------
     TIME TO FORM FOCK OPERATORS=       0.4 SECONDS (       0.0 SEC/ITER)
     FOCK TIME ON FIRST ITERATION=       0.0, LAST ITERATION=       0.0
     TIME TO SOLVE SCF EQUATIONS=       0.0 SECONDS (       0.0 SEC/ITER)

 FINAL RHF ENERGY IS     -229.1989457412 AFTER  10 ITERATIONS
 ...... END OF RHF CALCULATION ......
 STEP CPU TIME =     0.40 TOTAL CPU TIME =      132.4 (    2.2 MIN)
 TOTAL WALL CLOCK TIME=      194.7 SECONDS, CPU UTILIZATION IS  68.00%

          ---------------------
          ELECTROSTATIC MOMENTS
          ---------------------

 POINT   1           X           Y           Z (BOHR)    CHARGE
                -5.047634    3.399252    2.157817        0.00 (A.U.)
         DX          DY          DZ         /D/  (DEBYE)
     2.033962    1.156935   -1.965427    3.055880
 Redoing 1e ESP:                    -1

  iFrag=      2 jFrag=      1 EFMOu=  -228.542939799 Tr=-0.000032096
 STEP CPU TIME =     0.00 TOTAL CPU TIME =      132.4 (    2.2 MIN)
 TOTAL WALL CLOCK TIME=      194.7 SECONDS, CPU UTILIZATION IS  68.00%

 Dimer synchronisation for layer 1 took     0.0 s.
 STEP CPU TIME =     0.00 TOTAL CPU TIME =      132.4 (    2.2 MIN)
 TOTAL WALL CLOCK TIME=      194.7 SECONDS, CPU UTILIZATION IS  68.00%
 STEP CPU TIME =     0.00 TOTAL CPU TIME =      132.4 (    2.2 MIN)
 TOTAL WALL CLOCK TIME=      194.7 SECONDS, CPU UTILIZATION IS  68.00%


         FMO properties
         ###############


 Layer 1 converged in  8 iterations (max 40, conv .10E-06).


 Nuclear repulsion energy:            604.788726450
 Total number of atoms:                    30
 Total number of electrons:                90
 Total charge:                              0
 Total spin multiplicity:                   1
 Total number of basis functions:          70
 Total number of molecular orbitals:       70

 Energy values (E) are given with external ESP subtracted.

 D(dipole), Q(quadrupole) and O(octopole) moments are printed in the order:
 X,Y,Z; XX,YY,ZZ,XY,XZ,YZ; XXX,XXY,XXZ,XYY,YYY,YYZ,XZZ,YZZ,ZZZ,XYZ,
 computed at the point:   -5.04763445   3.39925164   2.15781720

 One-body FMO properties.
 =======================

                            E"          DX        DY        DZ
    1(frg00001,L1)   -114.272080093   0.92265  -0.69693  -1.65721
    2(frg00002,L1)   -114.272082063   1.17664   1.69936  -0.10679
    3(frg00003,L1)   -114.270072387   1.02137  -1.58417  -0.58002
    4(frg00004,L1)   -114.271928998   1.79494  -0.87083  -0.01173
    5(frg00005,L1)   -114.271551015   0.40399   1.21420  -1.65023

 Frontier molecular orbital (FMO!) properties based on Koopmans' theorem.
 Electronegativity = - chemical potential. All values are in eV.

  Frag  Ionization    Electron    Chemical    Global       Global  Electrophili-
         potential    affinity    potential  hardness     softness  city index
 EA and related properties are often very inaccurate.
 -------------------------------------------------------------------------------
     1   11.610824   13.987461  -12.799143   -2.376637   -0.420763    -34.464258
     2   12.328556   13.318868  -12.823712   -0.990311   -1.009783    -83.028228
     3   10.022523   15.523009  -12.772766   -5.500486   -0.181802    -14.829921
     4   11.039652   14.550515  -12.795084   -3.510864   -0.284830    -23.315369
     5   10.758745   14.788901  -12.773823   -4.030157   -0.248129    -20.243700

 Total energy of the molecule: Euncorr(1)=     -571.357714556
 Dipole moment D(xyz),DA(1)=    5.3195830   -0.2383627   -4.0059860    6.6635354

 Two-body FMO properties.
 ========================

 DL: D=C dynamically correlated (MP2,CI), D=N not dynamically correlated
 (RHF,DFT). D=S separated dimer: semiclassical interaction (ES), D=M MCSCF.
 L stands for layer, Z is the monomer charge product, R is the interfragment
 distance relative to van-der-Waals radii (-1.00 is printed if distances are
 not computed). dDIJ*VIJ is the explicit embedded charge transfer energy.
 Q(I->J) is the charge transfer amount, printed as zero if not available.
 Positive values correspond to I in IJ having extra negative charge.

    I    J DL  Z    R   Q(I->J)        E"        E"IJ-E"I-E"J   dDIJ*VIJ      Gsol     tot
 ------------------------------------------------------------------------------------------
    2    1 N1  0   0.74  0.0000   -228.542939799   0.00122236 -0.00003210    0.000    0.747
    3    1 N1  0   1.19  0.0000   -228.544825950  -0.00267347 -0.00004404    0.000   -1.705
    3    2 N1  0   1.89  0.0000   -228.542762876  -0.00060843  0.00001956    0.000   -0.370
    4    1 N1  0   1.33  0.0000   -228.542702205   0.00130689  0.00008571    0.000    0.874
    4    2 N1  0   0.72  0.0000   -228.551077930  -0.00706687  0.00021427    0.000   -4.300
    4    3 N1  0   2.15  0.0000   -228.541709464   0.00029192  0.00003494    0.000    0.205
    5    1 N1  0   0.74  0.0000   -228.548601143  -0.00497003  0.00020945    0.000   -2.987
    5    2 N1  0   1.15  0.0000   -228.543895990  -0.00026291  0.00000217    0.000   -0.164
    5    3 N1  0   0.49  0.0000   -228.425246635   0.11637677 -0.00128205    0.000   72.223
    5    4 N1  0   1.16  0.0000   -228.543847789  -0.00036778  0.00002722    0.000   -0.214

 Total energy of the molecule: Euncorr(2)=     -571.255230980
 Dipole moment D(xyz),DA(2)=    5.7120162    0.3063243   -5.1237986    7.6794711

                ONE ELECTRON ENERGY =        -1987.7817353791
                TWO ELECTRON ENERGY =          811.7377779496
           NUCLEAR REPULSION ENERGY =          604.7887264497
                                      -----------------------
                       TOTAL ENERGY =         -571.2552309797

 ELECTRON-ELECTRON POTENTIAL ENERGY =          811.7377779496
  NUCLEUS-ELECTRON POTENTIAL ENERGY =        -2560.6466193482
   NUCLEUS-NUCLEUS POTENTIAL ENERGY =          604.7887264497
                                      -----------------------
             TOTAL POTENTIAL ENERGY =        -1144.1201149488
               TOTAL KINETIC ENERGY =          572.8648839692
                 VIRIAL RATIO (V/T) =            1.9971901699

 Done with FMO properties.
 STEP CPU TIME =     0.00 TOTAL CPU TIME =      132.4 (    2.2 MIN)
 TOTAL WALL CLOCK TIME=      194.7 SECONDS, CPU UTILIZATION IS  68.00%
 STEP CPU TIME =     0.00 TOTAL CPU TIME =      132.4 (    2.2 MIN)
 TOTAL WALL CLOCK TIME=      194.7 SECONDS, CPU UTILIZATION IS  68.00%
 Copied FMO -> GAMESS
 STEP CPU TIME =     0.00 TOTAL CPU TIME =      132.4 (    2.2 MIN)
 TOTAL WALL CLOCK TIME=      194.7 SECONDS, CPU UTILIZATION IS  68.00%
 STEP CPU TIME =     0.00 TOTAL CPU TIME =      132.4 (    2.2 MIN)
 TOTAL WALL CLOCK TIME=      194.7 SECONDS, CPU UTILIZATION IS  68.00%
 EPREV,E  -571.31502829361921       -571.25523097968278       
 APROP,XRAN  9.92010042655547178E-042  0.65878208700000007     
 WE SHOULD BE HERE ONLY IF IT WAS REJECTED
 MC NBLOCK ii at temp number                   20                    1
 Proximity alert between atom                    1 and atom                   11
 Proximity alert between atom                   16 and atom                   28

          -------------------------------
          STATISTICS FROM MONTE CARLO RUN
          -------------------------------

 AT TEMPERATURE =                  200.00
 NUMBER OF GEOMETRIES REJECTED 
  DUE TO PROXIMITY ALERT =          56
 NUMBER OF ENERGY EVALUATIONS =     24
 NUMBER OF ENERGIES REJECTED =      14
 NUMBER OF ENERGIES ACCEPTED =      10
 ACCEPTANCE RATIO =                  0.417
 MINIMUM ENERGY FOUND SO FAR =    -571.3150282936  AT GEOMETRY NUMBER     75



          ***GLOBAL OPTIMIZATION COMPLETE*** 

 TOTAL NUMBER OF GEOMETRIES =       80
 NUMBER OF GEOMETRIES REJECTED 
  DUE TO PROXIMITY ALERT =          56
 NUMBER OF ENERGY EVALUATIONS =     24
 NUMBER OF ENERGIES REJECTED =      14
 NUMBER OF ENERGIES ACCEPTED =      10
 ACCEPTANCE RATIO =                  0.417
 FINAL ENERGY FOUND =             -571.3150282936
 MINIMUM ENERGY FOUND =           -571.3150282936  AT GEOMETRY NUMBER     75


  COORDINATES OF FINAL GEOMETRY (ANGS):

   1  O           -1.0225109134049   1.6868250468516   1.3565761363547
   2  C           -0.2786103548044   0.4611214593771   1.3003002839312
   3  H           -0.3385520062898   0.0181692912992   2.3025707736756
   4  H           -0.7095974254694  -0.2481556674258   0.5737733968075
   5  H            0.7822268718395   0.6352311270346   1.0534117042140
   6  H           -0.9847500000000   2.0972700000000   0.4832000000000
   7  O           -2.0248100000000   2.7908000000000  -0.9631200000000
   8  C           -0.7512550890661   2.8835340450639  -1.6176064065984
   9  H           -0.5574577832393   1.8961667172963  -2.0556602606065
  10  H           -0.7583538395345   3.6339250000298  -2.4259992906265
  11  H            0.0591324202194   3.1208776334441  -0.9079613414787
  12  H           -2.2187967231597   3.6504471811579  -0.5681237349987
  13  O           -3.2560111289249   1.5478249752377   4.6300173340300
  14  C           -3.4244890655049   0.1237071430800   4.5808698629258
  15  H           -3.7627902935143  -0.1810454070859   5.5793734323210
  16  H           -4.1877118129108  -0.1745523513563   3.8425000686352
  17  H           -2.4774227036468  -0.3945654841960   4.3548120724091
  18  H           -2.9575476105787   1.8415827271208   3.7597851441375
  19  O           -4.2354988570923   1.2723474862587  -1.6617143608543
  20  C           -4.1041922137944  -0.1561999922604  -1.6915075419971
  21  H           -5.1248230010174  -0.5594784389112  -1.6871031419890
  22  H           -3.5908972542553  -0.5027301000569  -2.6042486986798
  23  H           -3.5690993797960  -0.5382414766580  -0.8058525129351
  24  H           -3.3475700000000   1.6521300000000  -1.6649800000000
  25  O           -3.4243257062572   2.3171873051531   2.6779165697952
  26  C           -4.3431335573993   3.1483607487831   1.9541325073955
  27  H           -5.3245877890561   3.0037137777367   2.4233657614706
  28  H           -4.0726437948577   4.2155622590453   2.0216481682033
  29  H           -4.4122279836199   2.8569671152142   0.8925483863854
  30  H           -2.5500424459490   2.4271347965121   2.2826668220551

  COORDINATES OF MINIMUM ENERGY GEOMETRY (ANGS):

   1  O           -1.0225109134049   1.6868250468516   1.3565761363547
   2  C           -0.2786103548044   0.4611214593771   1.3003002839312
   3  H           -0.3385520062898   0.0181692912992   2.3025707736756
   4  H           -0.7095974254694  -0.2481556674258   0.5737733968075
   5  H            0.7822268718395   0.6352311270346   1.0534117042140
   6  H           -0.9847500000000   2.0972700000000   0.4832000000000
   7  O           -2.0248100000000   2.7908000000000  -0.9631200000000
   8  C           -0.7512550890661   2.8835340450639  -1.6176064065984
   9  H           -0.5574577832393   1.8961667172963  -2.0556602606065
  10  H           -0.7583538395345   3.6339250000298  -2.4259992906265
  11  H            0.0591324202194   3.1208776334441  -0.9079613414787
  12  H           -2.2187967231597   3.6504471811579  -0.5681237349987
  13  O           -3.2560111289249   1.5478249752377   4.6300173340300
  14  C           -3.4244890655049   0.1237071430800   4.5808698629258
  15  H           -3.7627902935143  -0.1810454070859   5.5793734323210
  16  H           -4.1877118129108  -0.1745523513563   3.8425000686352
  17  H           -2.4774227036468  -0.3945654841960   4.3548120724091
  18  H           -2.9575476105787   1.8415827271208   3.7597851441375
  19  O           -4.2354988570923   1.2723474862587  -1.6617143608543
  20  C           -4.1041922137944  -0.1561999922604  -1.6915075419971
  21  H           -5.1248230010174  -0.5594784389112  -1.6871031419890
  22  H           -3.5908972542553  -0.5027301000569  -2.6042486986798
  23  H           -3.5690993797960  -0.5382414766580  -0.8058525129351
  24  H           -3.3475700000000   1.6521300000000  -1.6649800000000
  25  O           -3.4243257062572   2.3171873051531   2.6779165697952
  26  C           -4.3431335573993   3.1483607487831   1.9541325073955
  27  H           -5.3245877890561   3.0037137777367   2.4233657614706
  28  H           -4.0726437948577   4.2155622590453   2.0216481682033
  29  H           -4.4122279836199   2.8569671152142   0.8925483863854
  30  H           -2.5500424459490   2.4271347965121   2.2826668220551
 ..... END OF GLOBAL OPTIMIZATION .....
 STEP CPU TIME =     0.00 TOTAL CPU TIME =      132.4 (    2.2 MIN)
 TOTAL WALL CLOCK TIME=      194.7 SECONDS, CPU UTILIZATION IS  68.00%

 Total timing statistics in pairs (CPU,wall) for each rank, sec

    Rank   total     SCF    corr     DFT    CPHF     EFP    solv     ESP    geom
 -------------------------------------------------------------------------------
       1     132.4    128.8      0.0      0.0    0.0   0.0    0.0     0.0    0.0
       1     194.7    164.9      0.0      0.0    0.0   0.0    0.0     0.0    0.0
averaged     132.4    128.8      0.0      0.0    0.0   0.0    0.0     0.0    0.0
averaged     194.7    164.9      0.0      0.0    0.0   0.0    0.0     0.0    0.0

  FMO  timing statistics in pairs (CPU,wall) for each rank, sec

    Rank  FMOini FMOscf1  FMOdm1 FMOsyn1 FMOscf2  FMOes2 FMOsyn2 FMOscf3 FMOsyn3
 -------------------------------------------------------------------------------
       1    0.3      41.0    0.0    0.0      91.0       0.0    0.0    0.0    0.0
       1    3.5      84.5    0.0    0.0     106.1       0.0    0.0    0.0    0.0
averaged    0.3      41.0    0.0    0.0      91.0       0.0    0.0    0.0    0.0
averaged    3.5      84.5    0.0    0.0     106.1       0.0    0.0    0.0    0.0
               580000  WORDS OF DYNAMIC MEMORY USED
 EXECUTION OF GAMESS TERMINATED NORMALLY Mon Nov 28 20:09:26 2016
 DDI: 263640 bytes (0.3 MB / 0 MWords) used by master data server.

 ----------------------------------------
 CPU timing information for all processes
 ========================================
 0: 129.24 + 3.398 = 132.422
 ----------------------------------------
 ddikick.x: exited gracefully.
unset echo
----- accounting info -----
Files used on the master node compute-3-0 were:
-rw-rw-r-- 1 sarom sarom 6458513 Nov 29  2016 .//globop-fmo-pair.dat
-rw-rw-r-- 1 sarom sarom    2403 Nov 29  2016 .//globop-fmo-pair.F05
-rw-rw-r-- 1 sarom sarom   98160 Nov 29  2016 .//globop-fmo-pair.F10
-rw-rw-r-- 1 sarom sarom  180224 Nov 29  2016 .//globop-fmo-pair.F40
-rw-rw-r-- 1 sarom sarom    2403 Nov 28 17:27 .//globop-fmo-pair.inp
-rw-rw-r-- 1 sarom sarom 3741193 Nov 29  2016 .//globop-fmo-pair.log
-rw-rw-r-- 1 sarom sarom   21843 Nov 29  2016 .//globop-fmo-pair.trj
Mon Nov 28 20:09:29 CST 2016
0.208u 0.424s 3:18.53 0.3%	0+0k 0+136io 0pf+0w
