-catch_rsh /opt/gridengine/default/spool/compute-0-7/active_jobs/23568.1/pe_hostfile
compute-0-7
The primary node assigned by SGE to this run is compute-0-7
Warning: no access to tty (Bad file descriptor).
Thus no job control in this shell.
Deleting shmid=2523136.
Deleting shmid=2555905.
Deleting shmid=2785282.
source /home/sarom/gamess.github.2017-05-31.14.06/install.info
setenv GMS_PATH /home/sarom/gamess.github.2017-05-31.14.06
setenv GMS_BUILD_DIR /home/sarom/gamess.github.2017-05-31.14.06
setenv GMS_TARGET linux64
setenv GMS_FORTRAN gfortran
setenv GMS_GFORTRAN_VERNO 4.4
setenv GMS_MATHLIB mkl-so
setenv GMS_MATHLIB_PATH /share/apps/intel/compilers_and_libraries_2017.1.132/linux/mkl/lib/intel64
setenv GMS_MKL_VERNO 12
setenv GMS_DDI_COMM sockets
setenv GMS_LIBCCHEM false
setenv GMS_EIGEN_PATH
setenv GMS_PHI false
setenv GMS_SHMTYPE sysv
setenv GMS_OPENMP false
unset echo
globop-ai-optn
tests/globop
----- GAMESS execution script 'rungms' -----
This job is running on host compute-0-7.local
under operating system Linux at Fri Jun 2 01:15:27 CDT 2017
Available scratch disk space (Kbyte units) at beginning of the job is
Filesystem           1K-blocks      Used Available Use% Mounted on
/dev/sda1             16126920   3867340  11440380  26% /
GAMESS temporary binary files will be written to /scratch
GAMESS supplementary output files will be written to /home/sarom/restart
Copying input file globop-ai-optn.inp to your run's scratch directory...
cp tests/globop/globop-ai-optn.inp /scratch/globop-ai-optn.F05
unset echo
The generated host list is
compute-0-7.local
/home/sarom/gamess.github.2017-05-31.14.06/ddikick.x /home/sarom/gamess.github.2017-05-31.14.06/gamess.00.x globop-ai-optn -ddi 1 1 compute-0-7.local -scr /scratch

 Distributed Data Interface kickoff program.
 Initiating 1 compute processes on 1 nodes to run the following command:
 /home/sarom/gamess.github.2017-05-31.14.06/gamess.00.x globop-ai-optn 

          ******************************************************
          *         GAMESS VERSION = 20 APR 2017 (R1)          *
          *             FROM IOWA STATE UNIVERSITY             *
          * M.W.SCHMIDT, K.K.BALDRIDGE, J.A.BOATZ, S.T.ELBERT, *
          *   M.S.GORDON, J.H.JENSEN, S.KOSEKI, N.MATSUNAGA,   *
          *          K.A.NGUYEN, S.J.SU, T.L.WINDUS,           *
          *       TOGETHER WITH M.DUPUIS, J.A.MONTGOMERY       *
          *         J.COMPUT.CHEM.  14, 1347-1363(1993)        *
          **************** 64 BIT LINUX VERSION ****************

  SINCE 1993, STUDENTS AND POSTDOCS WORKING AT IOWA STATE UNIVERSITY
  AND ALSO IN THEIR VARIOUS JOBS AFTER LEAVING ISU HAVE MADE IMPORTANT
  CONTRIBUTIONS TO THE CODE:
     IVANA ADAMOVIC, CHRISTINE AIKENS, YURI ALEXEEV, POOJA ARORA,
     ANDREY ASADCHEV, ROB BELL, PRADIPTA BANDYOPADHYAY, JONATHAN BENTZ,
     BRETT BODE, KURT BRORSEN, CALEB CARLIN, GALINA CHABAN, WEI CHEN,
     CHEOL HO CHOI, PAUL DAY, ALBERT DEFUSCO, NUWAN DESILVA, TIM DUDLEY,
     DMITRI FEDOROV, GRAHAM FLETCHER, MARK FREITAG, KURT GLAESEMANN,
     DAN KEMP, GRANT MERRILL, NORIYUKI MINEZAWA, JONATHAN MULLIN,
     TAKESHI NAGATA, SEAN NEDD, HEATHER NETZLOFF, BOSILJKA NJEGIC, RYAN OLSON,
     MIKE PAK, SPENCER PRUITT, LUKE ROSKOP, JIM SHOEMAKER, LYUDMILA SLIPCHENKO,
     TONY SMITH, SAROM SOK LEANG, JIE SONG, TETSUYA TAKETSUGU, SIMON WEBB,
     PENG XU, SOOHAENG YOO, FEDERICO ZAHARIEV

  ADDITIONAL CODE HAS BEEN PROVIDED BY COLLABORATORS IN OTHER GROUPS:
     IOWA STATE UNIVERSITY:
          JOE IVANIC, AARON WEST, LAIMUTIS BYTAUTAS, KLAUS RUEDENBERG
     UNIVERSITY OF TOKYO: KIMIHIKO HIRAO, TAKAHITO NAKAJIMA,
          TAKAO TSUNEDA, MUNEAKI KAMIYA, SUSUMU YANAGISAWA,
          KIYOSHI YAGI, MAHITO CHIBA, SEIKEN TOKURA, NAOAKI KAWAKAMI
     UNIVERSITY OF AARHUS: FRANK JENSEN
     UNIVERSITY OF IOWA: VISVALDAS KAIRYS, HUI LI
     NATIONAL INST. OF STANDARDS AND TECHNOLOGY: WALT STEVENS, DAVID GARMER
     UNIVERSITY OF PISA: BENEDETTA MENNUCCI, JACOPO TOMASI
     UNIVERSITY OF MEMPHIS: HENRY KURTZ, PRAKASHAN KORAMBATH
     UNIVERSITY OF ALBERTA: TOBY ZENG, MARIUSZ KLOBUKOWSKI
     UNIVERSITY OF NEW ENGLAND: MARK SPACKMAN
     MIE UNIVERSITY: HIROAKI UMEDA
     NAT. INST. OF ADVANCED INDUSTRIAL SCIENCE AND TECHNOLOGY: KAZUO KITAURA
     MICHIGAN STATE UNIVERSITY:
          KAROL KOWALSKI, MARTA WLOCH, JEFFREY GOUR, JESSE LUTZ,
          WEI LI, PIOTR PIECUCH
     UNIVERSITY OF SILESIA: MONIKA MUSIAL, STANISLAW KUCHARSKI
     FACULTES UNIVERSITAIRES NOTRE-DAME DE LA PAIX:
          OLIVIER QUINET, BENOIT CHAMPAGNE
     UNIVERSITY OF CALIFORNIA - SANTA BARBARA: BERNARD KIRTMAN
     INSTITUTE FOR MOLECULAR SCIENCE:
          KAZUYA ISHIMURA, MICHIO KATOUDA, AND SHIGERU NAGASE
     UNIVERSITY OF NOTRE DAME: ANNA POMOGAEVA, DAN CHIPMAN
     KYUSHU UNIVERSITY:
          HARUYUKI NAKANO,
          FENG LONG GU, JACEK KORCHOWIEC, MARCIN MAKOWSKI, AND YURIKO AOKI,
          HIROTOSHI MORI AND EISAKU MIYOSHI
     PENNSYLVANIA STATE UNIVERSITY:
          TZVETELIN IORDANOV, CHET SWALINA, JONATHAN SKONE,
          SHARON HAMMES-SCHIFFER
     WASEDA UNIVERSITY:
          MASATO KOBAYASHI, TOMOKO AKAMA, TSUGUKI TOUMA,
          TAKESHI YOSHIKAWA, YASUHIRO IKABATA, JUNJI SEINO,
          YUYA NAKAJIMA, HIROMI NAKAI
     NANJING UNIVERSITY: SHUHUA LI
     UNIVERSITY OF NEBRASKA:
          PEIFENG SU, DEJUN SI, NANDUN THELLAMUREGE, YALI WANG, HUI LI
     UNIVERSITY OF ZURICH: ROBERTO PEVERATI, KIM BALDRIDGE
     N. COPERNICUS UNIVERSITY AND JACKSON STATE UNIVERSITY:
          MARIA BARYSZ
     UNIVERSITY OF COPENHAGEN: Jimmy Kromann, CASPER STEINMANN
     TOKYO INSTITUTE OF TECHNOLOGY: HIROYA NAKATA
     NAGOYA UNIVERSITY: YOSHIO NISHIMOTO, STEPHAN IRLE
     MOSCOW STATE UNIVERSITY: VLADIMIR MIRONOV

 EXECUTION OF GAMESS BEGUN Fri Jun  2 01:15:27 2017

            ECHO OF THE FIRST FEW INPUT CARDS -
 INPUT CARD>!  Monte Carlo FMO test case                                                    
 INPUT CARD>!  This is a sample input file for finding the minima of a                      
 INPUT CARD>!  water pentamer using the Monte Carlo search.  In this input,                 
 INPUT CARD>!  the energy is calculated using RHF/MINI.  The system is                      
 INPUT CARD>!  segmented with each molecule as a group.                                     
 INPUT CARD>!                                                                               
 INPUT CARD>!  Since the Monte Carlo method involves random movements, it                   
 INPUT CARD>!  is impossible to predict the final geometry.  However, the                   
 INPUT CARD>!  lowest energy should be at geometry 0:                                       
 INPUT CARD>!  MINIMUM ENERGY FOUND =  -377.5693586933  AT GEOMETRY NUMBER      0           
 INPUT CARD>!                                                                               
 INPUT CARD>!  The output will include the line:                                            
 INPUT CARD>!  TOTAL NUMBER OF GEOMETRIES =     80                                          
 INPUT CARD>!                                                                               
 INPUT CARD>!  This run ends with an optimization from the lowest energy                    
 INPUT CARD>!  configuration.  The geometry may or may not be successful                    
 INPUT CARD>!  but is fine as long as it doesn't end in an error.                           
 INPUT CARD>!                                                                               
 INPUT CARD> $CONTRL SCFTYP=RHF RUNTYP=GLOBOP MAXIT=30 MULT=1 ISPHER=1 $END                 
 INPUT CARD> $SYSTEM TIMLIM=525600 MWORDS=100 MEMDDI=300 $END                               
 INPUT CARD> $BASIS GBASIS=MINI $END                                                        
 INPUT CARD> $GLOBOP MCTYP=1 NTRAN=2 NROT=2 NBLOCK=20 TEMPI=200 RNDINI=.f.                  
 INPUT CARD>       MCMIN=.f. JSTRND=.f. NAIFG=5 OPTN=.t. $END                               
 INPUT CARD> $GLBFRG AIFRG(1)=1,1,1,2,2,2,3,3,3,4,4,4,5,5,5 $END                            
 INPUT CARD> $SCF DIRSCF=.TRUE. $END                                                        
 INPUT CARD> $STATPT NSTEP=200 $END                                                         
 INPUT CARD> $DATA                                                                          
 INPUT CARD>Title                                                                           
 INPUT CARD>C1                                                                              
 INPUT CARD> O           8.0  -8.4842218050  -1.0134428881  -2.6103544458                   
 INPUT CARD> H           1.0  -7.9431282905  -0.9548804564  -3.4017310633                   
 INPUT CARD> H           1.0  -9.3795815081  -0.9953854603  -2.9158701607                   
 INPUT CARD> O           8.0  -6.7722426929  -0.6356938187  -4.8084057067                   
 INPUT CARD> H           1.0  -6.1666670105   0.0305407058  -4.4792179977                   
 INPUT CARD> H           1.0  -6.2160110020  -1.3435058030  -5.1018889899                   
 INPUT CARD> O           8.0  -5.0534821918   1.1074034668  -3.4162842435                   
 INPUT CARD> H           1.0  -4.9483311878   2.0428982759  -3.5108765185                   
 INPUT CARD> H           1.0  -5.4185226002   0.9826259040  -2.5388434650                   
 INPUT CARD> O           8.0  -6.9482438035  -2.1658491674  -0.4134561481                   
 INPUT CARD> H           1.0  -7.5481871183  -2.0309564574  -1.1416684693                   
 INPUT CARD> H           1.0  -7.4975727768  -2.4049872074   0.3190732586                   
 INPUT CARD> O           8.0  -6.5508921981   0.6499107013  -1.0545682936                   
 INPUT CARD> H           1.0  -6.3620775963  -0.1696437634  -0.6065866032                   
 INPUT CARD> H           1.0  -7.3819460459   0.4622486950  -1.4767871849                   
 INPUT CARD> $END                                                                           
  100000000 WORDS OF MEMORY AVAILABLE

     BASIS OPTIONS
     -------------
     GBASIS=MINI         IGAUSS=       0      POLAR=NONE    
     NDFUNC=       0     NFFUNC=       0     DIFFSP=       F
     NPFUNC=       0      DIFFS=       F     BASNAM=        


     RUN TITLE
     ---------
 Title                                                                           

 THE POINT GROUP OF THE MOLECULE IS C1      
 THE ORDER OF THE PRINCIPAL AXIS IS     0

 ATOM      ATOMIC                      COORDINATES (BOHR)
           CHARGE         X                   Y                   Z
 O           8.0   -16.0328544305       -1.9151293627       -4.9328546334
 H           1.0   -15.0103359544       -1.8044624136       -6.4283395936
 H           1.0   -17.7248389298       -1.8810057721       -5.5101956195
 O           8.0   -12.7976830119       -1.2012871294       -9.0865692235
 H           1.0   -11.6533109074        0.0577135654       -8.4644946549
 H           1.0   -11.7465575304       -2.5388578306       -9.6411722107
 O           8.0    -9.5496966263        2.0926891101       -6.4558411164
 H           1.0    -9.3509900414        3.8605179622       -6.6345945967
 H           1.0   -10.2395229727        1.8568937070       -4.7977184746
 O           8.0   -13.1302768845       -4.0928614571       -0.7813188278
 H           1.0   -14.2640053576       -3.8379511975       -2.1574405758
 H           1.0   -14.1683581212       -4.5447668260        0.6029610288
 O           8.0   -12.3793912295        1.2281531419       -1.9928451102
 H           1.0   -12.0225833696       -0.3205802284       -1.1462824679
 H           1.0   -13.9498552829        0.8735233717       -2.7907231216

          INTERNUCLEAR DISTANCES (ANGS.)
          ------------------------------

                1 O          2 H          3 H          4 O          5 H     

   1 O       0.0000000    0.9604628 *  0.9462214 *  2.8115825 *  3.1549347  
   2 H       0.9604628 *  0.0000000    1.5169375 *  1.8578447 *  2.2995320 *
   3 H       0.9462214 *  1.5169375 *  0.0000000    3.2418027    3.7174454  
   4 O       2.8115825 *  1.8578447 *  3.2418027    0.0000000    0.9586214 *
   5 H       3.1549347    2.2995320 *  3.7174454    0.9586214 *  0.0000000  
   6 H       3.3854787    2.4544858 *  3.8610937    0.9468495 *  1.5093568 *
   7 O       4.1130872    3.5501100    4.8360388    2.8161193 *  1.8784680 *
   8 H       4.7596937    4.2387970    5.4056618    3.4907149    2.5439360 *
   9 H       3.6589501    3.2972928    4.4434970    3.0987787    2.2871903 *
  10 O       2.9178127 *  3.3743188    3.6801446    4.6570305    4.6867270  
  11 H       2.0170606 *  2.5341273 *  2.7521272 *  3.9992261    4.1590390  
  12 H       3.3898995    4.0181730    3.9992240    5.4724349    5.5431674  
  13 O       2.9874703 *  3.1658884    3.7646948    3.9740496    3.5013531  
  14 H       3.0381867    3.3059266    3.8884405    4.2474371    3.8827224  
  15 H       2.1627881 *  2.4553186 *  2.8611544 *  3.5604632    3.2677004  

                6 H          7 O          8 H          9 H         10 O     

   1 O       3.3854787    4.1130872    4.7596937    3.6589501    2.9178127 *
   2 H       2.4544858 *  3.5501100    4.2387970    3.2972928    3.3743188  
   3 H       3.8610937    4.8360388    5.4056618    4.4434970    3.6801446  
   4 O       0.9468495 *  2.8161193 *  3.4907149    3.0987787    4.6570305  
   5 H       1.5093568 *  1.8784680 *  2.5439360 *  2.2871903 *  4.6867270  
   6 H       0.0000000    3.1936958    3.9504513    3.5519120    4.8159958  
   7 O       3.1936958    0.0000000    0.9461263 *  0.9585021 *  4.8292112  
   8 H       3.9504513    0.9461263 *  0.0000000    1.5133095 *  5.5952854  
   9 H       3.5519120    0.9585021 *  1.5133095 *  0.0000000    4.0951451  
  10 O       4.8159958    4.8292112    5.5952854    4.0951451    0.0000000  
  11 H       4.2344572    4.6094178    5.3822570    3.9457886    0.9531113 *
  12 H       5.6706239    5.6800847    6.3992838    4.8955143    0.9463343 *
  13 O       4.5240092    2.8335911 *  3.2468548    1.8963209 *  2.9150329 *
  14 H       4.6483364    3.3522638    3.9152166    2.4395979 *  2.0894320 *
  15 H       4.2144415    3.0983249    3.5437909    2.2921142 *  2.8680427 *

               11 H         12 H         13 O         14 H         15 H     

   1 O       2.0170606 *  3.3898995    2.9874703 *  3.0381867    2.1627881 *
   2 H       2.5341273 *  4.0181730    3.1658884    3.3059266    2.4553186 *
   3 H       2.7521272 *  3.9992240    3.7646948    3.8884405    2.8611544 *
   4 O       3.9992261    5.4724349    3.9740496    4.2474371    3.5604632  
   5 H       4.1590390    5.5431674    3.5013531    3.8827224    3.2677004  
   6 H       4.2344572    5.6706239    4.5240092    4.6483364    4.2144415  
   7 O       4.6094178    5.6800847    2.8335911 *  3.3522638    3.0983249  
   8 H       5.3822570    6.3992838    3.2468548    3.9152166    3.5437909  
   9 H       3.9457886    4.8955143    1.8963209 *  2.4395979 *  2.2921142 *
  10 O       0.9531113 *  0.9463343 *  2.9150329 *  2.0894320 *  2.8680427 *
  11 H       0.0000000    1.5087171 *  2.8616835 *  2.2710468 *  2.5211134 *
  12 H       1.5087171 *  0.0000000    3.4807322    2.6726309 *  3.3851922  
  13 O       2.8616835 *  3.4807322    0.0000000    0.9528946 *  0.9508608 *
  14 H       2.2710468 *  2.6726309 *  0.9528946 *  0.0000000    1.4821163 *
  15 H       2.5211134 *  3.3851922    0.9508608 *  1.4821163 *  0.0000000  

  * ... LESS THAN  3.000


     ATOMIC BASIS SET
     ----------------
 THE CONTRACTED PRIMITIVE FUNCTIONS HAVE BEEN UNNORMALIZED
 THE CONTRACTED BASIS FUNCTIONS ARE NOW NORMALIZED TO UNITY

  SHELL TYPE  PRIMITIVE        EXPONENT          CONTRACTION COEFFICIENT(S)

 O         

      1   S       1           281.8665800    0.069059895330
      1   S       2            42.4160000    0.393159473412
      1   S       3             9.0956200    0.665669054983

      2   S       4            11.7893262   -0.080819896351
      2   S       5             0.9128941    0.582089473721
      2   S       6             0.2866610    0.497159577555

      3   P       7             8.2741400    0.124270892747
      3   P       8             1.7154628    0.476593472182
      3   P       9             0.3830133    0.613044464218

 H         

      4   S      10             7.0340625    0.070452003325
      4   S      11             1.0647563    0.407826019247
      4   S      12             0.2365594    0.647752030571

 H         

      5   S      13             7.0340625    0.070452003325
      5   S      14             1.0647563    0.407826019247
      5   S      15             0.2365594    0.647752030571

 O         

      6   S      16           281.8665800    0.069059895330
      6   S      17            42.4160000    0.393159473412
      6   S      18             9.0956200    0.665669054983

      7   S      19            11.7893262   -0.080819896351
      7   S      20             0.9128941    0.582089473721
      7   S      21             0.2866610    0.497159577555

      8   P      22             8.2741400    0.124270892747
      8   P      23             1.7154628    0.476593472182
      8   P      24             0.3830133    0.613044464218

 H         

      9   S      25             7.0340625    0.070452003325
      9   S      26             1.0647563    0.407826019247
      9   S      27             0.2365594    0.647752030571

 H         

     10   S      28             7.0340625    0.070452003325
     10   S      29             1.0647563    0.407826019247
     10   S      30             0.2365594    0.647752030571

 O         

     11   S      31           281.8665800    0.069059895330
     11   S      32            42.4160000    0.393159473412
     11   S      33             9.0956200    0.665669054983

     12   S      34            11.7893262   -0.080819896351
     12   S      35             0.9128941    0.582089473721
     12   S      36             0.2866610    0.497159577555

     13   P      37             8.2741400    0.124270892747
     13   P      38             1.7154628    0.476593472182
     13   P      39             0.3830133    0.613044464218

 H         

     14   S      40             7.0340625    0.070452003325
     14   S      41             1.0647563    0.407826019247
     14   S      42             0.2365594    0.647752030571

 H         

     15   S      43             7.0340625    0.070452003325
     15   S      44             1.0647563    0.407826019247
     15   S      45             0.2365594    0.647752030571

 O         

     16   S      46           281.8665800    0.069059895330
     16   S      47            42.4160000    0.393159473412
     16   S      48             9.0956200    0.665669054983

     17   S      49            11.7893262   -0.080819896351
     17   S      50             0.9128941    0.582089473721
     17   S      51             0.2866610    0.497159577555

     18   P      52             8.2741400    0.124270892747
     18   P      53             1.7154628    0.476593472182
     18   P      54             0.3830133    0.613044464218

 H         

     19   S      55             7.0340625    0.070452003325
     19   S      56             1.0647563    0.407826019247
     19   S      57             0.2365594    0.647752030571

 H         

     20   S      58             7.0340625    0.070452003325
     20   S      59             1.0647563    0.407826019247
     20   S      60             0.2365594    0.647752030571

 O         

     21   S      61           281.8665800    0.069059895330
     21   S      62            42.4160000    0.393159473412
     21   S      63             9.0956200    0.665669054983

     22   S      64            11.7893262   -0.080819896351
     22   S      65             0.9128941    0.582089473721
     22   S      66             0.2866610    0.497159577555

     23   P      67             8.2741400    0.124270892747
     23   P      68             1.7154628    0.476593472182
     23   P      69             0.3830133    0.613044464218

 H         

     24   S      70             7.0340625    0.070452003325
     24   S      71             1.0647563    0.407826019247
     24   S      72             0.2365594    0.647752030571

 H         

     25   S      73             7.0340625    0.070452003325
     25   S      74             1.0647563    0.407826019247
     25   S      75             0.2365594    0.647752030571

 TOTAL NUMBER OF BASIS SET SHELLS             =   25
 NUMBER OF CARTESIAN GAUSSIAN BASIS FUNCTIONS =   35
 NOTE: THIS RUN WILL RESTRICT THE MO VARIATION SPACE TO SPHERICAL HARMONICS.
 THE NUMBER OF ORBITALS KEPT IN THE VARIATIONAL SPACE WILL BE PRINTED LATER.
 NUMBER OF ELECTRONS                          =   50
 CHARGE OF MOLECULE                           =    0
 SPIN MULTIPLICITY                            =    1
 NUMBER OF OCCUPIED ORBITALS (ALPHA)          =   25
 NUMBER OF OCCUPIED ORBITALS (BETA )          =   25
 TOTAL NUMBER OF ATOMS                        =   15
 THE NUCLEAR REPULSION ENERGY IS      205.8738721656

     $CONTRL OPTIONS
     ---------------
 SCFTYP=RHF          RUNTYP=GLOBOP       EXETYP=RUN     
 MPLEVL=       0     CITYP =NONE         CCTYP =NONE         VBTYP =NONE    
 DFTTYP=NONE         TDDFT =NONE    
 MULT  =       1     ICHARG=       0     NZVAR =       0     COORD =UNIQUE  
 PP    =NONE         RELWFN=NONE         LOCAL =NONE         NUMGRD=       F
 ISPHER=       1     NOSYM =       0     MAXIT =      30     UNITS =ANGS    
 PLTORB=       F     MOLPLT=       F     AIMPAC=       F     FRIEND=        
 NPRINT=       7     IREST =       0     GEOM  =INPUT   
 NORMF =       0     NORMP =       0     ITOL  =      20     ICUT  =       9
 INTTYP=BEST         GRDTYP=BEST         QMTTOL= 1.0E-06

     $SYSTEM OPTIONS
     ---------------
  REPLICATED MEMORY=   100000000 WORDS (ON EVERY NODE).
 DISTRIBUTED MEMDDI=         300 MILLION WORDS IN AGGREGATE,
 MEMDDI DISTRIBUTED OVER   1 PROCESSORS IS   300000000 WORDS/PROCESSOR.
 TOTAL MEMORY REQUESTED ON EACH PROCESSOR=   400000000 WORDS.
 TIMLIM=      525600.00 MINUTES, OR     365.0 DAYS.
 PARALL= F  BALTYP=  DLB     KDIAG=    0  COREFL= F
 MXSEQ2=     300 MXSEQ3=     150  mem10=         0

          ----------------
          PROPERTIES INPUT
          ----------------

     MOMENTS            FIELD           POTENTIAL          DENSITY
 IEMOM =       1   IEFLD =       0   IEPOT =       0   IEDEN =       0
 WHERE =COMASS     WHERE =NUCLEI     WHERE =NUCLEI     WHERE =NUCLEI  
 OUTPUT=BOTH       OUTPUT=BOTH       OUTPUT=BOTH       OUTPUT=BOTH    
 IEMINT=       0   IEFINT=       0                     IEDINT=       0
                                                       MORB  =       0
          EXTRAPOLATION IN EFFECT
          SOSCF IN EFFECT
 ORBITAL PRINTING OPTION: NPREO=     1    35     2     1

     -------------------------------
     INTEGRAL TRANSFORMATION OPTIONS
     -------------------------------
     NWORD  =            0
     CUTOFF = 1.0E-09     MPTRAN =       0
     DIRTRF =       T     AOINTS =DUP     

          ----------------------
          INTEGRAL INPUT OPTIONS
          ----------------------
 NOPK  =       1 NORDER=       0 SCHWRZ=       T

     ------------------------------------------
     THE POINT GROUP IS C1 , NAXIS= 0, ORDER= 1
     ------------------------------------------

 -- VARIATIONAL SPACE WILL BE RESTRICTED TO PURE SPHERICAL HARMONICS ONLY --
 AFTER EXCLUDING CONTAMINANT COMBINATIONS FROM THE CARTESIAN GAUSSIAN BASIS
 SET, THE NUMBER OF SPHERICAL HARMONICS KEPT IN THE VARIATION SPACE IS   35

     DIMENSIONS OF THE SYMMETRY SUBSPACES ARE
 A   =   35

 ..... DONE SETTING UP THE RUN .....
 STEP CPU TIME =     0.02 TOTAL CPU TIME =        0.0 (    0.0 MIN)
 TOTAL WALL CLOCK TIME=        0.0 SECONDS, CPU UTILIZATION IS  66.67%
 AIFRG=    1    1    1    2    2    2    3    3    3    4
 AIFRG=    4    4    5    5    5

          ---- MONTE CARLO/SIMULATED ANNEALING OPTIONS -----
 TEMPI=     200.0 TEMPF=       0.0 NTEMPS=   1 NGEOPT=   80
 NFRMOV=   1 NTRAN=   2 NROT=   2 NBLOCK=  20 SCALE=  1.00  1.00 SEPTOL= 1.500
 MCMIN= F NSTMIN=  10 OPTN= T
 XMIN/XMAX= -1.00E+01  1.00E+01
 YMIN/YMAX= -1.00E+01  1.00E+01
 ZMIN/ZMAX= -1.00E+01  1.00E+01
 ALPHA=    0.0000 DACRAT=    0.5000 UPDFAC=    0.9500 BOLTWT=STANDARD
 AIMOVE=   0.0000  NPRT=   1  RANDOM=RAND3    RNDINI= F  RIORD=RAND    
   NAIFG=   5 NFMOMOV=   1
 NSMSTP=
 IFXFRG=
 NFRMOV=                    1  IS GREATER THAN THE NUMBER OF FRAGMENTS=                    0

 -------------------     ----------------------------------------------
 GLOBAL OPTIMIZATION     WRITTEN BY PAUL DAY AND PRADIPTA BANDYOPADHYAY
 -------------------     ----------------------------------------------

          ********************
          1 ELECTRON INTEGRALS
          ********************

          -------------
          GUESS OPTIONS
          -------------
          GUESS =HUCKEL            NORB  =       0          NORDER=       0
          MIX   =       F          PRTMO =       F          PUNMO =       F
          TOLZ  = 1.0E-08          TOLE  = 1.0E-05
          SYMDEN=       F          PURIFY=       F

 INITIAL GUESS ORBITALS GENERATED BY HUCKEL   ROUTINE.
 HUCKEL GUESS REQUIRES     23880 WORDS.

 SYMMETRIES FOR INITIAL GUESS ORBITALS FOLLOW.   BOTH SET(S).
    25 ORBITALS ARE OCCUPIED (    5 CORE ORBITALS).
     6=A        7=A        8=A        9=A       10=A       11=A       12=A   
    13=A       14=A       15=A       16=A       17=A       18=A       19=A   
    20=A       21=A       22=A       23=A       24=A       25=A       26=A   
    27=A       28=A       29=A       30=A       31=A       32=A       33=A   
    34=A       35=A   
 ...... END OF INITIAL ORBITAL SELECTION ......

                    ----------------------
                    AO INTEGRAL TECHNOLOGY
                    ----------------------
     S,P,L SHELL ROTATED AXIS INTEGRALS, REPROGRAMMED BY
        KAZUYA ISHIMURA (IMS) AND JOSE SIERRA (SYNSTAR).
     S,P,D,L SHELL ROTATED AXIS INTEGRALS PROGRAMMED BY
        KAZUYA ISHIMURA (INSTITUTE FOR MOLECULAR SCIENCE).
     S,P,D,F,G SHELL TO TOTAL QUARTET ANGULAR MOMENTUM SUM 5,
        ERIC PROGRAM BY GRAHAM FLETCHER (ELORET AND NASA ADVANCED
        SUPERCOMPUTING DIVISION, AMES RESEARCH CENTER).
     S,P,D,F,G,L SHELL GENERAL RYS QUADRATURE PROGRAMMED BY
        MICHEL DUPUIS (PACIFIC NORTHWEST NATIONAL LABORATORY).

          --------------------
          2 ELECTRON INTEGRALS
          --------------------

 DIRECT SCF METHOD SKIPS INTEGRAL STORAGE ON DISK.
 DIRECT TRANSFORMATION SKIPS AO INTEGRAL STORAGE ON DISK.
 SCHWARZ INEQUALITY OVERHEAD:       620 INTEGRALS, T=        0.00

     ----------------------------------------------------------------
     PROPERTY VALUES FOR THE RHF   SELF-CONSISTENT FIELD WAVEFUNCTION
     ----------------------------------------------------------------

          -----------------
          ENERGY COMPONENTS
          -----------------

         WAVEFUNCTION NORMALIZATION =       1.0000000000

                ONE ELECTRON ENERGY =    -934.2520204149
                TWO ELECTRON ENERGY =     350.8087895561
           NUCLEAR REPULSION ENERGY =     205.8738721656
                                      ------------------
                       TOTAL ENERGY =    -377.5693586933

 ELECTRON-ELECTRON POTENTIAL ENERGY =     350.8087895561
  NUCLEUS-ELECTRON POTENTIAL ENERGY =   -1314.3858043242
   NUCLEUS-NUCLEUS POTENTIAL ENERGY =     205.8738721656
                                      ------------------
             TOTAL POTENTIAL ENERGY =    -757.7031426026
               TOTAL KINETIC ENERGY =     380.1337839093
                 VIRIAL RATIO (V/T) =       1.9932538876

          ---------------------------------------
          MULLIKEN AND LOWDIN POPULATION ANALYSES
          ---------------------------------------

     ATOMIC MULLIKEN POPULATION IN EACH MOLECULAR ORBITAL

                      1          2          3          4          5

                  2.000000   2.000000   2.000000   2.000000   2.000000

    1             1.956356   0.026760   0.019355   0.000018   0.000653
    2            -0.001546  -0.000026  -0.000002  -0.000000  -0.000001
    3            -0.001539  -0.000024  -0.000018  -0.000000  -0.000001
    4             0.018166   0.002239   1.968450   0.014117   0.000184
    5            -0.000011  -0.000002  -0.001560  -0.000004  -0.000000
    6            -0.000011  -0.000002  -0.001548  -0.000013  -0.000000
    7             0.000018   0.000003   0.014370   1.957924   0.030842
    8            -0.000000  -0.000000  -0.000009  -0.001545  -0.000028
    9             0.000000  -0.000000  -0.000008  -0.001568   0.000004
   10             0.027837   1.973010   0.000972   0.000037   0.001303
   11            -0.000081  -0.001496  -0.000000  -0.000000  -0.000002
   12            -0.000019  -0.001563  -0.000001  -0.000000  -0.000002
   13             0.000844   0.001119   0.000000   0.031076   1.970110
   14            -0.000001  -0.000019  -0.000000  -0.000020  -0.001525
   15            -0.000013   0.000000  -0.000000  -0.000020  -0.001537

                      6          7          8          9         10

                  2.000000   2.000000   2.000000   2.000000   2.000000

    1             0.860874   0.106733   0.424816   0.179189   0.056596
    2             0.107070   0.005062   0.048986   0.011555   0.003384
    3             0.100589   0.012870   0.052937   0.022717   0.007485
    4             0.330481   0.570304   0.026245   0.520448   0.180026
    5             0.039798   0.075393   0.000545   0.049563   0.011591
    6             0.037560   0.067902   0.003074   0.064042   0.022707
    7             0.106117   0.399497   0.421691   0.120486   0.578464
    8             0.011863   0.046676   0.050099   0.014851   0.072604
    9             0.014530   0.040800   0.056898   0.019066   0.046144
   10             0.168963   0.529468   0.350317   0.510135   0.062488
   11             0.027906   0.064841   0.032123   0.050689   0.008068
   12             0.019267   0.063158   0.042067   0.063152   0.007992
   13             0.136416   0.012015   0.400151   0.308026   0.771323
   14             0.017371   0.003203   0.050093   0.027470   0.084200
   15             0.021196   0.002080   0.039958   0.038612   0.086929

                     11         12         13         14         15

                  2.000000   2.000000   2.000000   2.000000   2.000000

    1             0.911548   0.074109   0.191979   0.007579   0.080293
    2             0.283070   0.010872   0.072732   0.000059   0.026218
    3             0.313159   0.027441   0.026690   0.002317   0.003887
    4             0.186559   0.465379   0.112679   0.458654   0.019997
    5             0.025458   0.174376   0.044751   0.140072   0.006084
    6             0.064965   0.137126   0.019164   0.149292   0.001708
    7             0.027551   0.454264   0.052814   0.639026   0.070307
    8             0.009947   0.166952   0.019469   0.161349   0.020747
    9             0.005339   0.112203   0.007375   0.243656   0.021729
   10             0.075298   0.195421   0.836037   0.020076   0.037043
   11             0.030456   0.065998   0.271593   0.008079   0.011417
   12             0.023668   0.066473   0.282594   0.004338   0.001176
   13             0.025608   0.038238   0.037371   0.117750   1.036836
   14             0.005410   0.010868   0.016219   0.035839   0.312530
   15             0.011965   0.000279   0.008533   0.011914   0.350029

                     16         17         18         19         20

                  2.000000   2.000000   2.000000   2.000000   2.000000

    1             0.633552   0.419019   0.299586   0.075419   0.305590
    2             0.029979   0.020130   0.015736   0.002412   0.013835
    3             0.075920   0.025875   0.002519   0.012544   0.017431
    4             0.512342   0.058347   0.467643   0.372410   0.381748
    5             0.024285  -0.000074   0.023831   0.021486   0.015262
    6             0.056500   0.009838   0.045647   0.011110   0.013115
    7             0.266299   0.381637   0.244154   0.432244   0.403446
    8             0.026745   0.041187   0.002752   0.040154   0.019111
    9             0.014204   0.020409   0.015725   0.020182   0.016063
   10             0.105232   0.538220   0.154604   0.795320   0.391012
   11            -0.000163   0.030498   0.006808   0.048001   0.016095
   12             0.026934   0.053520   0.000005   0.042428   0.011745
   13             0.195115   0.352043   0.624229   0.122703   0.364268
   14             0.026009   0.009742   0.050859   0.001766   0.016042
   15             0.007047   0.039610   0.045904   0.001821   0.015238

                     21         22         23         24         25

                  2.000000   2.000000   2.000000   2.000000   2.000000

    1             1.789638   0.183068   0.000119   0.038065   0.008224
    2             0.000009   0.003266  -0.000004   0.000137   0.000000
    3             0.000011   0.000022   0.000011   0.000000   0.000225
    4             0.002665   1.657359   0.282915   0.026082   0.003325
    5             0.000028   0.001280   0.002880   0.000004  -0.000005
    6             0.000156   0.000481   0.000041   0.000029   0.000034
    7             0.011454   0.111563   1.601777   0.012885   0.299261
    8             0.000043   0.000016   0.000745   0.000082   0.000092
    9             0.000327   0.000226   0.001232   0.000165   0.003161
   10             0.114720   0.027166   0.008826   1.685077   0.014969
   11             0.001518   0.000381   0.000001  -0.000008   0.000002
   12             0.000010   0.000046   0.000016   0.000217   0.000048
   13             0.075601   0.014523   0.101307   0.228783   1.669931
   14             0.000098   0.000228   0.000070   0.006196   0.000595
   15             0.003722   0.000374   0.000063   0.002285   0.000138

               ----- POPULATIONS IN EACH AO -----
                             MULLIKEN      LOWDIN
              1  O  1  S      1.99503     1.99469
              2  O  1  S      1.79223     1.62465
              3  O  1  X      1.26147     1.26432
              4  O  1  Y      1.98941     1.98871
              5  O  1  Z      1.61099     1.60314
              6  H  2  S      0.65293     0.74595
              7  H  3  S      0.70307     0.78503
              8  O  4  S      1.99504     1.99473
              9  O  4  S      1.79541     1.62648
             10  O  4  X      1.62168     1.61476
             11  O  4  Y      1.36663     1.36922
             12  O  4  Z      1.86002     1.85869
             13  H  5  S      0.65503     0.74761
             14  H  6  S      0.70292     0.78477
             15  O  7  S      1.99503     1.99472
             16  O  7  S      1.79418     1.62546
             17  O  7  X      1.90845     1.90687
             18  O  7  Y      1.40170     1.40268
             19  O  7  Z      1.53873     1.53431
             20  H  8  S      0.70390     0.78574
             21  H  9  S      0.65786     0.74975
             22  O 10  S      1.99512     1.99485
             23  O 10  S      1.79944     1.63090
             24  O 10  X      1.62104     1.61642
             25  O 10  Y      1.93878     1.93818
             26  O 10  Z      1.26917     1.27397
             27  H 11  S      0.67272     0.76137
             28  H 12  S      0.70727     0.78855
             29  O 13  S      1.99511     1.99484
             30  O 13  S      1.80213     1.63301
             31  O 13  X      1.51167     1.51191
             32  O 13  Y      1.59857     1.59339
             33  O 13  Z      1.72790     1.72770
             34  H 14  S      0.67324     0.76122
             35  H 15  S      0.68613     0.77137

          ----- MULLIKEN ATOMIC OVERLAP POPULATIONS -----
          (OFF-DIAGONAL ELEMENTS NEED TO BE MULTIPLIED BY 2)

             1           2           3           4           5

    1    8.0473074
    2    0.2966286   0.3793228
    3    0.3038106  -0.0344887   0.4337591
    4   -0.0056436   0.0137271   0.0001787   8.0349834
    5    0.0000847  -0.0009698   0.0000004   0.2973711   0.3830500
    6    0.0001068  -0.0005977  -0.0000030   0.3031596  -0.0351758
    7   -0.0000007   0.0000068   0.0000000  -0.0051872   0.0120884
    8    0.0000000  -0.0000001  -0.0000000   0.0000918  -0.0004082
    9    0.0000023   0.0000040  -0.0000001   0.0000800  -0.0010231
   10   -0.0027668   0.0000525   0.0000454  -0.0000000   0.0000000
   11    0.0069716  -0.0004013  -0.0001759   0.0000016  -0.0000000
   12    0.0000874  -0.0000004  -0.0000035   0.0000000  -0.0000000
   13   -0.0016058   0.0000200   0.0000258  -0.0000016   0.0000090
   14    0.0001258   0.0000033  -0.0000013   0.0000001  -0.0000002
   15    0.0040283  -0.0003760  -0.0000788   0.0000034   0.0000047

             6           7           8           9          10

    6    0.4352446
    7    0.0001842   8.0347913
    8   -0.0000026   0.3036330   0.4355135
    9    0.0000012   0.2973604  -0.0350885   0.3859736
   10    0.0000000  -0.0000000   0.0000000   0.0000008   8.0196079
   11   -0.0000001   0.0000000  -0.0000000   0.0000003   0.3002830
   12   -0.0000000   0.0000000  -0.0000000  -0.0000000   0.3032091
   13    0.0000001  -0.0049515   0.0001642   0.0120729  -0.0024764
   14   -0.0000000   0.0000862  -0.0000012  -0.0005350   0.0054252
   15   -0.0000001   0.0000818   0.0000007  -0.0009904   0.0001696

            11          12          13          14          15

   11    0.4033488
   12   -0.0364890   0.4405865
   13   -0.0000935   0.0000591   8.0316144
   14   -0.0007404  -0.0001800   0.3002182   0.4063598
   15    0.0000177  -0.0000004   0.3003314  -0.0375198   0.4204563

          TOTAL MULLIKEN AND LOWDIN ATOMIC POPULATIONS
       ATOM         MULL.POP.    CHARGE          LOW.POP.     CHARGE
    1 O             8.649136   -0.649136         8.475523   -0.475523
    2 H             0.652931    0.347069         0.745952    0.254048
    3 H             0.703069    0.296931         0.785034    0.214966
    4 O             8.638765   -0.638765         8.463870   -0.463870
    5 H             0.655031    0.344969         0.747614    0.252386
    6 H             0.702917    0.297083         0.784773    0.215227
    7 O             8.638093   -0.638093         8.464044   -0.464044
    8 H             0.703903    0.296097         0.785745    0.214255
    9 H             0.657859    0.342141         0.749754    0.250246
   10 O             8.623550   -0.623550         8.454323   -0.454323
   11 H             0.672723    0.327277         0.761371    0.238629
   12 H             0.707269    0.292731         0.788552    0.211448
   13 O             8.635386   -0.635386         8.460849   -0.460849
   14 H             0.673241    0.326759         0.761221    0.238779
   15 H             0.686129    0.313871         0.771374    0.228626

          MULLIKEN SPHERICAL HARMONIC POPULATIONS
       ATOM           S       P       D      F      G      H      I    TOTAL
    1 O             3.79    4.86    0.00   0.00   0.00   0.00   0.00    8.65
    2 H             0.65    0.00    0.00   0.00   0.00   0.00   0.00    0.65
    3 H             0.70    0.00    0.00   0.00   0.00   0.00   0.00    0.70
    4 O             3.79    4.85    0.00   0.00   0.00   0.00   0.00    8.64
    5 H             0.66    0.00    0.00   0.00   0.00   0.00   0.00    0.66
    6 H             0.70    0.00    0.00   0.00   0.00   0.00   0.00    0.70
    7 O             3.79    4.85    0.00   0.00   0.00   0.00   0.00    8.64
    8 H             0.70    0.00    0.00   0.00   0.00   0.00   0.00    0.70
    9 H             0.66    0.00    0.00   0.00   0.00   0.00   0.00    0.66
   10 O             3.79    4.83    0.00   0.00   0.00   0.00   0.00    8.62
   11 H             0.67    0.00    0.00   0.00   0.00   0.00   0.00    0.67
   12 H             0.71    0.00    0.00   0.00   0.00   0.00   0.00    0.71
   13 O             3.80    4.84    0.00   0.00   0.00   0.00   0.00    8.64
   14 H             0.67    0.00    0.00   0.00   0.00   0.00   0.00    0.67
   15 H             0.69    0.00    0.00   0.00   0.00   0.00   0.00    0.69

          -------------------------------
          BOND ORDER AND VALENCE ANALYSIS     BOND ORDER THRESHOLD=0.050
          -------------------------------

                   BOND                       BOND                       BOND
  ATOM PAIR DIST  ORDER      ATOM PAIR DIST  ORDER      ATOM PAIR DIST  ORDER
    1   2  0.960  0.830        1   3  0.946  0.902        4   5  0.959  0.836
    4   6  0.947  0.903        7   8  0.946  0.902        7   9  0.959  0.838
   10  11  0.953  0.862       10  12  0.946  0.905       13  14  0.953  0.868
   13  15  0.951  0.881

                       TOTAL       BONDED        FREE
      ATOM            VALENCE     VALENCE     VALENCE
    1 O                 1.800       1.800      -0.000
    2 H                 0.880       0.880      -0.000
    3 H                 0.912       0.912      -0.000
    4 O                 1.815       1.815       0.000
    5 H                 0.881       0.881      -0.000
    6 H                 0.912       0.912      -0.000
    7 O                 1.811       1.811       0.000
    8 H                 0.912       0.912       0.000
    9 H                 0.883       0.883       0.000
   10 O                 1.803       1.803       0.000
   11 H                 0.893       0.893       0.000
   12 H                 0.914       0.914       0.000
   13 O                 1.818       1.818      -0.000
   14 H                 0.893       0.893       0.000
   15 H                 0.901       0.901      -0.000

          ---------------------
          ELECTROSTATIC MOMENTS
          ---------------------

 POINT   1           X           Y           Z (BOHR)    CHARGE
               -12.804287   -0.783306   -4.655136       -0.00 (A.U.)
         DX          DY          DZ         /D/  (DEBYE)
    -2.234663   -0.405143   -0.513305    2.328378
 ...... END OF PROPERTY EVALUATION ......

   ENERGY ACCEPTED AT GLOBAL SEARCH POINT     0 IS      -377.5693586933
 GAMR=    1.000000 DACRAT=    0.500000 UPDFAC=    0.950000
 TEMPERATURE NUMBER   1 IS    200.00
 MAX.DISP.:  1   1.88973   1.88973   1.88973   1.00000   1.00000   1.00000
 MAX.DISP.:  2   1.88973   1.88973   1.88973   1.00000   1.00000   1.00000
 MAX.DISP.:  3   1.88973   1.88973   1.88973   1.00000   1.00000   1.00000
 MAX.DISP.:  4   1.88973   1.88973   1.88973   1.00000   1.00000   1.00000
 MAX.DISP.:  5   1.88973   1.88973   1.88973   1.00000   1.00000   1.00000
 MC NBLOCK ii at temp number                    1                    1
 MC NBLOCK ii at temp number                    2                    1
 Proximity alert between atom                    9 and atom                   15
 MC NBLOCK ii at temp number                    3                    1
 MC NBLOCK ii at temp number                    4                    1
 Proximity alert between atom                    2 and atom                    4
 MC NBLOCK ii at temp number                    5                    1
 Proximity alert between atom                    1 and atom                   11
 Proximity alert between atom                    5 and atom                    9
 MC NBLOCK ii at temp number                    6                    1
 Proximity alert between atom                    9 and atom                   15
 MC NBLOCK ii at temp number                    7                    1
 MC NBLOCK ii at temp number                    8                    1
 Proximity alert between atom                    5 and atom                    7
 Proximity alert between atom                    4 and atom                    9
 SOSCF IS SCALING ROTATION ANGLE MATRIX, SQCDF=    0.281325
 MC NBLOCK ii at temp number                    9                    1
 SOSCF IS SCALING ROTATION ANGLE MATRIX, SQCDF=    0.205880
 SOSCF IS SCALING ROTATION ANGLE MATRIX, SQCDF=    0.284086
 SOSCF IS SCALING ROTATION ANGLE MATRIX, SQCDF=    0.115017
 MC NBLOCK ii at temp number                   10                    1
 Proximity alert between atom                    1 and atom                   11
 Proximity alert between atom                    7 and atom                   14
 SOSCF IS SCALING ROTATION ANGLE MATRIX, SQCDF=    0.328309
 MC NBLOCK ii at temp number                   11                    1
 Proximity alert between atom                    4 and atom                    7
 MC NBLOCK ii at temp number                   12                    1
 MC NBLOCK ii at temp number                   13                    1
 MC NBLOCK ii at temp number                   14                    1
 Proximity alert between atom                    2 and atom                    4
 Proximity alert between atom                   10 and atom                   15
 MC NBLOCK ii at temp number                   15                    1
 Proximity alert between atom                    1 and atom                   15
 MC NBLOCK ii at temp number                   16                    1
 Proximity alert between atom                    1 and atom                   15
 MC NBLOCK ii at temp number                   17                    1
 Proximity alert between atom                    3 and atom                   11
 MC NBLOCK ii at temp number                   18                    1
 Proximity alert between atom                    1 and atom                   11
 Proximity alert between atom                    1 and atom                   10
 MC NBLOCK ii at temp number                   19                    1
 Proximity alert between atom                    1 and atom                   15
 MC NBLOCK ii at temp number                   20                    1
 Proximity alert between atom                    1 and atom                   15

          -------------------------------
          STATISTICS FROM MONTE CARLO RUN
          -------------------------------

 AT TEMPERATURE =                  200.00
 NUMBER OF GEOMETRIES REJECTED 
  DUE TO PROXIMITY ALERT =          19
 NUMBER OF ENERGY EVALUATIONS =     61
 NUMBER OF ENERGIES REJECTED =      51
 NUMBER OF ENERGIES ACCEPTED =      10
 ACCEPTANCE RATIO =                  0.164
 MINIMUM ENERGY FOUND SO FAR =    -377.5693586933  AT GEOMETRY NUMBER      0



          ***GLOBAL OPTIMIZATION COMPLETE*** 

 TOTAL NUMBER OF GEOMETRIES =       80
 NUMBER OF GEOMETRIES REJECTED 
  DUE TO PROXIMITY ALERT =          19
 NUMBER OF ENERGY EVALUATIONS =     61
 NUMBER OF ENERGIES REJECTED =      51
 NUMBER OF ENERGIES ACCEPTED =      10
 ACCEPTANCE RATIO =                  0.164
 FINAL ENERGY FOUND =             -377.5471427499
 MINIMUM ENERGY FOUND =           -377.5693586933  AT GEOMETRY NUMBER      0


  COORDINATES OF FINAL GEOMETRY (ANGS):

   1  O           -8.5184760543968  -0.8619973959289  -2.6218628180595
   2  H           -8.0753671730832  -0.6432026185103  -3.4454355624128
   3  H           -9.2130883761200  -1.4585087903608  -2.8606572893276
   4  O           -6.7722426929000  -0.6356938187000  -4.8084057067000
   5  H           -6.1666670105000   0.0305407058000  -4.4792179977000
   6  H           -6.2160110020000  -1.3435058030000  -5.1018889899000
   7  O           -5.0534821918000   1.1074034668000  -3.4162842435000
   8  H           -4.9483311878000   2.0428982759000  -3.5108765185000
   9  H           -5.4185226002000   0.9826259040000  -2.5388434650000
  10  O           -6.9482438035000  -2.1658491674000  -0.4134561481000
  11  H           -7.5481871183000  -2.0309564574000  -1.1416684693000
  12  H           -7.4975727768000  -2.4049872074000   0.3190732586000
  13  O           -9.4057463461698   0.2931470784785  -0.2816850522949
  14  H           -9.9230190510141   0.8626211740418  -0.8439450212609
  15  H           -8.8947359243235  -0.2025906923418  -0.9119617614226

  COORDINATES OF MINIMUM ENERGY GEOMETRY (ANGS):

   1  O           -8.4842218050000  -1.0134428881000  -2.6103544458000
   2  H           -7.9431282905000  -0.9548804564000  -3.4017310633000
   3  H           -9.3795815081000  -0.9953854603000  -2.9158701607000
   4  O           -6.7722426929000  -0.6356938187000  -4.8084057067000
   5  H           -6.1666670105000   0.0305407058000  -4.4792179977000
   6  H           -6.2160110020000  -1.3435058030000  -5.1018889899000
   7  O           -5.0534821918000   1.1074034668000  -3.4162842435000
   8  H           -4.9483311878000   2.0428982759000  -3.5108765185000
   9  H           -5.4185226002000   0.9826259040000  -2.5388434650000
  10  O           -6.9482438035000  -2.1658491674000  -0.4134561481000
  11  H           -7.5481871183000  -2.0309564574000  -1.1416684693000
  12  H           -7.4975727768000  -2.4049872074000   0.3190732586000
  13  O           -6.5508921981000   0.6499107013000  -1.0545682936000
  14  H           -6.3620775963000  -0.1696437634000  -0.6065866032000
  15  H           -7.3819460459000   0.4622486950000  -1.4767871849000

          ***MINIMIZING ENERGY FROM FINAL SA GEOMETRY***

 ...... END OF ONE-ELECTRON INTEGRALS ......
 STEP CPU TIME =     0.01 TOTAL CPU TIME =       27.9 (    0.5 MIN)
 TOTAL WALL CLOCK TIME=       28.1 SECONDS, CPU UTILIZATION IS  99.61%
  ...... END OF TWO-ELECTRON INTEGRALS .....
 STEP CPU TIME =     0.00 TOTAL CPU TIME =       27.9 (    0.5 MIN)
 TOTAL WALL CLOCK TIME=       28.1 SECONDS, CPU UTILIZATION IS  99.61%

          --------------------------
                 RHF SCF CALCULATION
          --------------------------
     DENSITY MATRIX CONV=  2.00E-05

 DIRECT SCF CALCULATION, SCHWRZ=T   FDIFF=T,  DIRTHR=  0.00E+00 NITDIR=10

                                                                                   NONZERO     BLOCKS
 ITER EX DEM     TOTAL ENERGY        E CHANGE  DENSITY CHANGE     ORB. GRAD      INTEGRALS    SKIPPED
          ---------------START SECOND ORDER SCF---------------
   1  0  0     -377.2556161960  -377.2556161960   0.387754402   0.136967462         122440      19717
   2  1  0     -377.4854618698    -0.2298456738   0.380569499   0.066689335         104398      26367
   3  2  0     -377.5439607681    -0.0584988983   0.047841304   0.023608741         103161      26884
   4  3  0     -377.5468932227    -0.0029324546   0.014331853   0.004258297          97049      28397
   5  4  0     -377.5471175617    -0.0002243389   0.007672970   0.001335960          86882      30918
   6  5  0     -377.5471423292    -0.0000247675   0.000545223   0.000195951          79821      32952
   7  6  0     -377.5471427103    -0.0000003811   0.000241722   0.000056635          68909      35710
   8  7  0     -377.5471427503    -0.0000000400   0.000023188   0.000005496          64457      36879
   9  8  0     -377.5471427506    -0.0000000003   0.000012065   0.000001905          49942      40817
  10  9  0     -377.5471427507    -0.0000000001   0.000001408   0.000000389          44516      41973

          -----------------
          DENSITY CONVERGED
          -----------------
     TIME TO FORM FOCK OPERATORS=       0.4 SECONDS (       0.0 SEC/ITER)
     FOCK TIME ON FIRST ITERATION=       0.1, LAST ITERATION=       0.0
     TIME TO SOLVE SCF EQUATIONS=       0.0 SECONDS (       0.0 SEC/ITER)

 FINAL RHF ENERGY IS     -377.5471427507 AFTER  10 ITERATIONS
 ...... END OF RHF CALCULATION ......
 STEP CPU TIME =     0.41 TOTAL CPU TIME =       28.4 (    0.5 MIN)
 TOTAL WALL CLOCK TIME=       28.5 SECONDS, CPU UTILIZATION IS  99.61%
 ..... END OF 1-ELECTRON GRADIENT ......
 STEP CPU TIME =     0.02 TOTAL CPU TIME =       28.4 (    0.5 MIN)
 TOTAL WALL CLOCK TIME=       28.5 SECONDS, CPU UTILIZATION IS  99.61%
 ...... END OF 2-ELECTRON GRADIENT ......
 STEP CPU TIME =     0.06 TOTAL CPU TIME =       28.4 (    0.5 MIN)
 TOTAL WALL CLOCK TIME=       28.5 SECONDS, CPU UTILIZATION IS  99.61%

          NSERCH=  0     ENERGY=    -377.5471428

                                 -----------------------
                                 GRADIENT (HARTREE/BOHR)
                                 -----------------------
        ATOM     ZNUC       DE/DX         DE/DY         DE/DZ
 --------------------------------------------------------------
    1  O            8.0    -0.0142946    -0.0197042    -0.0503075
    2  H            1.0    -0.0310549    -0.0093546     0.0401028
    3  H            1.0     0.0435359     0.0360980     0.0135515
    4  O            8.0     0.0606374    -0.0103896    -0.0024653
    5  H            1.0    -0.0302606    -0.0375073    -0.0180948
    6  H            1.0    -0.0289174     0.0451054     0.0181289
    7  O            8.0    -0.0042921     0.0511646     0.0305165
    8  H            1.0    -0.0087272    -0.0593993     0.0095161
    9  H            1.0     0.0144377     0.0093582    -0.0401722
   10  O            8.0    -0.0612077    -0.0036919     0.0061961
   11  H            1.0     0.0280315    -0.0120903     0.0423868
   12  H            1.0     0.0313991     0.0136400    -0.0474194
   13  O            8.0     0.0064698    -0.0020052    -0.0588900
   14  H            1.0     0.0289641    -0.0317728     0.0222478
   15  H            1.0    -0.0347210     0.0305488     0.0347027

          MAXIMUM GRADIENT = 0.0612077    RMS GRADIENT = 0.0323612

 NSERCH:   0  E=     -377.5471427507  GRAD. MAX=  0.0612077  R.M.S.=  0.0323612

          FORCE CONSTANT MATRIX NOT UPDATED --- TAKING FIRST STEP
          MIN SEARCH, CORRECT HESSIAN, TRYING PURE NR STEP
               NR STEP HAS LENGTH         =   3.227971
          TRIM/QA LAMBDA FOR NON-TS MODES =  -0.07427315
          TRIM/QA STEP HAS LENGTH         =   0.300000
          RADIUS OF STEP TAKEN=   0.30000  CURRENT TRUST RADIUS=   0.30000

 BEGINNING GEOMETRY SEARCH POINT NSERCH=   1 ...

 COORDINATES OF ALL ATOMS ARE (ANGS)
   ATOM   CHARGE       X              Y              Z
 ------------------------------------------------------------
 O           8.0  -8.5245832787  -0.8567971796  -2.5975463424
 H           1.0  -8.0412698096  -0.6589678656  -3.4645821629
 H           1.0  -9.2554935773  -1.4885660474  -2.8860969206
 O           8.0  -6.8149611487  -0.6215157440  -4.8271363146
 H           1.0  -6.1428260879   0.0520934253  -4.4783065497
 H           1.0  -6.2016994689  -1.3775234323  -5.1095961106
 O           8.0  -5.0483863535   1.0787992326  -3.4331113428
 H           1.0  -4.9418475321   2.0859637143  -3.5133122179
 H           1.0  -5.4193962702   0.9782765807  -2.5025052059
 O           8.0  -6.8970687767  -2.1779660038  -0.4166094985
 H           1.0  -7.5557593753  -2.0139982144  -1.1665503418
 H           1.0  -7.5253794939  -2.4054377920   0.3486145834
 O           8.0  -9.4204159921   0.2927544272  -0.2363735268
 H           1.0  -9.9475466535   0.8905756511  -0.8515828477
 H           1.0  -8.8630594907  -0.2057460979  -0.9224209861

          INTERNUCLEAR DISTANCES (ANGS.)
          ------------------------------

                1 O          2 H          3 H          4 O          5 H     

   1 O       0.0000000    1.0121657 *  1.0082773 *  2.8194391 *  3.1679818  
   2 H       1.0121657 *  0.0000000    1.5802587 *  1.8335183 *  2.2665687 *
   3 H       1.0082773 *  1.5802587 *  0.0000000    3.2366045    3.8206625  
   4 O       2.8194391 *  1.8335183 *  3.2366045    0.0000000    1.0135073 *
   5 H       3.1679818    2.2665687 *  3.8206625    1.0135073 *  0.0000000  
   6 H       3.4608292    2.5702942 *  3.7791451    1.0136178 *  1.5639044 *
   7 O       4.0655439    3.4609502    4.9588648    2.8204899 *  1.8287581 *
   8 H       4.7259353    4.1404640    5.6372160    3.5447332    2.5515078 *
   9 H       3.6081456    3.2373419    4.5769092    3.1481497    2.2989034 *
  10 O       3.0250250    3.5925880    3.4836487    4.6778228    4.6946171  
  11 H       2.0797797 *  2.7116006 *  2.4742708 *  3.9859352    4.1512461  
  12 H       3.4751346    4.2257271    3.7811780    5.5204592    5.5901772  
  13 O       2.7747292 *  3.6371899    3.1970824    5.3571810    5.3660515  
  14 H       2.8507061 *  3.5864665    3.2060100    5.2824746    5.3227884  
  15 H       1.8287916 *  2.7098582 *  2.3781620 *  4.4288117    4.4844702  

                6 H          7 O          8 H          9 H         10 O     

   1 O       3.4608292    4.0655439    4.7259353    3.6081456    3.0250250  
   2 H       2.5702942 *  3.4609502    4.1404640    3.2373419    3.5925880  
   3 H       3.7791451    4.9588648    5.6372160    4.5769092    3.4836487  
   4 O       1.0136178 *  2.8204899 *  3.5447332    3.1481497    4.6778228  
   5 H       1.5639044 *  1.8287581 *  2.5515078 *  2.2989034 *  4.6946171  
   6 H       0.0000000    3.1897105    4.0163531    3.5998215    4.8112753  
   7 O       3.1897105    0.0000000    1.0159542 *  1.0068669 *  4.8086828  
   8 H       4.0163531    1.0159542 *  0.0000000    1.5737708 *  5.6208144  
   9 H       3.5998215    1.0068669 *  1.5737708 *  0.0000000    4.0615692  
  10 O       4.8112753    4.8086828    5.6208144    4.0615692    0.0000000  
  11 H       4.2173675    4.5814424    5.3990290    3.9118450    1.0115187 *
  12 H       5.7097111    5.7076137    6.4623373    4.9003645    1.0159162 *
  13 O       6.0743940    5.4728094    5.8319381    4.6490270    3.5361314  
  14 H       6.1078901    5.5408924    5.7940296    4.8205168    4.3486279  
  15 H       5.0978755    4.7439808    5.2288196    3.9695582    2.8303032 *

               11 H         12 H         13 O         14 H         15 H     

   1 O       2.0797797 *  3.4751346    2.7747292 *  2.8507061 *  1.8287916 *
   2 H       2.7116006 *  4.2257271    3.6371899    3.5864665    2.7098582 *
   3 H       2.4742708 *  3.7811780    3.1970824    3.2060100    2.3781620 *
   4 O       3.9859352    5.5204592    5.3571810    5.2824746    4.4288117  
   5 H       4.1512461    5.5901772    5.3660515    5.3227884    4.4844702  
   6 H       4.2173675    5.7097111    6.0743940    6.1078901    5.0978755  
   7 O       4.5814424    5.7076137    5.4728094    5.5408924    4.7439808  
   8 H       5.3990290    6.4623373    5.8319381    5.7940296    5.2288196  
   9 H       3.9118450    4.9003645    4.6490270    4.8205168    3.9695582  
  10 O       1.0115187 *  1.0159162 *  3.5361314    4.3486279    2.8303032 *
  11 H       0.0000000    1.5652069 *  3.1085818    3.7757649    2.2446399 *
  12 H       1.5652069 *  0.0000000    3.3486737    4.2627541    2.8711605 *
  13 O       3.1085818    3.3486737    0.0000000    1.0068463 *  1.0147956 *
  14 H       3.7757649    4.2627541    1.0068463 *  0.0000000    1.5437136 *
  15 H       2.2446399 *  2.8711605 *  1.0147956 *  1.5437136 *  0.0000000  

  * ... LESS THAN  3.000

 ...... END OF ONE-ELECTRON INTEGRALS ......
 STEP CPU TIME =     0.00 TOTAL CPU TIME =       28.4 (    0.5 MIN)
 TOTAL WALL CLOCK TIME=       28.5 SECONDS, CPU UTILIZATION IS  99.61%
  ...... END OF TWO-ELECTRON INTEGRALS .....
 STEP CPU TIME =     0.00 TOTAL CPU TIME =       28.4 (    0.5 MIN)
 TOTAL WALL CLOCK TIME=       28.5 SECONDS, CPU UTILIZATION IS  99.61%

          --------------------------
                 RHF SCF CALCULATION
          --------------------------
     DENSITY MATRIX CONV=  4.00E-04

 DIRECT SCF CALCULATION, SCHWRZ=T   FDIFF=T,  DIRTHR=  0.00E+00 NITDIR=10

                                                                                   NONZERO     BLOCKS
 ITER EX DEM     TOTAL ENERGY        E CHANGE  DENSITY CHANGE     ORB. GRAD      INTEGRALS    SKIPPED
          ---------------START SECOND ORDER SCF---------------
   1  0  0     -377.5572873491  -377.5572873491   0.043241360   0.026345557         121107      19928
   2  1  0     -377.5624382900    -0.0051509409   0.021644389   0.004044722         111571      24185
   3  2  0     -377.5632103858    -0.0007720958   0.003531957   0.002401410         107781      25279
   4  3  0     -377.5632538422    -0.0000434564   0.000983256   0.000565447          97764      28054
   5  4  0     -377.5632563869    -0.0000025447   0.000213692   0.000073638          88537      30563
   6  5  0     -377.5632565027    -0.0000001158   0.000062981   0.000026596          78681      33106
   7  6  0     -377.5632565106    -0.0000000078   0.000023665   0.000004222          68180      35911

          -----------------
          DENSITY CONVERGED
          -----------------
     TIME TO FORM FOCK OPERATORS=       0.3 SECONDS (       0.0 SEC/ITER)
     FOCK TIME ON FIRST ITERATION=       0.1, LAST ITERATION=       0.0
     TIME TO SOLVE SCF EQUATIONS=       0.0 SECONDS (       0.0 SEC/ITER)

 FINAL RHF ENERGY IS     -377.5632565106 AFTER   7 ITERATIONS
 ...... END OF RHF CALCULATION ......
 STEP CPU TIME =     0.34 TOTAL CPU TIME =       28.8 (    0.5 MIN)
 TOTAL WALL CLOCK TIME=       28.9 SECONDS, CPU UTILIZATION IS  99.62%
 ..... END OF 1-ELECTRON GRADIENT ......
 STEP CPU TIME =     0.01 TOTAL CPU TIME =       28.8 (    0.5 MIN)
 TOTAL WALL CLOCK TIME=       28.9 SECONDS, CPU UTILIZATION IS  99.58%
 ...... END OF 2-ELECTRON GRADIENT ......
 STEP CPU TIME =     0.06 TOTAL CPU TIME =       28.8 (    0.5 MIN)
 TOTAL WALL CLOCK TIME=       29.0 SECONDS, CPU UTILIZATION IS  99.59%

          NSERCH=  1     ENERGY=    -377.5632565

                                 -----------------------
                                 GRADIENT (HARTREE/BOHR)
                                 -----------------------
        ATOM     ZNUC       DE/DX         DE/DY         DE/DZ
 --------------------------------------------------------------
    1  O            8.0     0.0140560     0.0175112     0.0215254
    2  H            1.0    -0.0046301     0.0025461    -0.0093006
    3  H            1.0    -0.0125659    -0.0129867    -0.0081414
    4  O            8.0    -0.0312508     0.0083727    -0.0002197
    5  H            1.0     0.0120277     0.0024520     0.0022723
    6  H            1.0     0.0216099    -0.0137003    -0.0054687
    7  O            8.0     0.0071491    -0.0284910    -0.0154359
    8  H            1.0     0.0004125     0.0253988     0.0033448
    9  H            1.0    -0.0065113     0.0043263     0.0120021
   10  O            8.0     0.0366459     0.0064662    -0.0065235
   11  H            1.0    -0.0176246    -0.0024108    -0.0070996
   12  H            1.0    -0.0206978    -0.0062234     0.0150220
   13  O            8.0    -0.0009275    -0.0021403     0.0311411
   14  H            1.0    -0.0054241     0.0071342    -0.0168216
   15  H            1.0     0.0077309    -0.0082551    -0.0162967

          MAXIMUM GRADIENT = 0.0366459    RMS GRADIENT = 0.0145630

 NSERCH:   1  E=     -377.5632565106  GRAD. MAX=  0.0366459  R.M.S.=  0.0145630

          HESSIAN UPDATED USING THE BFGS FORMULA
             ACTUAL ENERGY CHANGE WAS  -0.0161137599
          PREDICTED ENERGY CHANGE WAS  -0.0332175143 RATIO=  0.485
          MIN SEARCH, CORRECT HESSIAN, TRYING PURE NR STEP
               NR STEP HAS LENGTH         =   3.457543
          TRIM/QA LAMBDA FOR NON-TS MODES =  -0.03667468
          TRIM/QA STEP HAS LENGTH         =   0.300000
          RADIUS OF STEP TAKEN=   0.30000  CURRENT TRUST RADIUS=   0.30000

 BEGINNING GEOMETRY SEARCH POINT NSERCH=   2 ...

 COORDINATES OF ALL ATOMS ARE (ANGS)
   ATOM   CHARGE       X              Y              Z
 ------------------------------------------------------------
 O           8.0  -8.5508399181  -0.8836380789  -2.6211726758
 H           1.0  -7.9891028228  -0.6915118103  -3.4427354646
 H           1.0  -9.2825446700  -1.4947939585  -2.8920955321
 O           8.0  -6.7850719685  -0.6168143983  -4.8135408296
 H           1.0  -6.1516463555   0.0842663947  -4.4786829239
 H           1.0  -6.2425224512  -1.3928084215  -5.1176779216
 O           8.0  -5.0789090561   1.1069934921  -3.4135499206
 H           1.0  -4.9261990105   2.0846369031  -3.5349699923
 H           1.0  -5.3989498038   0.9514129113  -2.4831936395
 O           8.0  -6.9300645688  -2.2078080621  -0.4170276026
 H           1.0  -7.5158223337  -1.9764131090  -1.1934531620
 H           1.0  -7.5093082864  -2.3961139671   0.3683767674
 O           8.0  -9.4162355144   0.2983478306  -0.2692371127
 H           1.0  -9.9724027175   0.9074057557  -0.8205725821
 H           1.0  -8.8500738315  -0.2012168276  -0.9275831928

          INTERNUCLEAR DISTANCES (ANGS.)
          ------------------------------

                1 O          2 H          3 H          4 O          5 H     

   1 O       0.0000000    1.0136205 *  0.9911118 *  2.8276509 *  3.1848568  
   2 H       1.0136205 *  0.0000000    1.6190918 *  1.8260278 *  2.2475020 *
   3 H       0.9911118 *  1.6190918 *  0.0000000    3.2711114    3.8487940  
   4 O       2.8276509 *  1.8260278 *  3.2711114    0.0000000    1.0024331 *
   5 H       3.1848568    2.2475020 *  3.8487940    1.0024331 *  0.0000000  
   6 H       3.4380405    2.5194825 *  3.7689990    0.9944979 *  1.6119315 *
   7 O       4.0798014    3.4212134    4.9710929    2.8004428 *  1.8251697 *
   8 H       4.7732278    4.1348384    5.6748005    3.5196578    2.5285959 *
   9 H       3.6497756    3.2138474    4.6079755    3.1322818    2.3022755 *
  10 O       3.0395056    3.5462127    3.4883396    4.6777786    4.7282750  
  11 H       2.0745606 *  2.6332939 *  2.4977291 *  3.9354211    4.1109744  
  12 H       3.5085292    4.2024336    3.8193487    5.5265446    5.6115524  
  13 O       2.7708484 *  3.6176818    3.1800341    5.3302195    5.3313045  
  14 H       2.9104707 *  3.6559204    3.2461785    5.3316151    5.3532709  
  15 H       1.8502662 *  2.7032668 *  2.3915856 *  4.4201381    4.4691521  

                6 H          7 O          8 H          9 H         10 O     

   1 O       3.4380405    4.0798014    4.7732278    3.6497756    3.0395056  
   2 H       2.5194825 *  3.4212134    4.1348384    3.2138474    3.5462127  
   3 H       3.7689990    4.9710929    5.6748005    4.6079755    3.4883396  
   4 O       0.9944979 *  2.8004428 *  3.5196578    3.1322818    4.6777786  
   5 H       1.6119315 *  1.8251697 *  2.5285959 *  2.3022755 *  4.7282750  
   6 H       0.0000000    3.2414592    4.0410763    3.6259476    4.8200676  
   7 O       3.2414592    0.0000000    0.9969202 *  0.9960895 *  4.8367171  
   8 H       4.0410763    0.9969202 *  0.0000000    1.6167633 *  5.6711662  
   9 H       3.6259476    0.9960895 *  1.6167633 *  0.0000000    4.0735773  
  10 O       4.8200676    4.8367171    5.6711662    4.0735773    0.0000000  
  11 H       4.1667046    4.5138423    5.3554624    3.8362410    0.9997462 *
  12 H       5.7191052    5.6992606    6.4796372    4.8776022    0.9939026 *
  13 O       6.0365423    5.4178420    5.8323467    4.6332151    3.5332287  
  14 H       6.1374348    5.5416285    5.8496152    4.8664892    4.3730112  
  15 H       5.0770177    4.7024598    5.2364479    3.9571121    2.8237406 *

               11 H         12 H         13 O         14 H         15 H     

   1 O       2.0745606 *  3.5085292    2.7708484 *  2.9104707 *  1.8502662 *
   2 H       2.6332939 *  4.2024336    3.6176818    3.6559204    2.7032668 *
   3 H       2.4977291 *  3.8193487    3.1800341    3.2461785    2.3915856 *
   4 O       3.9354211    5.5265446    5.3302195    5.3316151    4.4201381  
   5 H       4.1109744    5.6115524    5.3313045    5.3532709    4.4691521  
   6 H       4.1667046    5.7191052    6.0365423    6.1374348    5.0770177  
   7 O       4.5138423    5.6992606    5.4178420    5.5416285    4.7024598  
   8 H       5.3554624    6.4796372    5.8323467    5.8496152    5.2364479  
   9 H       3.8362410    4.8776022    4.6332151    4.8664892    3.9571121  
  10 O       0.9997462 *  0.9939026 *  3.5332287    4.3730112    2.8237406 *
  11 H       0.0000000    1.6172520 *  3.1048805    3.8066046    2.2365678 *
  12 H       1.6172520 *  0.0000000    3.3620005    4.2887851    2.8800587 *
  13 O       3.1048805    3.3620005    0.0000000    0.9920909 *  1.0017602 *
  14 H       3.8066046    4.2887851    0.9920909 *  0.0000000    1.5811760 *
  15 H       2.2365678 *  2.8800587 *  1.0017602 *  1.5811760 *  0.0000000  

  * ... LESS THAN  3.000

 ...... END OF ONE-ELECTRON INTEGRALS ......
 STEP CPU TIME =     0.01 TOTAL CPU TIME =       28.9 (    0.5 MIN)
 TOTAL WALL CLOCK TIME=       29.0 SECONDS, CPU UTILIZATION IS  99.62%
  ...... END OF TWO-ELECTRON INTEGRALS .....
 STEP CPU TIME =     0.00 TOTAL CPU TIME =       28.9 (    0.5 MIN)
 TOTAL WALL CLOCK TIME=       29.0 SECONDS, CPU UTILIZATION IS  99.62%

          --------------------------
                 RHF SCF CALCULATION
          --------------------------
     DENSITY MATRIX CONV=  1.00E-04

 DIRECT SCF CALCULATION, SCHWRZ=T   FDIFF=T,  DIRTHR=  0.00E+00 NITDIR=10

                                                                                   NONZERO     BLOCKS
 ITER EX DEM     TOTAL ENERGY        E CHANGE  DENSITY CHANGE     ORB. GRAD      INTEGRALS    SKIPPED
          ---------------START SECOND ORDER SCF---------------
   1  0  0     -377.5645482848  -377.5645482848   0.031249199   0.011369851         121314      19970
   2  1  0     -377.5682223055    -0.0036740207   0.020383397   0.004557338         110164      24651
   3  2  0     -377.5689676997    -0.0007453942   0.000981561   0.000588226         107512      25406
   4  3  0     -377.5689724990    -0.0000047994   0.000359768   0.000118217          90174      30226
   5  4  0     -377.5689729714    -0.0000004724   0.000064116   0.000018413          83404      31865
   6  5  0     -377.5689729806    -0.0000000091   0.000019664   0.000005256          68854      35957

          -----------------
          DENSITY CONVERGED
          -----------------
     TIME TO FORM FOCK OPERATORS=       0.3 SECONDS (       0.0 SEC/ITER)
     FOCK TIME ON FIRST ITERATION=       0.1, LAST ITERATION=       0.0
     TIME TO SOLVE SCF EQUATIONS=       0.0 SECONDS (       0.0 SEC/ITER)

 FINAL RHF ENERGY IS     -377.5689729806 AFTER   6 ITERATIONS
 ...... END OF RHF CALCULATION ......
 STEP CPU TIME =     0.28 TOTAL CPU TIME =       29.1 (    0.5 MIN)
 TOTAL WALL CLOCK TIME=       29.3 SECONDS, CPU UTILIZATION IS  99.62%
 ..... END OF 1-ELECTRON GRADIENT ......
 STEP CPU TIME =     0.02 TOTAL CPU TIME =       29.2 (    0.5 MIN)
 TOTAL WALL CLOCK TIME=       29.3 SECONDS, CPU UTILIZATION IS  99.62%
 ...... END OF 2-ELECTRON GRADIENT ......
 STEP CPU TIME =     0.06 TOTAL CPU TIME =       29.2 (    0.5 MIN)
 TOTAL WALL CLOCK TIME=       29.3 SECONDS, CPU UTILIZATION IS  99.62%

          NSERCH=  2     ENERGY=    -377.5689730

                                 -----------------------
                                 GRADIENT (HARTREE/BOHR)
                                 -----------------------
        ATOM     ZNUC       DE/DX         DE/DY         DE/DZ
 --------------------------------------------------------------
    1  O            8.0    -0.0067599     0.0023303     0.0055449
    2  H            1.0     0.0055006     0.0077414    -0.0057130
    3  H            1.0    -0.0037464    -0.0032756     0.0042369
    4  O            8.0     0.0038309     0.0007247    -0.0029226
    5  H            1.0    -0.0032563     0.0050233     0.0016867
    6  H            1.0     0.0014552    -0.0080789    -0.0040019
    7  O            8.0     0.0027481     0.0001659     0.0032985
    8  H            1.0     0.0025556     0.0074676    -0.0065693
    9  H            1.0    -0.0039245    -0.0066917     0.0035960
   10  O            8.0    -0.0027500     0.0018064     0.0026798
   11  H            1.0     0.0004279    -0.0004187    -0.0097254
   12  H            1.0     0.0020947    -0.0038183     0.0093278
   13  O            8.0    -0.0021798     0.0012670     0.0001941
   14  H            1.0    -0.0037068     0.0038224    -0.0007990
   15  H            1.0     0.0077104    -0.0080657    -0.0008335

          MAXIMUM GRADIENT = 0.0097254    RMS GRADIENT = 0.0046422

 NSERCH:   2  E=     -377.5689729806  GRAD. MAX=  0.0097254  R.M.S.=  0.0046422

          HESSIAN UPDATED USING THE BFGS FORMULA
             ACTUAL ENERGY CHANGE WAS  -0.0057164700
          PREDICTED ENERGY CHANGE WAS  -0.0088843943 RATIO=  0.643
          MIN SEARCH, CORRECT HESSIAN, TRYING PURE NR STEP
               NR STEP HAS LENGTH         =   2.861981
          TRIM/QA LAMBDA FOR NON-TS MODES =  -0.01605357
          TRIM/QA STEP HAS LENGTH         =   0.300000
          RADIUS OF STEP TAKEN=   0.30000  CURRENT TRUST RADIUS=   0.30000

 BEGINNING GEOMETRY SEARCH POINT NSERCH=   3 ...

 COORDINATES OF ALL ATOMS ARE (ANGS)
   ATOM   CHARGE       X              Y              Z
 ------------------------------------------------------------
 O           8.0  -8.5401749067  -0.9261603382  -2.6251071281
 H           1.0  -7.9715183632  -0.7670147103  -3.4369289139
 H           1.0  -9.2950434215  -1.4877940743  -2.9174708894
 O           8.0  -6.8006025292  -0.6003417558  -4.8078401140
 H           1.0  -6.1326987203   0.0638318503  -4.4764985935
 H           1.0  -6.2721895322  -1.3720876464  -5.1139698216
 O           8.0  -5.1055949850   1.1112507390  -3.4239320312
 H           1.0  -4.9275943801   2.0774213305  -3.4989502069
 H           1.0  -5.3676012898   0.9655560673  -2.4750771362
 O           8.0  -6.9088409917  -2.2437756476  -0.4341171359
 H           1.0  -7.5141436619  -1.9351485662  -1.1671225846
 H           1.0  -7.5198292160  -2.3553962518   0.3407309689
 O           8.0  -9.4006716596   0.3028414793  -0.2680218002
 H           1.0  -9.9755071459   0.9068469625  -0.7944019276
 H           1.0  -8.8676825058  -0.1680847845  -0.9584084706

          INTERNUCLEAR DISTANCES (ANGS.)
          ------------------------------

                1 O          2 H          3 H          4 O          5 H     

   1 O       0.0000000    1.0038686 *  0.9852591 *  2.8100877 *  3.1943194  
   2 H       1.0038686 *  0.0000000    1.5940759 *  1.8105859 *  2.2698610 *
   3 H       0.9852591 *  1.5940759 *  0.0000000    3.2531989    3.8520818  
   4 O       2.8100877 *  1.8105859 *  3.2531989    0.0000000    0.9985035 *
   5 H       3.1943194    2.2698610 *  3.8520818    0.9985035 *  0.0000000  
   6 H       3.3966228    2.4629856 *  3.7384009    0.9841379 *  1.5772419 *
   7 O       4.0725305    3.4265970    4.9561089    2.7780931 *  1.8055262 *
   8 H       4.7786863    4.1665497    5.6677588    3.5201942    2.5421290 *
   9 H       3.6967991    3.2722079    4.6518212    3.1539359    2.3246868 *
  10 O       3.0327871    3.5109806    3.5259773    4.6735472    4.7189296  
  11 H       2.0485400 *  2.5934049 *  2.5368187 *  3.9428003    4.1056403  
  12 H       3.4467399    4.1228259    3.8105116    5.4868285    5.5661923  
  13 O       2.7940564 *  3.6371752    3.1995490    5.3090536    5.3336713  
  14 H       2.9616846 *  3.7149338    3.2718127    5.3347280    5.3884772  
  15 H       1.8600603 *  2.7027562 *  2.4004574 *  4.3906480    4.4621609  

                6 H          7 O          8 H          9 H         10 O     

   1 O       3.3966228    4.0725305    4.7786863    3.6967991    3.0327871  
   2 H       2.4629856 *  3.4265970    4.1665497    3.2722079    3.5109806  
   3 H       3.7384009    4.9561089    5.6677588    4.6518212    3.5259773  
   4 O       0.9841379 *  2.7780931 *  3.5201942    3.1539359    4.6735472  
   5 H       1.5772419 *  1.8055262 *  2.5421290 *  2.3246868 *  4.7189296  
   6 H       0.0000000    3.2224432    4.0392248    3.6395896    4.8027270  
   7 O       3.2224432    0.0000000    0.9852906 *  0.9950879 *  4.8421990  
   8 H       4.0392248    0.9852906 *  0.0000000    1.5742193 *  5.6560837  
   9 H       3.6395896    0.9950879 *  1.5742193 *  0.0000000    4.1037480  
  10 O       4.8027270    4.8421990    5.6560837    4.1037480    0.0000000  
  11 H       4.1757743    4.4916416    5.3130382    3.8382908    0.9994694 *
  12 H       5.6813081    5.6585206    6.4119190    4.8569110    0.9930536 *
  13 O       6.0063300    5.3908236    5.7962447    4.6449909    3.5668006  
  14 H       6.1291738    5.5382537    5.8451902    4.9051924    4.4114249  
  15 H       5.0452846    4.6764098    5.1981674    3.9794464    2.9017984 *

               11 H         12 H         13 O         14 H         15 H     

   1 O       2.0485400 *  3.4467399    2.7940564 *  2.9616846 *  1.8600603 *
   2 H       2.5934049 *  4.1228259    3.6371752    3.7149338    2.7027562 *
   3 H       2.5368187 *  3.8105116    3.1995490    3.2718127    2.4004574 *
   4 O       3.9428003    5.4868285    5.3090536    5.3347280    4.3906480  
   5 H       4.1056403    5.5661923    5.3336713    5.3884772    4.4621609  
   6 H       4.1757743    5.6813081    6.0063300    6.1291738    5.0452846  
   7 O       4.4916416    5.6585206    5.3908236    5.5382537    4.6764098  
   8 H       5.3130382    6.4119190    5.7962447    5.8451902    5.1981674  
   9 H       3.8382908    4.8569110    4.6449909    4.9051924    3.9794464  
  10 O       0.9994694 *  0.9930536 *  3.5668006    4.4114249    2.9017984 *
  11 H       0.0000000    1.5653315 *  3.0620205    3.7781172    2.2356528 *
  12 H       1.5653315 *  0.0000000    3.3127596    4.2380552    2.8790282 *
  13 O       3.0620205    3.3127596    0.0000000    0.9860702 *  0.9912027 *
  14 H       3.7781172    4.2380552    0.9860702 *  0.0000000    1.5523053 *
  15 H       2.2356528 *  2.8790282 *  0.9912027 *  1.5523053 *  0.0000000  

  * ... LESS THAN  3.000

 ...... END OF ONE-ELECTRON INTEGRALS ......
 STEP CPU TIME =     0.00 TOTAL CPU TIME =       29.2 (    0.5 MIN)
 TOTAL WALL CLOCK TIME=       29.3 SECONDS, CPU UTILIZATION IS  99.62%
  ...... END OF TWO-ELECTRON INTEGRALS .....
 STEP CPU TIME =     0.00 TOTAL CPU TIME =       29.2 (    0.5 MIN)
 TOTAL WALL CLOCK TIME=       29.3 SECONDS, CPU UTILIZATION IS  99.62%

          --------------------------
                 RHF SCF CALCULATION
          --------------------------
     DENSITY MATRIX CONV=  2.00E-05

 DIRECT SCF CALCULATION, SCHWRZ=T   FDIFF=T,  DIRTHR=  0.00E+00 NITDIR=10

                                                                                   NONZERO     BLOCKS
 ITER EX DEM     TOTAL ENERGY        E CHANGE  DENSITY CHANGE     ORB. GRAD      INTEGRALS    SKIPPED
          ---------------START SECOND ORDER SCF---------------
   1  0  0     -377.5684253026  -377.5684253026   0.036634616   0.014673257         121762      19849
   2  1  0     -377.5714814607    -0.0030561581   0.027483854   0.006328010         108335      25679
   3  2  0     -377.5721533497    -0.0006718890   0.000928754   0.000281152         105370      26644
   4  3  0     -377.5721563556    -0.0000030060   0.000454950   0.000118198          89083      30772
   5  4  0     -377.5721567527    -0.0000003970   0.000041548   0.000013812          83241      32346
   6  5  0     -377.5721567589    -0.0000000062   0.000017938   0.000003747          69271      35980
   7  6  0     -377.5721567596    -0.0000000007   0.000003200   0.000000765          62450      37789

          -----------------
          DENSITY CONVERGED
          -----------------
     TIME TO FORM FOCK OPERATORS=       0.3 SECONDS (       0.0 SEC/ITER)
     FOCK TIME ON FIRST ITERATION=       0.1, LAST ITERATION=       0.0
     TIME TO SOLVE SCF EQUATIONS=       0.0 SECONDS (       0.0 SEC/ITER)

 FINAL RHF ENERGY IS     -377.5721567596 AFTER   7 ITERATIONS
 ...... END OF RHF CALCULATION ......
 STEP CPU TIME =     0.31 TOTAL CPU TIME =       29.5 (    0.5 MIN)
 TOTAL WALL CLOCK TIME=       29.6 SECONDS, CPU UTILIZATION IS  99.60%
 ..... END OF 1-ELECTRON GRADIENT ......
 STEP CPU TIME =     0.02 TOTAL CPU TIME =       29.5 (    0.5 MIN)
 TOTAL WALL CLOCK TIME=       29.7 SECONDS, CPU UTILIZATION IS  99.60%
 ...... END OF 2-ELECTRON GRADIENT ......
 STEP CPU TIME =     0.06 TOTAL CPU TIME =       29.6 (    0.5 MIN)
 TOTAL WALL CLOCK TIME=       29.7 SECONDS, CPU UTILIZATION IS  99.60%

          NSERCH=  3     ENERGY=    -377.5721568

[...]
    3  O  1  X   -0.000428  -0.000682  -0.002259  -0.001170   0.000274
    4  O  1  Y    0.000281   0.000436  -0.000293   0.000827   0.000144
    5  O  1  Z   -0.004036  -0.000851  -0.004649  -0.002346   0.000110
    6  H  2  S   -0.009817  -0.001623  -0.007848  -0.002657  -0.000278
    7  H  3  S   -0.005936  -0.003710  -0.009367  -0.002934   0.000516
    8  O  4  S    0.809195  -0.428649  -0.347992  -0.059196   0.131578
    9  O  4  S    0.040801  -0.020806  -0.016489  -0.002597   0.004953
   10  O  4  X    0.005089  -0.003316  -0.003481  -0.000689   0.000100
   11  O  4  Y   -0.000880   0.000356  -0.000060  -0.000002  -0.001065
   12  O  4  Z    0.000871   0.000303   0.000817   0.000307  -0.000494
   13  H  5  S   -0.010214   0.005269   0.005127   0.000712   0.002614
   14  H  6  S   -0.009625   0.005302   0.004425   0.000800  -0.001879
   15  O  7  S    0.119062   0.051450  -0.156618   0.028049  -0.968670
   16  O  7  S    0.007104   0.003229  -0.008959   0.001530  -0.047485
   17  O  7  X   -0.001066  -0.000094   0.000891  -0.000069   0.001586
   18  O  7  Y   -0.000204   0.000579  -0.000377   0.000192  -0.005338
   19  O  7  Z   -0.000144   0.001695  -0.000890   0.000374  -0.003942
   20  H  8  S   -0.001149  -0.000539   0.001647  -0.000320   0.011851
   21  H  9  S   -0.001962  -0.004154   0.003987  -0.000983   0.011243
   22  O 10  S    0.099610   0.213287   0.122127  -0.953773  -0.023797
   23  O 10  S    0.005608   0.011378   0.006618  -0.046467  -0.001104
   24  O 10  X   -0.000950  -0.001389  -0.001642   0.006984   0.000291
   25  O 10  Y    0.000118   0.000587  -0.000626   0.001607   0.000226
   26  O 10  Z   -0.000447  -0.000298  -0.000719  -0.000067   0.000044
   27  H 11  S   -0.002752  -0.003336  -0.004270   0.011053   0.000509
   28  H 12  S   -0.001064  -0.002369  -0.001410   0.011715   0.000316
   29  O 13  S    0.199586   0.808007  -0.496628   0.134368   0.151962
   30  O 13  S    0.010402   0.040385  -0.023955   0.005917   0.006338
   31  O 13  X   -0.000902  -0.003075   0.001212  -0.000896  -0.001615
   32  O 13  Y   -0.001361  -0.005381   0.003029  -0.000202  -0.001356
   33  O 13  Z   -0.000276  -0.000250   0.000122  -0.000614   0.001154
   34  H 14  S   -0.002570  -0.010298   0.005791   0.000929  -0.002093
   35  H 15  S   -0.003281  -0.010405   0.004431  -0.002338  -0.002080

                      6          7          8          9         10
                   -1.3059    -1.2879    -1.2867    -1.2705    -1.2634
                     A          A          A          A          A   
    1  O  1  S    0.126690  -0.085059   0.110903  -0.100638  -0.065843
    2  O  1  S   -0.477897   0.324064  -0.421292   0.386694   0.253353
    3  O  1  X    0.015309  -0.015242   0.017300  -0.019259  -0.014787
    4  O  1  Y   -0.003379   0.000464  -0.001825   0.003054  -0.000471
    5  O  1  Z    0.054338  -0.029806   0.051522  -0.042094  -0.025293
    6  H  2  S   -0.090861   0.037511  -0.081528   0.053844   0.027517
    7  H  3  S   -0.084675   0.059545  -0.078598   0.074425   0.049618
    8  O  4  S    0.110438   0.110583   0.086012   0.083294   0.105752
    9  O  4  S   -0.415314  -0.419782  -0.326726  -0.319149  -0.407032
   10  O  4  X   -0.050053  -0.055359  -0.035244  -0.040906  -0.047337
   11  O  4  Y    0.006572   0.004962   0.009772   0.006153   0.011808
   12  O  4  Z   -0.007968  -0.003977  -0.002680  -0.000093   0.000885
   13  H  5  S   -0.076486  -0.084194  -0.040108  -0.053357  -0.049250
   14  H  6  S   -0.072579  -0.076578  -0.059432  -0.060505  -0.078118
   15  O  7  S    0.085634   0.115868  -0.095585  -0.003409  -0.141465
   16  O  7  S   -0.321485  -0.438887   0.362370   0.013117   0.542802
   17  O  7  X    0.015963   0.017457  -0.015287  -0.001103  -0.015974
   18  O  7  Y   -0.027551  -0.039813   0.034663   0.002076   0.054499
   19  O  7  Z   -0.024141  -0.027846   0.031575   0.005241   0.035442
   20  H  8  S   -0.055731  -0.079171   0.065983   0.002690   0.103801
   21  H  9  S   -0.061215  -0.066481   0.076225   0.012611   0.076306
   22  O 10  S    0.063570  -0.120927  -0.043059   0.166765  -0.035886
   23  O 10  S   -0.238311   0.457201   0.164072  -0.635939   0.136342
   24  O 10  X    0.033390  -0.062275  -0.020265   0.083708  -0.019405
   25  O 10  Y    0.002108  -0.007824  -0.001566   0.016011  -0.005119
   26  O 10  Z    0.003868  -0.003193   0.000899  -0.001484  -0.000776
   27  H 11  S   -0.052078   0.086793   0.016508  -0.100217   0.031377
   28  H 12  S   -0.041301   0.082730   0.029591  -0.119850   0.026297
   29  O 13  S    0.088910  -0.040816  -0.137231  -0.078676   0.123581
   30  O 13  S   -0.334489   0.155158   0.520852   0.300534  -0.474586
   31  O 13  X    0.022071  -0.013160  -0.030239  -0.019902   0.031381
   32  O 13  Y    0.041263  -0.023011  -0.059685  -0.030672   0.054222
   33  O 13  Z    0.006124   0.001479  -0.005063  -0.005446   0.000768
   34  H 14  S   -0.058556   0.035353   0.089696   0.039149  -0.080347
   35  H 15  S   -0.063594   0.032419   0.083741   0.059017  -0.081410

                     11         12         13         14         15
                   -0.6671    -0.6593    -0.6500    -0.6448    -0.6334
                     A          A          A          A          A   
    1  O  1  S   -0.002218  -0.004181  -0.010512  -0.009194   0.008234
    2  O  1  S    0.004867   0.026537   0.057243   0.050622  -0.047165
    3  O  1  X   -0.453012   0.309194  -0.115044   0.036493   0.036132
    4  O  1  Y   -0.051437  -0.010352  -0.076863  -0.054584  -0.063324
    5  O  1  Z    0.151013  -0.026542   0.232874   0.146889  -0.182596
    6  H  2  S   -0.271746   0.146338  -0.163940  -0.055189   0.100810
    7  H  3  S    0.285680  -0.198293   0.063762  -0.031041  -0.009092
    8  O  4  S    0.000326  -0.006357   0.006377   0.002928  -0.003246
    9  O  4  S   -0.010274   0.031988  -0.034040  -0.017473   0.018843
   10  O  4  X    0.093941  -0.138654   0.163485   0.004353  -0.079672
   11  O  4  Y   -0.224576  -0.269615   0.290692  -0.246192  -0.053370
   12  O  4  Z   -0.281206  -0.089052   0.072879  -0.160316   0.035328
   13  H  5  S   -0.144073  -0.201852   0.216323  -0.154707  -0.044417
   14  H  6  S    0.231061   0.136650  -0.137842   0.180808  -0.002232
   15  O  7  S    0.000383   0.000682  -0.007997   0.005135  -0.000914
   16  O  7  S   -0.006686  -0.010471   0.044332  -0.025781   0.004002
   17  O  7  X    0.116520   0.202484  -0.020561  -0.118931  -0.028952
   18  O  7  Y    0.157885   0.300339  -0.045866  -0.187360  -0.086194
   19  O  7  Z   -0.048664  -0.151435  -0.192292   0.380329   0.136379
   20  H  8  S    0.125044   0.247520   0.008981  -0.209910  -0.083746
   21  H  9  S   -0.078299  -0.183877  -0.106130   0.274200   0.096885
   22  O 10  S   -0.001323   0.002345   0.002233   0.003278  -0.007985
   23  O 10  S    0.006376  -0.008617  -0.006929  -0.016290   0.044757
   24  O 10  X    0.017050  -0.011138  -0.019569  -0.054287   0.098765
   25  O 10  Y   -0.009067   0.108170   0.187447   0.075202   0.100280
   26  O 10  Z    0.074393  -0.220630  -0.391160  -0.305369   0.023229
   27  H 11  S   -0.049778   0.142336   0.250631   0.203303  -0.044979
   28  H 12  S    0.038346  -0.148709  -0.263573  -0.176569  -0.037647
   29  O 13  S   -0.006955   0.008879   0.011849   0.005096  -0.002199
   30  O 13  S    0.032242  -0.047322  -0.060970  -0.019125   0.013541
   31  O 13  X    0.046817  -0.078079   0.010058   0.050942   0.462746
   32  O 13  Y   -0.027437  -0.088852  -0.129469   0.071579  -0.220171
   33  O 13  Z    0.108763   0.096719   0.121052  -0.190215   0.309915
   34  H 14  S    0.064542   0.059793   0.108479  -0.090567   0.324461
   35  H 15  S   -0.064166   0.022084  -0.035382   0.028122  -0.359965

                     16         17         18         19         20
                   -0.5518    -0.5326    -0.5142    -0.4989    -0.4745
                     A          A          A          A          A   
    1  O  1  S   -0.041839   0.035898   0.030612   0.018785   0.035478
    2  O  1  S    0.224292  -0.191289  -0.165790  -0.099881  -0.189256
    3  O  1  X    0.271186  -0.191627  -0.052234  -0.124206  -0.129550
    4  O  1  Y    0.056225   0.233791  -0.177235  -0.125647  -0.034418
    5  O  1  Z    0.235899  -0.263955  -0.403575  -0.007344  -0.280045
    6  H  2  S   -0.035208   0.056038   0.105766   0.002201   0.061971
    7  H  3  S   -0.183328   0.134367   0.067350   0.077300   0.108107
    8  O  4  S    0.047345  -0.003599   0.040560  -0.035934   0.025565
    9  O  4  S   -0.253246   0.020616  -0.215496   0.193129  -0.135045
   10  O  4  X    0.381327  -0.124676   0.257658  -0.438146   0.246260
   11  O  4  Y   -0.163847  -0.107044  -0.234122  -0.035830  -0.205688
   12  O  4  Z   -0.126599   0.046270   0.098110   0.014554   0.325071
   13  H  5  S    0.055914  -0.049409   0.045632  -0.107472   0.050228
   14  H  6  S    0.203493   0.011286   0.142464  -0.089590   0.065247
   15  O  7  S   -0.037640  -0.025630  -0.031481  -0.045477   0.026463
   16  O  7  S    0.202041   0.137216   0.169271   0.241958  -0.139836
   17  O  7  X   -0.019237   0.026933   0.022885   0.250074  -0.319055
   18  O  7  Y   -0.321738  -0.204942  -0.246644  -0.353185   0.226601
   19  O  7  Z   -0.165266  -0.004124  -0.319450  -0.050585   0.042395
   20  H  8  S   -0.152507  -0.108609  -0.077457  -0.151643   0.075546
   21  H  9  S   -0.062754  -0.018699  -0.104438  -0.063484   0.046970
   22  O 10  S    0.014739  -0.051223  -0.010152   0.047956   0.036053
   23  O 10  S   -0.075852   0.276094   0.051030  -0.256228  -0.191609
   24  O 10  X   -0.035527   0.409663   0.025379  -0.477923  -0.443331
   25  O 10  Y    0.033567   0.239483  -0.163077  -0.050011   0.139078
   26  O 10  Z    0.232122  -0.049245  -0.209196  -0.006071   0.007317
   27  H 11  S   -0.072278  -0.104882   0.049751   0.122321   0.096710
   28  H 12  S    0.123898  -0.183398  -0.075763   0.127198   0.081305
   29  O 13  S    0.029255   0.044295  -0.045339   0.008251   0.027661
   30  O 13  S   -0.156712  -0.236798   0.240085  -0.045820  -0.145564
   31  O 13  X   -0.111598  -0.334307   0.044776  -0.183791  -0.059906
   32  O 13  Y   -0.252944  -0.261946   0.384011  -0.091891  -0.335789
   33  O 13  Z    0.121981  -0.051280   0.095484   0.201053  -0.163883
   34  H 14  S    0.120781   0.059110  -0.127812   0.031977   0.062516
   35  H 15  S    0.050012   0.181330  -0.085382   0.029774   0.063349

                     21         22         23         24         25
                   -0.4563    -0.4462    -0.4429    -0.4409    -0.4347
                     A          A          A          A          A   
    1  O  1  S    0.002779   0.011657  -0.004360   0.012844  -0.004636
    2  O  1  S   -0.015221  -0.063241   0.022971  -0.068985   0.024857
    3  O  1  X   -0.067090   0.035060   0.000062   0.033625  -0.022613
    4  O  1  Y    0.910233   0.101135   0.142938   0.064308  -0.015554
    5  O  1  Z    0.059745  -0.281988   0.068524  -0.309184   0.138134
    6  H  2  S    0.002517   0.060014  -0.005534   0.057349  -0.022518
    7  H  3  S    0.010285   0.001516  -0.013073   0.008340   0.002535
    8  O  4  S    0.003821   0.002300  -0.003818   0.016880  -0.009583
    9  O  4  S   -0.020049  -0.015191   0.020943  -0.092575   0.051572
   10  O  4  X    0.032734  -0.130600  -0.106002   0.303091  -0.203115
   11  O  4  Y   -0.071389   0.272891  -0.056902   0.286843  -0.134248
   12  O  4  Z    0.102917  -0.699885  -0.005207  -0.300702   0.088099
   13  H  5  S    0.001750  -0.022505  -0.026451   0.069358  -0.036420
   14  H  6  S    0.015901   0.037181   0.004897   0.019145  -0.010568
   15  O  7  S   -0.002610  -0.007118  -0.000845   0.007719  -0.017724
   16  O  7  S    0.013439   0.040251   0.005494  -0.044060   0.095827
   17  O  7  X    0.089024  -0.448881  -0.371986   0.573144   0.046056
   18  O  7  Y   -0.032188   0.001796   0.044954  -0.027222  -0.150131
   19  O  7  Z   -0.033091  -0.256725  -0.055828   0.238753  -0.420258
   20  H  8  S    0.001069  -0.025993  -0.023126   0.028955  -0.006179
   21  H  9  S   -0.012571  -0.017675   0.018884   0.012129  -0.084233
   22  O 10  S    0.011424   0.008606  -0.005448   0.003674  -0.005414
   23  O 10  S   -0.061787  -0.046176   0.030563  -0.018616   0.029225
   24  O 10  X   -0.171726  -0.110966  -0.127278  -0.207194  -0.021301
   25  O 10  Y   -0.175103  -0.114679   0.634445   0.411558   0.347809
   26  O 10  Z   -0.163093  -0.092855   0.211469   0.090334   0.144964
   27  H 11  S    0.057254   0.032156  -0.005094   0.023634  -0.014316
   28  H 12  S    0.004983   0.011640  -0.025945  -0.006751  -0.009698
   29  O 13  S   -0.010650   0.003695  -0.014613  -0.004682  -0.017802
   30  O 13  S    0.057117  -0.018658   0.077583   0.026370   0.098507
   31  O 13  X    0.188157   0.039946  -0.139637   0.041813   0.427952
   32  O 13  Y    0.062010  -0.125492   0.445610   0.069339  -0.043027
   33  O 13  Z    0.052432  -0.092407   0.365981  -0.120821  -0.610863
   34  H 14  S    0.002668   0.016003  -0.046586  -0.033549  -0.056554
   35  H 15  S   -0.056473   0.000728  -0.028764   0.000637  -0.036730

                     26         27         28         29         30
                    0.5349     0.5752     0.5954     0.6188     0.6421
                     A          A          A          A          A   
    1  O  1  S   -0.090024   0.031333  -0.057925  -0.040078  -0.019248
    2  O  1  S    0.601717  -0.206694   0.409995   0.279615   0.144212
    3  O  1  X   -0.196741   0.231011  -0.171054  -0.384408  -0.193671
    4  O  1  Y    0.008587   0.036551  -0.000716   0.026683  -0.111461
    5  O  1  Z   -0.257358  -0.033084  -0.309007  -0.070413  -0.061999
    6  H  2  S   -0.395021  -0.053153  -0.368999   0.035222  -0.022508
    7  H  3  S   -0.576657   0.341019  -0.428090  -0.533995  -0.271639
    8  O  4  S   -0.060688  -0.073341  -0.050420   0.055780   0.014721
    9  O  4  S    0.406179   0.510104   0.342641  -0.394420  -0.106360
   10  O  4  X    0.194197   0.390948   0.124093  -0.268971  -0.068478
   11  O  4  Y   -0.088688  -0.049432  -0.299886   0.300835   0.188445
   12  O  4  Z    0.041664  -0.024706  -0.094866   0.177929   0.116989
   13  H  5  S   -0.277053  -0.466878  -0.015149   0.105792  -0.079495
   14  H  6  S   -0.351226  -0.477726  -0.510248   0.629974   0.284959
   15  O  7  S   -0.048142  -0.083380   0.062876  -0.034306  -0.026284
   16  O  7  S    0.323416   0.567039  -0.441759   0.245977   0.186454
   17  O  7  X   -0.073696  -0.046858   0.027729   0.010270   0.115196
   18  O  7  Y    0.143418   0.378798  -0.318002   0.220554   0.345441
   19  O  7  Z    0.077403   0.011032  -0.179128   0.101488  -0.184361
   20  H  8  S   -0.276318  -0.646943   0.472255  -0.305715  -0.493676
   21  H  9  S   -0.237341  -0.269491   0.367650  -0.194725   0.168156
   22  O 10  S   -0.063832   0.059514   0.043697   0.058784  -0.039663
   23  O 10  S    0.434012  -0.412134  -0.294413  -0.413111   0.297548
   24  O 10  X   -0.306194   0.299040   0.147982   0.282144  -0.297480
   25  O 10  Y   -0.016559   0.072250   0.073326   0.183757  -0.157922
   26  O 10  Z   -0.040847  -0.041310  -0.268120  -0.323907  -0.004075
   27  H 11  S   -0.397418   0.330407  -0.007271   0.090191  -0.344414
   28  H 12  S   -0.350714   0.413549   0.471134   0.668287  -0.326779
   29  O 13  S   -0.057733   0.012763   0.055347  -0.022110   0.096140
   30  O 13  S    0.390751  -0.098304  -0.375239   0.149478  -0.676232
   31  O 13  X   -0.158555   0.105704  -0.053904  -0.210593   0.329449
   32  O 13  Y   -0.227678   0.123947   0.274911   0.040390   0.380432
   33  O 13  Z   -0.063925  -0.068701  -0.062206  -0.193778   0.050778
   34  H 14  S   -0.286711   0.139563   0.464828   0.121743   0.535761
   35  H 15  S   -0.363385   0.123545   0.135801  -0.347863   0.712327

                     31         32         33         34         35
                    0.7029     0.7206     0.7307     0.7357     0.7419
                     A          A          A          A          A   
    1  O  1  S    0.015315   0.009409   0.030370  -0.011083   0.033617
    2  O  1  S   -0.137058  -0.042555  -0.230428   0.075370  -0.247346
    3  O  1  X    0.286795  -0.562081  -0.261834   0.195564  -0.356093
    4  O  1  Y    0.055245   0.059002  -0.085257   0.021279  -0.074926
    5  O  1  Z    0.189063   0.029784   0.406137  -0.109412   0.392813
    6  H  2  S    0.063369   0.441695   0.674771  -0.276383   0.746280
    7  H  3  S    0.363989  -0.510189  -0.094219   0.137401  -0.177206
    8  O  4  S   -0.002998  -0.000473   0.024502  -0.006956  -0.037446
    9  O  4  S    0.023658   0.018070  -0.149783   0.040610   0.290603
   10  O  4  X    0.042152   0.122443   0.020588  -0.030090   0.464057
   11  O  4  Y    0.051210  -0.097023  -0.506127   0.130656   0.464254
   12  O  4  Z    0.014141  -0.144178  -0.424541   0.129230   0.105988
   13  H  5  S   -0.087456   0.033259   0.633233  -0.157393  -0.912722
   14  H  6  S    0.018368  -0.199550  -0.528733   0.155055   0.093941
   15  O  7  S    0.008936   0.010303   0.000554   0.040756   0.006708
   16  O  7  S   -0.065690  -0.071473   0.017504  -0.293448  -0.078559
   17  O  7  X    0.081019   0.109046   0.157854   0.290008  -0.136887
   18  O  7  Y    0.090037   0.138331   0.305301   0.285932  -0.320261
   19  O  7  Z   -0.200421  -0.200696  -0.015535  -0.659391  -0.154083
   20  H  8  S   -0.126442  -0.173165  -0.324420  -0.372619   0.313195
   21  H  9  S    0.288870   0.311632   0.108577   1.017466   0.111455
   22  O 10  S   -0.019789   0.029526  -0.018431   0.002464  -0.011908
   23  O 10  S    0.160451  -0.208255   0.127746  -0.032803   0.082503
   24  O 10  X   -0.215468   0.179164  -0.097801   0.083367  -0.059582
   25  O 10  Y   -0.136066  -0.209530   0.136744   0.132214   0.079760
   26  O 10  Z   -0.029633   0.676048  -0.398592  -0.116176  -0.229092
   27  H 11  S   -0.250963   0.855816  -0.502782  -0.030780  -0.297760
   28  H 12  S   -0.187016  -0.449328   0.268755   0.186919   0.148719
   29  O 13  S    0.003909   0.000249  -0.006465  -0.016008  -0.001653
   30  O 13  S   -0.018118   0.010763   0.049017   0.147377   0.015421
   31  O 13  X   -0.648457  -0.160928  -0.000489  -0.095661   0.012457
   32  O 13  Y    0.306705   0.007052  -0.073094  -0.335899  -0.052825
   33  O 13  Z   -0.454004  -0.022116   0.060542   0.336301   0.059557
   34  H 14  S    0.762817   0.065498  -0.118528  -0.524342  -0.089528
   35  H 15  S   -0.804923  -0.185340  -0.004516  -0.054959   0.027957
 ......END OF GEOMETRY SEARCH......
 STEP CPU TIME =     0.00 TOTAL CPU TIME =      125.5 (    2.1 MIN)
 TOTAL WALL CLOCK TIME=      126.0 SECONDS, CPU UTILIZATION IS  99.62%

          ***MINIMIZATION FROM MINIMUM-ENERGY SA GEOMETRY COMPLETE***

 ..... END OF GLOBAL OPTIMIZATION .....
 STEP CPU TIME =     0.00 TOTAL CPU TIME =      125.5 (    2.1 MIN)
 TOTAL WALL CLOCK TIME=      126.0 SECONDS, CPU UTILIZATION IS  99.62%
               580000  WORDS OF DYNAMIC MEMORY USED
 EXECUTION OF GAMESS TERMINATED NORMALLY Fri Jun  2 01:17:33 2017
 DDI: 263640 bytes (0.3 MB / 0 MWords) used by master data server.

 ----------------------------------------
 CPU timing information for all processes
 ========================================
 0: 125.357 + 0.177 = 125.535
 ----------------------------------------
 ddikick.x: exited gracefully.
unset echo
----- accounting info -----
Files used on the master node compute-0-7.local were:
-rw-rw-r-- 1 sarom sarom    2057 Jun  2 01:15 /scratch/globop-ai-optn.F05
-rw-rw-r-- 1 sarom sarom 1701440 Jun  2 01:17 /scratch/globop-ai-optn.F10
rm: cannot remove `/scratch/sarom': Is a directory
rm: cannot remove `/scratch/tmp': Is a directory
ls: No match.
ls: No match.
ls: No match.
Fri Jun  2 01:17:36 CDT 2017
0.250u 0.165s 2:09.51 0.3%	0+0k 8+376io 0pf+0w
Deleting shmid=2523136.
Deleting shmid=2555905.
Deleting shmid=2785282.
/opt/gridengine/default/spool/compute-0-7/active_jobs/23568.1/pe_hostfile compute-0-7.local
