----- GAMESS execution script 'rungms' -----
This job is running on host compute-3-0
under operating system Linux at Mon Nov 28 20:06:11 CST 2016
Available scratch disk space (Kbyte units) at beginning of the job is
Filesystem            1K-blocks       Used  Available Use% Mounted on
bolt.local:/export/home/sarom
                     9590469632 1552200704 7551100928  18% /home/sarom
Copying input file globop-ai.inp to your run's scratch directory...
cp globop-ai.inp .//globop-ai.F05
unset echo
/home/sarom/gamessGH/ddikick.x /home/sarom/gamessGH/gamess.00.x globop-ai -ddi 1 1 localhost -scr ./

 Distributed Data Interface kickoff program.
 Initiating 1 compute processes on 1 nodes to run the following command:
 /home/sarom/gamessGH/gamess.00.x globop-ai 

          ******************************************************
          *         GAMESS VERSION = 18 AUG 2016 (R1)          *
          *             FROM IOWA STATE UNIVERSITY             *
          * M.W.SCHMIDT, K.K.BALDRIDGE, J.A.BOATZ, S.T.ELBERT, *
          *   M.S.GORDON, J.H.JENSEN, S.KOSEKI, N.MATSUNAGA,   *
          *          K.A.NGUYEN, S.J.SU, T.L.WINDUS,           *
          *       TOGETHER WITH M.DUPUIS, J.A.MONTGOMERY       *
          *         J.COMPUT.CHEM.  14, 1347-1363(1993)        *
          **************** 64 BIT LINUX VERSION ****************

  SINCE 1993, STUDENTS AND POSTDOCS WORKING AT IOWA STATE UNIVERSITY
  AND ALSO IN THEIR VARIOUS JOBS AFTER LEAVING ISU HAVE MADE IMPORTANT
  CONTRIBUTIONS TO THE CODE:
     IVANA ADAMOVIC, CHRISTINE AIKENS, YURI ALEXEEV, POOJA ARORA,
     ANDREY ASADCHEV, ROB BELL, PRADIPTA BANDYOPADHYAY, JONATHAN BENTZ,
     BRETT BODE, KURT BRORSEN, CALEB CARLIN, GALINA CHABAN, WEI CHEN,
     CHEOL HO CHOI, PAUL DAY, ALBERT DEFUSCO, NUWAN DESILVA, TIM DUDLEY,
     DMITRI FEDOROV, GRAHAM FLETCHER, MARK FREITAG, KURT GLAESEMANN,
     DAN KEMP, GRANT MERRILL, NORIYUKI MINEZAWA, JONATHAN MULLIN,
     TAKESHI NAGATA, SEAN NEDD, HEATHER NETZLOFF, BOSILJKA NJEGIC, RYAN OLSON,
     MIKE PAK, SPENCER PRUITT, LUKE ROSKOP, JIM SHOEMAKER, LYUDMILA SLIPCHENKO,
     TONY SMITH, SAROM SOK LEANG, JIE SONG, TETSUYA TAKETSUGU, SIMON WEBB,
     PENG XU, SOOHAENG YOO, FEDERICO ZAHARIEV

  ADDITIONAL CODE HAS BEEN PROVIDED BY COLLABORATORS IN OTHER GROUPS:
     IOWA STATE UNIVERSITY:
          JOE IVANIC, AARON WEST, LAIMUTIS BYTAUTAS, KLAUS RUEDENBERG
     UNIVERSITY OF TOKYO: KIMIHIKO HIRAO, TAKAHITO NAKAJIMA,
          TAKAO TSUNEDA, MUNEAKI KAMIYA, SUSUMU YANAGISAWA,
          KIYOSHI YAGI, MAHITO CHIBA, SEIKEN TOKURA, NAOAKI KAWAKAMI
     UNIVERSITY OF AARHUS: FRANK JENSEN
     UNIVERSITY OF IOWA: VISVALDAS KAIRYS, HUI LI
     NATIONAL INST. OF STANDARDS AND TECHNOLOGY: WALT STEVENS, DAVID GARMER
     UNIVERSITY OF PISA: BENEDETTA MENNUCCI, JACOPO TOMASI
     UNIVERSITY OF MEMPHIS: HENRY KURTZ, PRAKASHAN KORAMBATH
     UNIVERSITY OF ALBERTA: TOBY ZENG, MARIUSZ KLOBUKOWSKI
     UNIVERSITY OF NEW ENGLAND: MARK SPACKMAN
     MIE UNIVERSITY: HIROAKI UMEDA
     NAT. INST. OF ADVANCED INDUSTRIAL SCIENCE AND TECHNOLOGY: KAZUO KITAURA
     MICHIGAN STATE UNIVERSITY:
          KAROL KOWALSKI, MARTA WLOCH, JEFFREY GOUR, JESSE LUTZ,
          WEI LI, PIOTR PIECUCH
     UNIVERSITY OF SILESIA: MONIKA MUSIAL, STANISLAW KUCHARSKI
     FACULTES UNIVERSITAIRES NOTRE-DAME DE LA PAIX:
          OLIVIER QUINET, BENOIT CHAMPAGNE
     UNIVERSITY OF CALIFORNIA - SANTA BARBARA: BERNARD KIRTMAN
     INSTITUTE FOR MOLECULAR SCIENCE:
          KAZUYA ISHIMURA, MICHIO KATOUDA, AND SHIGERU NAGASE
     UNIVERSITY OF NOTRE DAME: ANNA POMOGAEVA, DAN CHIPMAN
     KYUSHU UNIVERSITY:
          HARUYUKI NAKANO,
          FENG LONG GU, JACEK KORCHOWIEC, MARCIN MAKOWSKI, AND YURIKO AOKI,
          HIROTOSHI MORI AND EISAKU MIYOSHI
     PENNSYLVANIA STATE UNIVERSITY:
          TZVETELIN IORDANOV, CHET SWALINA, JONATHAN SKONE,
          SHARON HAMMES-SCHIFFER
     WASEDA UNIVERSITY:
          MASATO KOBAYASHI, TOMOKO AKAMA, TSUGUKI TOUMA,
          TAKESHI YOSHIKAWA, YASUHIRO IKABATA, JUNJI SEINO,
          YUYA NAKAJIMA, HIROMI NAKAI
     NANJING UNIVERSITY: SHUHUA LI
     UNIVERSITY OF NEBRASKA:
          PEIFENG SU, DEJUN SI, NANDUN THELLAMUREGE, YALI WANG, HUI LI
     UNIVERSITY OF ZURICH: ROBERTO PEVERATI, KIM BALDRIDGE
     N. COPERNICUS UNIVERSITY AND JACKSON STATE UNIVERSITY:
          MARIA BARYSZ
     UNIVERSITY OF COPENHAGEN: Jimmy Kromann, CASPER STEINMANN
     TOKYO INSTITUTE OF TECHNOLOGY: HIROYA NAKATA
     NAGOYA UNIVERSITY: YOSHIO NISHIMOTO, STEPHAN IRLE
     MOSCOW STATE UNIVERSITY: VLADIMIR MIRONOV

 EXECUTION OF GAMESS BEGUN Mon Nov 28 20:06:11 2016

            ECHO OF THE FIRST FEW INPUT CARDS -
 INPUT CARD>!  Monte Carlo AI test case                                                     
 INPUT CARD>!  This is a sample input file for finding the minima of a                      
 INPUT CARD>!  water pentamer using the Monte Carlo search.  In this input,                 
 INPUT CARD>!  the energy is calculated using RHF/MINI.  The system is                      
 INPUT CARD>!  segmented with each molecule as a group.                                     
 INPUT CARD>!                                                                               
 INPUT CARD>!  Since the Monte Carlo method involves random movements, it                   
 INPUT CARD>!  is impossible to predict the final geometry.  However, the                   
 INPUT CARD>!  lowest energy should be within a few Hartree of:                             
 INPUT CARD>!  MINIMUM ENERGY FOUND = -380.1962019141                                       
 INPUT CARD>!                                                                               
 INPUT CARD>!  The output will include the line:                                            
 INPUT CARD>!  TOTAL NUMBER OF GEOMETRIES =     80                                          
 INPUT CARD>!                                                                               
 INPUT CARD>!  This run ends with an optimization from the lowest energy                    
 INPUT CARD>!  configuration.  The geometry may or may not be successful                    
 INPUT CARD>!  but is fine as long as it doesn't end in an error.                           
 INPUT CARD>!                                                                               
 INPUT CARD> $CONTRL SCFTYP=RHF RUNTYP=GLOBOP MAXIT=30 MULT=1 ISPHER=1 $END                 
 INPUT CARD> $SYSTEM TIMLIM=525600 MWORDS=100 MEMDDI=300 $END                               
 INPUT CARD> $BASIS GBASIS=MINI $END                                                        
 INPUT CARD> $GLOBOP MCTYP=1 NTRAN=2 NROT=2 NBLOCK=10 NTEMPS=2 TEMPI=2000 RNDINI=.t.        
 INPUT CARD>       MCMIN=.f. JSTRND=.f. NAIFG=5 TEMPF=20 OPTN=.t. $END                      
 INPUT CARD> $GLBFRG AIFRG(1)=1,1,1,2,2,2,3,3,3,4,4,4,5,5,5 $END                            
 INPUT CARD> $SCF DIRSCF=.TRUE. $END                                                        
 INPUT CARD> $STATPT NSTEP=200 $END                                                         
 INPUT CARD> $DATA                                                                          
 INPUT CARD>Title                                                                           
 INPUT CARD>C1                                                                              
 INPUT CARD> O           8.0  -8.4842218050  -1.0134428881  -2.6103544458                   
 INPUT CARD> H           1.0  -7.9431282905  -0.9548804564  -3.4017310633                   
 INPUT CARD> H           1.0  -9.3795815081  -0.9953854603  -2.9158701607                   
 INPUT CARD> O           8.0  -6.7722426929  -0.6356938187  -4.8084057067                   
 INPUT CARD> H           1.0  -6.1666670105   0.0305407058  -4.4792179977                   
 INPUT CARD> H           1.0  -6.2160110020  -1.3435058030  -5.1018889899                   
 INPUT CARD> O           8.0  -5.0534821918   1.1074034668  -3.4162842435                   
 INPUT CARD> H           1.0  -4.9483311878   2.0428982759  -3.5108765185                   
 INPUT CARD> H           1.0  -5.4185226002   0.9826259040  -2.5388434650                   
 INPUT CARD> O           8.0  -6.9482438035  -2.1658491674  -0.4134561481                   
 INPUT CARD> H           1.0  -7.5481871183  -2.0309564574  -1.1416684693                   
 INPUT CARD> H           1.0  -7.4975727768  -2.4049872074   0.3190732586                   
 INPUT CARD> O           8.0  -6.5508921981   0.6499107013  -1.0545682936                   
 INPUT CARD> H           1.0  -6.3620775963  -0.1696437634  -0.6065866032                   
 INPUT CARD> H           1.0  -7.3819460459   0.4622486950  -1.4767871849                   
 INPUT CARD> $END                                                                           
  100000000 WORDS OF MEMORY AVAILABLE

     BASIS OPTIONS
     -------------
     GBASIS=MINI         IGAUSS=       0      POLAR=NONE    
     NDFUNC=       0     NFFUNC=       0     DIFFSP=       F
     NPFUNC=       0      DIFFS=       F     BASNAM=        


     RUN TITLE
     ---------
 Title                                                                           

 THE POINT GROUP OF THE MOLECULE IS C1      
 THE ORDER OF THE PRINCIPAL AXIS IS     0

 ATOM      ATOMIC                      COORDINATES (BOHR)
           CHARGE         X                   Y                   Z
 O           8.0   -16.0328544305       -1.9151293627       -4.9328546334
 H           1.0   -15.0103359544       -1.8044624136       -6.4283395936
 H           1.0   -17.7248389298       -1.8810057721       -5.5101956195
 O           8.0   -12.7976830119       -1.2012871294       -9.0865692235
 H           1.0   -11.6533109074        0.0577135654       -8.4644946549
 H           1.0   -11.7465575304       -2.5388578306       -9.6411722107
 O           8.0    -9.5496966263        2.0926891101       -6.4558411164
 H           1.0    -9.3509900414        3.8605179622       -6.6345945967
 H           1.0   -10.2395229727        1.8568937070       -4.7977184746
 O           8.0   -13.1302768845       -4.0928614571       -0.7813188278
 H           1.0   -14.2640053576       -3.8379511975       -2.1574405758
 H           1.0   -14.1683581212       -4.5447668260        0.6029610288
 O           8.0   -12.3793912295        1.2281531419       -1.9928451102
 H           1.0   -12.0225833696       -0.3205802284       -1.1462824679
 H           1.0   -13.9498552829        0.8735233717       -2.7907231216

          INTERNUCLEAR DISTANCES (ANGS.)
          ------------------------------

                1 O          2 H          3 H          4 O          5 H     

   1 O       0.0000000    0.9604628 *  0.9462214 *  2.8115825 *  3.1549347  
   2 H       0.9604628 *  0.0000000    1.5169375 *  1.8578447 *  2.2995320 *
   3 H       0.9462214 *  1.5169375 *  0.0000000    3.2418027    3.7174454  
   4 O       2.8115825 *  1.8578447 *  3.2418027    0.0000000    0.9586214 *
   5 H       3.1549347    2.2995320 *  3.7174454    0.9586214 *  0.0000000  
   6 H       3.3854787    2.4544858 *  3.8610937    0.9468495 *  1.5093568 *
   7 O       4.1130872    3.5501100    4.8360388    2.8161193 *  1.8784680 *
   8 H       4.7596937    4.2387970    5.4056618    3.4907149    2.5439360 *
   9 H       3.6589501    3.2972928    4.4434970    3.0987787    2.2871903 *
  10 O       2.9178127 *  3.3743188    3.6801446    4.6570305    4.6867270  
  11 H       2.0170606 *  2.5341273 *  2.7521272 *  3.9992261    4.1590390  
  12 H       3.3898995    4.0181730    3.9992240    5.4724349    5.5431674  
  13 O       2.9874703 *  3.1658884    3.7646948    3.9740496    3.5013531  
  14 H       3.0381867    3.3059266    3.8884405    4.2474371    3.8827224  
  15 H       2.1627881 *  2.4553186 *  2.8611544 *  3.5604632    3.2677004  

                6 H          7 O          8 H          9 H         10 O     

   1 O       3.3854787    4.1130872    4.7596937    3.6589501    2.9178127 *
   2 H       2.4544858 *  3.5501100    4.2387970    3.2972928    3.3743188  
   3 H       3.8610937    4.8360388    5.4056618    4.4434970    3.6801446  
   4 O       0.9468495 *  2.8161193 *  3.4907149    3.0987787    4.6570305  
   5 H       1.5093568 *  1.8784680 *  2.5439360 *  2.2871903 *  4.6867270  
   6 H       0.0000000    3.1936958    3.9504513    3.5519120    4.8159958  
   7 O       3.1936958    0.0000000    0.9461263 *  0.9585021 *  4.8292112  
   8 H       3.9504513    0.9461263 *  0.0000000    1.5133095 *  5.5952854  
   9 H       3.5519120    0.9585021 *  1.5133095 *  0.0000000    4.0951451  
  10 O       4.8159958    4.8292112    5.5952854    4.0951451    0.0000000  
  11 H       4.2344572    4.6094178    5.3822570    3.9457886    0.9531113 *
  12 H       5.6706239    5.6800847    6.3992838    4.8955143    0.9463343 *
  13 O       4.5240092    2.8335911 *  3.2468548    1.8963209 *  2.9150329 *
  14 H       4.6483364    3.3522638    3.9152166    2.4395979 *  2.0894320 *
  15 H       4.2144415    3.0983249    3.5437909    2.2921142 *  2.8680427 *

               11 H         12 H         13 O         14 H         15 H     

   1 O       2.0170606 *  3.3898995    2.9874703 *  3.0381867    2.1627881 *
   2 H       2.5341273 *  4.0181730    3.1658884    3.3059266    2.4553186 *
   3 H       2.7521272 *  3.9992240    3.7646948    3.8884405    2.8611544 *
   4 O       3.9992261    5.4724349    3.9740496    4.2474371    3.5604632  
   5 H       4.1590390    5.5431674    3.5013531    3.8827224    3.2677004  
   6 H       4.2344572    5.6706239    4.5240092    4.6483364    4.2144415  
   7 O       4.6094178    5.6800847    2.8335911 *  3.3522638    3.0983249  
   8 H       5.3822570    6.3992838    3.2468548    3.9152166    3.5437909  
   9 H       3.9457886    4.8955143    1.8963209 *  2.4395979 *  2.2921142 *
  10 O       0.9531113 *  0.9463343 *  2.9150329 *  2.0894320 *  2.8680427 *
  11 H       0.0000000    1.5087171 *  2.8616835 *  2.2710468 *  2.5211134 *
  12 H       1.5087171 *  0.0000000    3.4807322    2.6726309 *  3.3851922  
  13 O       2.8616835 *  3.4807322    0.0000000    0.9528946 *  0.9508608 *
  14 H       2.2710468 *  2.6726309 *  0.9528946 *  0.0000000    1.4821163 *
  15 H       2.5211134 *  3.3851922    0.9508608 *  1.4821163 *  0.0000000  

  * ... LESS THAN  3.000


     ATOMIC BASIS SET
     ----------------
 THE CONTRACTED PRIMITIVE FUNCTIONS HAVE BEEN UNNORMALIZED
 THE CONTRACTED BASIS FUNCTIONS ARE NOW NORMALIZED TO UNITY

  SHELL TYPE  PRIMITIVE        EXPONENT          CONTRACTION COEFFICIENT(S)

 O         

      1   S       1           281.8665800    0.069059895330
      1   S       2            42.4160000    0.393159473412
      1   S       3             9.0956200    0.665669054983

      2   S       4            11.7893262   -0.080819896351
      2   S       5             0.9128941    0.582089473721
      2   S       6             0.2866610    0.497159577555

      3   P       7             8.2741400    0.124270892747
      3   P       8             1.7154628    0.476593472182
      3   P       9             0.3830133    0.613044464218

 H         

      4   S      10             7.0340625    0.070452003325
      4   S      11             1.0647563    0.407826019247
      4   S      12             0.2365594    0.647752030571

 H         

      5   S      13             7.0340625    0.070452003325
      5   S      14             1.0647563    0.407826019247
      5   S      15             0.2365594    0.647752030571

 O         

      6   S      16           281.8665800    0.069059895330
      6   S      17            42.4160000    0.393159473412
      6   S      18             9.0956200    0.665669054983

      7   S      19            11.7893262   -0.080819896351
      7   S      20             0.9128941    0.582089473721
      7   S      21             0.2866610    0.497159577555

      8   P      22             8.2741400    0.124270892747
      8   P      23             1.7154628    0.476593472182
      8   P      24             0.3830133    0.613044464218

 H         

      9   S      25             7.0340625    0.070452003325
      9   S      26             1.0647563    0.407826019247
      9   S      27             0.2365594    0.647752030571

 H         

     10   S      28             7.0340625    0.070452003325
     10   S      29             1.0647563    0.407826019247
     10   S      30             0.2365594    0.647752030571

 O         

     11   S      31           281.8665800    0.069059895330
     11   S      32            42.4160000    0.393159473412
     11   S      33             9.0956200    0.665669054983

     12   S      34            11.7893262   -0.080819896351
     12   S      35             0.9128941    0.582089473721
     12   S      36             0.2866610    0.497159577555

     13   P      37             8.2741400    0.124270892747
     13   P      38             1.7154628    0.476593472182
     13   P      39             0.3830133    0.613044464218

 H         

     14   S      40             7.0340625    0.070452003325
     14   S      41             1.0647563    0.407826019247
     14   S      42             0.2365594    0.647752030571

 H         

     15   S      43             7.0340625    0.070452003325
     15   S      44             1.0647563    0.407826019247
     15   S      45             0.2365594    0.647752030571

 O         

     16   S      46           281.8665800    0.069059895330
     16   S      47            42.4160000    0.393159473412
     16   S      48             9.0956200    0.665669054983

     17   S      49            11.7893262   -0.080819896351
     17   S      50             0.9128941    0.582089473721
     17   S      51             0.2866610    0.497159577555

     18   P      52             8.2741400    0.124270892747
     18   P      53             1.7154628    0.476593472182
     18   P      54             0.3830133    0.613044464218

 H         

     19   S      55             7.0340625    0.070452003325
     19   S      56             1.0647563    0.407826019247
     19   S      57             0.2365594    0.647752030571

 H         

     20   S      58             7.0340625    0.070452003325
     20   S      59             1.0647563    0.407826019247
     20   S      60             0.2365594    0.647752030571

 O         

     21   S      61           281.8665800    0.069059895330
     21   S      62            42.4160000    0.393159473412
     21   S      63             9.0956200    0.665669054983

     22   S      64            11.7893262   -0.080819896351
     22   S      65             0.9128941    0.582089473721
     22   S      66             0.2866610    0.497159577555

     23   P      67             8.2741400    0.124270892747
     23   P      68             1.7154628    0.476593472182
     23   P      69             0.3830133    0.613044464218

 H         

     24   S      70             7.0340625    0.070452003325
     24   S      71             1.0647563    0.407826019247
     24   S      72             0.2365594    0.647752030571

 H         

     25   S      73             7.0340625    0.070452003325
     25   S      74             1.0647563    0.407826019247
     25   S      75             0.2365594    0.647752030571

 TOTAL NUMBER OF BASIS SET SHELLS             =   25
 NUMBER OF CARTESIAN GAUSSIAN BASIS FUNCTIONS =   35
 NOTE: THIS RUN WILL RESTRICT THE MO VARIATION SPACE TO SPHERICAL HARMONICS.
 THE NUMBER OF ORBITALS KEPT IN THE VARIATIONAL SPACE WILL BE PRINTED LATER.
 NUMBER OF ELECTRONS                          =   50
 CHARGE OF MOLECULE                           =    0
 SPIN MULTIPLICITY                            =    1
 NUMBER OF OCCUPIED ORBITALS (ALPHA)          =   25
 NUMBER OF OCCUPIED ORBITALS (BETA )          =   25
 TOTAL NUMBER OF ATOMS                        =   15
 THE NUCLEAR REPULSION ENERGY IS      205.8738721656

     $CONTRL OPTIONS
     ---------------
 SCFTYP=RHF          RUNTYP=GLOBOP       EXETYP=RUN     
 MPLEVL=       0     CITYP =NONE         CCTYP =NONE         VBTYP =NONE    
 DFTTYP=NONE         TDDFT =NONE    
 MULT  =       1     ICHARG=       0     NZVAR =       0     COORD =UNIQUE  
 PP    =NONE         RELWFN=NONE         LOCAL =NONE         NUMGRD=       F
 ISPHER=       1     NOSYM =       0     MAXIT =      30     UNITS =ANGS    
 PLTORB=       F     MOLPLT=       F     AIMPAC=       F     FRIEND=        
 NPRINT=       7     IREST =       0     GEOM  =INPUT   
 NORMF =       0     NORMP =       0     ITOL  =      20     ICUT  =       9
 INTTYP=BEST         GRDTYP=BEST         QMTTOL= 1.0E-06

     $SYSTEM OPTIONS
     ---------------
  REPLICATED MEMORY=   100000000 WORDS (ON EVERY NODE).
 DISTRIBUTED MEMDDI=         300 MILLION WORDS IN AGGREGATE,
 MEMDDI DISTRIBUTED OVER   1 PROCESSORS IS   300000000 WORDS/PROCESSOR.
 TOTAL MEMORY REQUESTED ON EACH PROCESSOR=   400000000 WORDS.
 TIMLIM=      525600.00 MINUTES, OR     365.0 DAYS.
 PARALL= F  BALTYP=  DLB     KDIAG=    0  COREFL= F
 MXSEQ2=     300 MXSEQ3=     150  mem10=         0

          ----------------
          PROPERTIES INPUT
          ----------------

     MOMENTS            FIELD           POTENTIAL          DENSITY
 IEMOM =       1   IEFLD =       0   IEPOT =       0   IEDEN =       0
 WHERE =COMASS     WHERE =NUCLEI     WHERE =NUCLEI     WHERE =NUCLEI  
 OUTPUT=BOTH       OUTPUT=BOTH       OUTPUT=BOTH       OUTPUT=BOTH    
 IEMINT=       0   IEFINT=       0                     IEDINT=       0
                                                       MORB  =       0
          EXTRAPOLATION IN EFFECT
          SOSCF IN EFFECT
 ORBITAL PRINTING OPTION: NPREO=     1    35     2     1

     -------------------------------
     INTEGRAL TRANSFORMATION OPTIONS
     -------------------------------
     NWORD  =            0
     CUTOFF = 1.0E-09     MPTRAN =       0
     DIRTRF =       T     AOINTS =DUP     

          ----------------------
          INTEGRAL INPUT OPTIONS
          ----------------------
 NOPK  =       1 NORDER=       0 SCHWRZ=       T

     ------------------------------------------
     THE POINT GROUP IS C1 , NAXIS= 0, ORDER= 1
     ------------------------------------------

 -- VARIATIONAL SPACE WILL BE RESTRICTED TO PURE SPHERICAL HARMONICS ONLY --
 AFTER EXCLUDING CONTAMINANT COMBINATIONS FROM THE CARTESIAN GAUSSIAN BASIS
 SET, THE NUMBER OF SPHERICAL HARMONICS KEPT IN THE VARIATION SPACE IS   35

     DIMENSIONS OF THE SYMMETRY SUBSPACES ARE
 A   =   35

 ..... DONE SETTING UP THE RUN .....
 STEP CPU TIME =     0.03 TOTAL CPU TIME =        0.0 (    0.0 MIN)
 TOTAL WALL CLOCK TIME=        0.0 SECONDS, CPU UTILIZATION IS 100.00%
 AIFRG=    1    1    1    2    2    2    3    3    3    4
 AIFRG=    4    4    5    5    5

          ---- MONTE CARLO/SIMULATED ANNEALING OPTIONS -----
 TEMPI=    2000.0 TEMPF=      20.0 NTEMPS=   2 NGEOPT=   40
 NFRMOV=   1 NTRAN=   2 NROT=   2 NBLOCK=  10 SCALE=  1.00  1.00 SEPTOL= 1.500
 MCMIN= F NSTMIN=  10 OPTN= T
 XMIN/XMAX= -1.00E+01  1.00E+01
 YMIN/YMAX= -1.00E+01  1.00E+01
 ZMIN/ZMAX= -1.00E+01  1.00E+01
 ALPHA=    0.0000 DACRAT=    0.5000 UPDFAC=    0.9500 BOLTWT=STANDARD
 AIMOVE=   0.0000  NPRT=   1  RANDOM=RAND3    RNDINI= T  RIORD=RAND    
   NAIFG=   5 NFMOMOV=   1
 NSMSTP=
 IFXFRG=
 NFRMOV=                    1  IS GREATER THAN THE NUMBER OF FRAGMENTS=                    0
  
 BEGINNING RANDOMIZING FMO CLUSTER FRAGMENTS
 Proximity alert between atom                    1 and atom                    7
 Proximity alert between atom                    1 and atom                    5
 Proximity alert between atom                    1 and atom                   15
 Proximity alert between atom                    1 and atom                   15
 Proximity alert between atom                    4 and atom                   15
 Proximity alert between atom                    2 and atom                   14
 Proximity alert between atom                    4 and atom                   13
 Proximity alert between atom                    1 and atom                    5
 Proximity alert between atom                    4 and atom                   15
 Proximity alert between atom                    4 and atom                   13
 Randomized coordinates:
 COORDINATES OF ALL ATOMS ARE (ANGS)
   ATOM   CHARGE       X              Y              Z
 ------------------------------------------------------------
 O           8.0   0.6386174851   1.5707362600  -0.6072274268
 H           1.0   1.1608320298   2.0025541627  -1.2878991310
 H           1.0  -0.2588885770   1.8080650553  -0.7902378966
 O           8.0  -2.2341165543  -1.8464844297   1.8825918356
 H           1.0  -3.0154438684  -1.4263502119   1.5193154066
 H           1.0  -1.5974857798  -1.8187166047   1.1822675240
 O           8.0  -0.8394821660  -1.7626509598   4.2144278689
 H           1.0  -0.0538602097  -2.2378580766   3.9861050536
 H           1.0  -1.4280841594  -1.8752480057   3.4663664688
 O           8.0   5.4188083874   0.3591250856  -0.6077127840
 H           1.0   5.3293142143   0.9541148440  -1.3469009802
 H           1.0   4.5680027308  -0.0433376476  -0.5092133527
 O           8.0  -1.5293423456   0.0891540449   0.4387623070
 H           1.0  -1.0004743328  -0.6050466172   0.0561500554
 H           1.0  -2.2092229592   0.2085728743  -0.2151779144

 -------------------     ----------------------------------------------
 GLOBAL OPTIMIZATION     WRITTEN BY PAUL DAY AND PRADIPTA BANDYOPADHYAY
 -------------------     ----------------------------------------------

          ********************
          1 ELECTRON INTEGRALS
          ********************

          -------------
          GUESS OPTIONS
          -------------
          GUESS =HUCKEL            NORB  =       0          NORDER=       0
          MIX   =       F          PRTMO =       F          PUNMO =       F
          TOLZ  = 1.0E-08          TOLE  = 1.0E-05
          SYMDEN=       F          PURIFY=       F

 INITIAL GUESS ORBITALS GENERATED BY HUCKEL   ROUTINE.
 HUCKEL GUESS REQUIRES     23880 WORDS.

 SYMMETRIES FOR INITIAL GUESS ORBITALS FOLLOW.   BOTH SET(S).
    25 ORBITALS ARE OCCUPIED (    5 CORE ORBITALS).
     6=A        7=A        8=A        9=A       10=A       11=A       12=A   
    13=A       14=A       15=A       16=A       17=A       18=A       19=A   
    20=A       21=A       22=A       23=A       24=A       25=A       26=A   
    27=A       28=A       29=A       30=A       31=A       32=A       33=A   
    34=A       35=A   
 ...... END OF INITIAL ORBITAL SELECTION ......

                    ----------------------
                    AO INTEGRAL TECHNOLOGY
                    ----------------------
     S,P,L SHELL ROTATED AXIS INTEGRALS, REPROGRAMMED BY
        KAZUYA ISHIMURA (IMS) AND JOSE SIERRA (SYNSTAR).
     S,P,D,L SHELL ROTATED AXIS INTEGRALS PROGRAMMED BY
        KAZUYA ISHIMURA (INSTITUTE FOR MOLECULAR SCIENCE).
     S,P,D,F,G SHELL TO TOTAL QUARTET ANGULAR MOMENTUM SUM 5,
        ERIC PROGRAM BY GRAHAM FLETCHER (ELORET AND NASA ADVANCED
        SUPERCOMPUTING DIVISION, AMES RESEARCH CENTER).
     S,P,D,F,G,L SHELL GENERAL RYS QUADRATURE PROGRAMMED BY
        MICHEL DUPUIS (PACIFIC NORTHWEST NATIONAL LABORATORY).

          --------------------
          2 ELECTRON INTEGRALS
          --------------------

 DIRECT SCF METHOD SKIPS INTEGRAL STORAGE ON DISK.
 DIRECT TRANSFORMATION SKIPS AO INTEGRAL STORAGE ON DISK.
 SCHWARZ INEQUALITY OVERHEAD:       537 INTEGRALS, T=        0.00

     ----------------------------------------------------------------
     PROPERTY VALUES FOR THE RHF   SELF-CONSISTENT FIELD WAVEFUNCTION
     ----------------------------------------------------------------

          -----------------
          ENERGY COMPONENTS
          -----------------

         WAVEFUNCTION NORMALIZATION =       1.0000000000

                ONE ELECTRON ENERGY =    -858.6772940271
                TWO ELECTRON ENERGY =     312.8770961358
           NUCLEAR REPULSION ENERGY =     168.2983441273
                                      ------------------
                       TOTAL ENERGY =    -377.5018537641

 ELECTRON-ELECTRON POTENTIAL ENERGY =     312.8770961358
  NUCLEUS-ELECTRON POTENTIAL ENERGY =   -1238.5492187649
   NUCLEUS-NUCLEUS POTENTIAL ENERGY =     168.2983441273
                                      ------------------
             TOTAL POTENTIAL ENERGY =    -757.3737785019
               TOTAL KINETIC ENERGY =     379.8719247377
                 VIRIAL RATIO (V/T) =       1.9937608683

          ---------------------------------------
          MULLIKEN AND LOWDIN POPULATION ANALYSES
          ---------------------------------------

     ATOMIC MULLIKEN POPULATION IN EACH MOLECULAR ORBITAL

                      1          2          3          4          5

                  2.000000   2.000000   2.000000   2.000000   2.000000

    1             0.000004   0.000000   2.003079   0.000000   0.000000
    2            -0.000000  -0.000000  -0.001491   0.000000  -0.000000
    3            -0.000001   0.000000  -0.001592  -0.000000  -0.000000
    4             0.000005   2.003112   0.000000   0.000000   0.000039
    5            -0.000001  -0.001488  -0.000000  -0.000000  -0.000000
    6            -0.000001  -0.001613   0.000000   0.000000  -0.000000
    7             0.000000   0.000042   0.000000   0.000000   2.003128
    8            -0.000000   0.000000   0.000000   0.000000  -0.001592
    9            -0.000000  -0.000060  -0.000000  -0.000000  -0.001575
   10             0.000000   0.000000   0.000000   2.003126   0.000000
   11            -0.000000   0.000000  -0.000000  -0.001539   0.000000
   12            -0.000000  -0.000000  -0.000000  -0.001587   0.000000
   13             2.003076   0.000005   0.000004   0.000000   0.000000
   14            -0.001531   0.000002  -0.000000  -0.000000   0.000000
   15            -0.001550   0.000000  -0.000000  -0.000000  -0.000000

                      6          7          8          9         10

                  2.000000   2.000000   2.000000   2.000000   2.000000

    1             0.009373   0.056998   1.551517   0.000017   0.000002
    2             0.000861   0.006339   0.180418   0.000002   0.000000
    3             0.001808   0.007648   0.185097   0.000002   0.000000
    4             0.238012   1.329150   0.033744   0.000000   0.018024
    5             0.028603   0.144594   0.003565   0.000000   0.002810
    6             0.038690   0.154201   0.003521   0.000000   0.002512
    7             0.001009   0.013647   0.000451   0.000000   1.597637
    8             0.000095   0.001405   0.000047   0.000000   0.203432
    9             0.001011   0.008525   0.000247   0.000000   0.175156
   10             0.000000   0.000000   0.000016   1.616095   0.000000
   11             0.000000   0.000000   0.000002   0.190098   0.000000
   12             0.000000   0.000000   0.000002   0.193787  -0.000000
   13             1.358300   0.223593   0.033567   0.000000   0.000347
   14             0.162952   0.025237   0.003509   0.000000   0.000028
   15             0.159286   0.028664   0.004294   0.000000   0.000051

                     11         12         13         14         15

                  2.000000   2.000000   2.000000   2.000000   2.000000

    1             0.000820   0.946598   0.227525   0.000082   0.002380
    2             0.000038   0.324176   0.074937   0.000028   0.000646
    3             0.000167   0.316478   0.083074   0.000027   0.000772
    4             0.388217   0.155542   0.668291   0.000002   0.405181
    5             0.127008   0.049648   0.234016   0.000001   0.007909
    6             0.171361   0.044993   0.158860   0.000000   0.048808
    7             0.000309   0.001334   0.014022   0.000000   0.851275
    8             0.000004   0.000261   0.003318   0.000000   0.280771
    9             0.000084   0.000828   0.009022   0.000000   0.364465
   10             0.000000   0.000054   0.000030   1.193828   0.000000
   11             0.000000   0.000016   0.000009   0.405048   0.000000
   12             0.000000   0.000023   0.000012   0.400980   0.000000
   13             0.777561   0.106924   0.321526   0.000003   0.031005
   14             0.275460   0.023983   0.098155   0.000000   0.002496
   15             0.258971   0.029143   0.107201   0.000000   0.004291

                     16         17         18         19         20

                  2.000000   2.000000   2.000000   2.000000   2.000000

    1             0.002472   0.018282   1.752750   0.000001   0.027831
    2             0.000051   0.000704   0.118542   0.000000   0.005397
    3             0.000003   0.003132   0.102883   0.000000  -0.000004
    4             0.112258   0.838161   0.013315   0.000000   0.900557
    5             0.003068   0.065799   0.000529   0.000000   0.004566
    6             0.003789   0.048657   0.000829   0.000000   0.011780
    7             0.010661   0.305011   0.005036   0.000000   0.295669
    8             0.003935   0.112619   0.001640   0.000000   0.070473
    9             0.000727   0.015341  -0.000000  -0.000000   0.002075
   10             0.000000   0.000000   0.000000   1.777699   0.000001
   11             0.000000   0.000000   0.000000   0.113381   0.000000
   12             0.000000   0.000000   0.000000   0.108918   0.000000
   13             1.651076   0.571555   0.003668   0.000000   0.679497
   14             0.112576   0.003703   0.000085   0.000000   0.000764
   15             0.099384   0.017036   0.000724   0.000000   0.001397

                     21         22         23         24         25

                  2.000000   2.000000   2.000000   2.000000   2.000000

    1             1.782891   0.206045   0.000001   0.000249   0.000002
    2             0.000337   0.002258   0.000000   0.000028   0.000000
    3             0.000003   0.000018   0.000000   0.000000  -0.000000
    4             0.167479   1.008321   0.000006   0.304567   0.008164
    5             0.000512   0.003639   0.000000   0.014200   0.000094
    6             0.000585   0.005106   0.000000   0.006350   0.000000
    7             0.006457   0.012496   0.000000   1.518483   1.991458
    8             0.000700   0.000818   0.000000   0.053089   0.000001
    9             0.000209   0.000246   0.000000   0.092475   0.000020
   10             0.000000   0.000012   1.999988   0.000000   0.000000
   11             0.000000   0.000000   0.000000   0.000000   0.000000
   12             0.000000   0.000000  -0.000000   0.000000  -0.000000
   13             0.040490   0.759133   0.000005   0.010507   0.000254
   14             0.000006   0.000204   0.000000   0.000028   0.000000
   15             0.000331   0.001705   0.000000   0.000024   0.000005

               ----- POPULATIONS IN EACH AO -----
                             MULLIKEN      LOWDIN
              1  O  1  S      1.99524     1.99497
              2  O  1  S      1.80414     1.63846
              3  O  1  X      1.25023     1.25635
              4  O  1  Y      1.85086     1.85015
              5  O  1  Z      1.68845     1.68791
              6  H  2  S      0.71327     0.79128
              7  H  3  S      0.69951     0.78282
              8  O  4  S      1.99503     1.99469
              9  O  4  S      1.79122     1.62288
             10  O  4  X      1.29840     1.30253
             11  O  4  Y      1.89267     1.89203
             12  O  4  Z      1.61483     1.60928
             13  H  5  S      0.68907     0.77190
             14  H  6  S      0.69843     0.78085
             15  O  7  S      1.99512     1.99487
             16  O  7  S      1.79822     1.63347
             17  O  7  X      1.32687     1.33492
             18  O  7  Y      1.84367     1.84432
             19  O  7  Z      1.66423     1.66087
             20  H  8  S      0.73102     0.80732
             21  H  9  S      0.66880     0.75996
             22  O 10  S      1.99520     1.99494
             23  O 10  S      1.80256     1.63499
             24  O 10  X      1.52757     1.52739
             25  O 10  Y      1.63674     1.64008
             26  O 10  Z      1.62877     1.63029
             27  H 11  S      0.70702     0.78743
             28  H 12  S      0.70213     0.78488
             29  O 13  S      1.99536     1.99514
             30  O 13  S      1.81511     1.64906
             31  O 13  X      1.45515     1.46200
             32  O 13  Y      1.65801     1.65876
             33  O 13  Z      1.64847     1.64679
             34  H 14  S      0.70766     0.78560
             35  H 15  S      0.71096     0.79083

          ----- MULLIKEN ATOMIC OVERLAP POPULATIONS -----
          (OFF-DIAGONAL ELEMENTS NEED TO BE MULTIPLIED BY 2)

             1           2           3           4           5

    1    7.9862112
    2    0.3005586   0.4502174
    3    0.3033840  -0.0375414   0.4334945
    4   -0.0000000   0.0000000   0.0000000   7.9909817
    5    0.0000000  -0.0000000   0.0000000   0.3042011   0.4224043
    6    0.0000000  -0.0000000   0.0000002   0.3061211  -0.0379006
    7   -0.0000000   0.0000000   0.0000000  -0.0074690   0.0001267
    8    0.0000000  -0.0000000  -0.0000000   0.0003238  -0.0000034
    9    0.0000000  -0.0000000  -0.0000000   0.0089903  -0.0001786
   10   -0.0000000  -0.0000000   0.0000000   0.0000000   0.0000000
   11    0.0000000   0.0000000  -0.0000000   0.0000000   0.0000000
   12    0.0000000   0.0000001  -0.0000000   0.0000000   0.0000000
   13   -0.0013046   0.0000376   0.0003586  -0.0095187   0.0005077
   14    0.0000650   0.0000011  -0.0001584  -0.0017199   0.0000534
   15    0.0000051  -0.0000020  -0.0000229   0.0002372  -0.0001385

             6           7           8           9          10

    6    0.4348414
    7    0.0001699   8.0315335
    8   -0.0000153   0.3023749   0.4652465
    9   -0.0010265   0.3013891  -0.0369106   0.3965246
   10    0.0000000   0.0000000   0.0000000   0.0000000   7.9846736
   11    0.0000000   0.0000000   0.0000000   0.0000000   0.3027355
   12   -0.0000000   0.0000000  -0.0000000  -0.0000000   0.3034397
   13   -0.0018856  -0.0000004   0.0000000   0.0000076   0.0000000
   14   -0.0019057   0.0000000  -0.0000000   0.0000022  -0.0000000
   15    0.0000299   0.0000000  -0.0000000  -0.0000000   0.0000000

            11          12          13          14          15

   11    0.4425712
   12   -0.0382899   0.4369846
   13    0.0000000   0.0000000   7.9834236
   14    0.0000000   0.0000000   0.3014964   0.4497858
   15    0.0000000   0.0000000   0.2989730  -0.0399633   0.4518366

          TOTAL MULLIKEN AND LOWDIN ATOMIC POPULATIONS
       ATOM         MULL.POP.    CHARGE          LOW.POP.     CHARGE
    1 O             8.588919   -0.588919         8.427836   -0.427836
    2 H             0.713271    0.286729         0.791280    0.208720
    3 H             0.699515    0.300485         0.782821    0.217179
    4 O             8.592148   -0.592148         8.421413   -0.421413
    5 H             0.689072    0.310928         0.771898    0.228102
    6 H             0.698429    0.301571         0.780851    0.219149
    7 O             8.628125   -0.628125         8.468441   -0.468441
    8 H             0.731016    0.268984         0.807324    0.192676
    9 H             0.668798    0.331202         0.759956    0.240044
   10 O             8.590849   -0.590849         8.427691   -0.427691
   11 H             0.707017    0.292983         0.787431    0.212569
   12 H             0.702135    0.297865         0.784878    0.215122
   13 O             8.572095   -0.572095         8.411747   -0.411747
   14 H             0.707657    0.292343         0.785602    0.214398
   15 H             0.710955    0.289045         0.790831    0.209169

          MULLIKEN SPHERICAL HARMONIC POPULATIONS
       ATOM           S       P       D      F      G      H      I    TOTAL
    1 O             3.80    4.79    0.00   0.00   0.00   0.00   0.00    8.59
    2 H             0.71    0.00    0.00   0.00   0.00   0.00   0.00    0.71
    3 H             0.70    0.00    0.00   0.00   0.00   0.00   0.00    0.70
    4 O             3.79    4.81    0.00   0.00   0.00   0.00   0.00    8.59
    5 H             0.69    0.00    0.00   0.00   0.00   0.00   0.00    0.69
    6 H             0.70    0.00    0.00   0.00   0.00   0.00   0.00    0.70
    7 O             3.79    4.83    0.00   0.00   0.00   0.00   0.00    8.63
    8 H             0.73    0.00    0.00   0.00   0.00   0.00   0.00    0.73
    9 H             0.67    0.00    0.00   0.00   0.00   0.00   0.00    0.67
   10 O             3.80    4.79    0.00   0.00   0.00   0.00   0.00    8.59
   11 H             0.71    0.00    0.00   0.00   0.00   0.00   0.00    0.71
   12 H             0.70    0.00    0.00   0.00   0.00   0.00   0.00    0.70
   13 O             3.81    4.76    0.00   0.00   0.00   0.00   0.00    8.57
   14 H             0.71    0.00    0.00   0.00   0.00   0.00   0.00    0.71
   15 H             0.71    0.00    0.00   0.00   0.00   0.00   0.00    0.71

          -------------------------------
          BOND ORDER AND VALENCE ANALYSIS     BOND ORDER THRESHOLD=0.050
          -------------------------------

                   BOND                       BOND                       BOND
  ATOM PAIR DIST  ORDER      ATOM PAIR DIST  ORDER      ATOM PAIR DIST  ORDER
    1   2  0.960  0.907        1   3  0.946  0.897        4   5  0.959  0.889
    4   6  0.947  0.890        7   8  0.946  0.918        7   9  0.959  0.843
   10  11  0.953  0.904       10  12  0.946  0.901       13  14  0.953  0.904
   13  15  0.951  0.907

                       TOTAL       BONDED        FREE
      ATOM            VALENCE     VALENCE     VALENCE
    1 O                 1.806       1.806       0.000
    2 H                 0.918       0.918       0.000
    3 H                 0.910       0.910       0.000
    4 O                 1.839       1.839       0.000
    5 H                 0.903       0.903       0.000
    6 H                 0.909       0.909       0.000
    7 O                 1.781       1.781       0.000
    8 H                 0.928       0.928      -0.000
    9 H                 0.890       0.890       0.000
   10 O                 1.805       1.805      -0.000
   11 H                 0.914       0.914      -0.000
   12 H                 0.911       0.911      -0.000
   13 O                 1.829       1.829      -0.000
   14 H                 0.915       0.915      -0.000
   15 H                 0.916       0.916      -0.000

          ---------------------
          ELECTROSTATIC MOMENTS
          ---------------------

 POINT   1           X           Y           Z (BOHR)    CHARGE
                 0.519805   -0.597870    1.914106       -0.00 (A.U.)
         DX          DY          DZ         /D/  (DEBYE)
    -3.089529    0.385558   -8.985504    9.509633
 ...... END OF PROPERTY EVALUATION ......

   ENERGY ACCEPTED AT GLOBAL SEARCH POINT     0 IS      -377.5018537641
 GAMR=    0.010000 DACRAT=    0.500000 UPDFAC=    0.950000
 TEMPERATURE NUMBER   1 IS   2000.00
 MAX.DISP.:  1   1.88973   1.88973   1.88973   1.00000   1.00000   1.00000
 MAX.DISP.:  2   1.88973   1.88973   1.88973   1.00000   1.00000   1.00000
 MAX.DISP.:  3   1.88973   1.88973   1.88973   1.00000   1.00000   1.00000
 MAX.DISP.:  4   1.88973   1.88973   1.88973   1.00000   1.00000   1.00000
 MAX.DISP.:  5   1.88973   1.88973   1.88973   1.00000   1.00000   1.00000
 MC NBLOCK ii at temp number                    1                    1

  COORDINATES OF MINIMUM ENERGY GEOMETRY (ANGS):

   1  O            0.6386174851267   1.5707362599980  -0.6072274268303
   2  H            1.1608320297612   2.0025541626997  -1.2878991309908
   3  H           -0.2588885769978   1.8080650553308  -0.7902378965872
   4  O           -1.3667403343369  -2.7785693217243   1.4380421655949
   5  H           -2.1480676483621  -2.3584351038541   1.0747657366328
   6  H           -0.7301095598028  -2.7508014967476   0.7377178540004
   7  O           -0.8394821659582  -1.7626509597624   4.2144278688827
   8  H           -0.0538602097253  -2.2378580766188   3.9861050536435
   9  H           -1.4280841594347  -1.8752480057208   3.4663664688394
  10  O            5.4188083873610   0.3591250855594  -0.6077127840443
  11  H            5.3293142142883   0.9541148439763  -1.3469009801736
  12  H            4.5680027308345  -0.0433376476218  -0.5092133526504
  13  O           -1.5293423456395   0.0891540448728   0.4387623070448
  14  H           -1.0004743328010  -0.6050466172290   0.0561500553722
  15  H           -2.2092229591507   0.2085728742766  -0.2151779144417

  COORDINATES OF MINIMUM ENERGY GEOMETRY (ANGS):

   1  O            0.6386174851267   1.5707362599980  -0.6072274268303
   2  H            1.1608320297612   2.0025541626997  -1.2878991309908
   3  H           -0.2588885769978   1.8080650553308  -0.7902378965872
   4  O           -1.3667403343369  -2.7785693217243   1.4380421655949
   5  H           -2.1480676483621  -2.3584351038541   1.0747657366328
   6  H           -0.7301095598028  -2.7508014967476   0.7377178540004
   7  O           -0.8394821659582  -1.7626509597624   4.2144278688827
   8  H           -0.0538602097253  -2.2378580766188   3.9861050536435
   9  H           -1.4280841594347  -1.8752480057208   3.4663664688394
  10  O            4.4694261853610   0.7349958275594  -0.0501576500443
  11  H            4.3799320122883   1.3299855859763  -0.7893458461736
  12  H            3.6186205288345   0.3325330943782   0.0483417813496
  13  O           -1.5293423456395   0.0891540448728   0.4387623070448
  14  H           -1.0004743328010  -0.6050466172290   0.0561500553722
  15  H           -2.2092229591507   0.2085728742766  -0.2151779144417

  COORDINATES OF MINIMUM ENERGY GEOMETRY (ANGS):

   1  O            0.6386174851267   1.5707362599980  -0.6072274268303
   2  H            1.1608320297612   2.0025541626997  -1.2878991309908
   3  H           -0.2588885769978   1.8080650553308  -0.7902378965872
   4  O           -1.3667403343369  -2.7785693217243   1.4380421655949
   5  H           -2.1480676483621  -2.3584351038541   1.0747657366328
   6  H           -0.7301095598028  -2.7508014967476   0.7377178540004
   7  O           -0.8394821659582  -1.7626509597624   4.2144278688827
   8  H           -0.0538602097253  -2.2378580766188   3.9861050536435
   9  H           -1.4280841594347  -1.8752480057208   3.4663664688394
  10  O            4.6960136350799   0.1819670755054  -0.9775392717393
  11  H            4.5630409429382   1.1208334014040  -1.0738174840725
  12  H            4.4163493790456  -0.0187502770358  -0.0960353845965
  13  O           -1.5293423456395   0.0891540448728   0.4387623070448
  14  H           -1.0004743328010  -0.6050466172290   0.0561500553722
  15  H           -2.2092229591507   0.2085728742766  -0.2151779144417
 MC NBLOCK ii at temp number                    2                    1
 Proximity alert between atom                    1 and atom                   15
 MC NBLOCK ii at temp number                    3                    1

  COORDINATES OF MINIMUM ENERGY GEOMETRY (ANGS):

   1  O           -0.3183485488733   2.0051007559980  -1.4938433988303
   2  H            0.2038659957612   2.4369186586997  -2.1745151029908
   3  H           -1.2158546109978   2.2424295513308  -1.6768538685872
   4  O           -1.2361729272667  -2.6128273032115   1.5061419812777
   5  H           -1.5275061200406  -3.5256801018045   1.5340639331413
   6  H           -0.8497882509360  -2.5089647494255   0.6479791829604
   7  O           -0.9236484499582  -1.5552928737624   3.9539107588827
   8  H           -0.1380264937253  -2.0304999906188   3.7255879436435
   9  H           -1.5122504434347  -1.6678899197208   3.2058493588394
  10  O            5.4307973410799  -0.1379352224946  -0.1926625217393
  11  H            5.2978246489382   0.8009311034040  -0.2889407340725
  12  H            5.1511330850456  -0.3386525750358   0.6888413654035
  13  O           -2.2644193276395   0.2513465948728   1.3375729550448
  14  H           -1.7355513148010  -0.4428540672290   0.9549607033722
  15  H           -2.9442999411507   0.3707654242766   0.6836327335583
 MC NBLOCK ii at temp number                    4                    1
 Proximity alert between atom                    4 and atom                    9
 Proximity alert between atom                    4 and atom                    9
 MC NBLOCK ii at temp number                    5                    1
 MC NBLOCK ii at temp number                    6                    1

  COORDINATES OF MINIMUM ENERGY GEOMETRY (ANGS):

   1  O           -0.3183485488733   2.0051007559980  -1.4938433988303
   2  H            0.2038659957612   2.4369186586997  -2.1745151029908
   3  H           -1.2158546109978   2.2424295513308  -1.6768538685872
   4  O           -1.2361729272667  -2.6128273032115   1.5061419812777
   5  H           -1.5275061200406  -3.5256801018045   1.5340639331413
   6  H           -0.8497882509360  -2.5089647494255   0.6479791829604
   7  O           -0.6987923979582  -1.9423772917624   4.9444183168827
   8  H            0.0868295582747  -2.4175844086188   4.7160955016435
   9  H           -1.2873943914347  -2.0549743377208   4.1963569168394
  10  O            4.8060618722395   0.1156563825180  -1.1347502087279
  11  H            4.1641791774827   0.8193393678016  -1.1699364464624
  12  H            4.9735675697497  -0.0210420854711  -0.2134445998699
  13  O           -2.4436171950917   0.5166019335016   0.0713502378782
  14  H           -2.9255612204046  -0.1936400963104   0.4852273753840
  15  H           -2.7170147036422   1.2705211078573   0.5822279136280

  COORDINATES OF MINIMUM ENERGY GEOMETRY (ANGS):

   1  O           -0.3183485488733   2.0051007559980  -1.4938433988303
   2  H            0.2038659957612   2.4369186586997  -2.1745151029908
   3  H           -1.2158546109978   2.2424295513308  -1.6768538685872
   4  O           -1.2361729272667  -2.6128273032115   1.5061419812777
   5  H           -1.5275061200406  -3.5256801018045   1.5340639331413
   6  H           -0.8497882509360  -2.5089647494255   0.6479791829604
   7  O           -0.1570003471916  -2.9927902922468   4.3360233270863
   8  H            0.4624779415851  -2.3140270460704   4.1108965286833
   9  H           -0.9449016975489  -2.7929826904880   3.8280719080486
  10  O            4.8060618722395   0.1156563825180  -1.1347502087279
  11  H            4.1641791774827   0.8193393678016  -1.1699364464624
  12  H            4.9735675697497  -0.0210420854711  -0.2134445998699
  13  O           -2.4436171950917   0.5166019335016   0.0713502378782
  14  H           -2.9255612204046  -0.1936400963104   0.4852273753840
  15  H           -2.7170147036422   1.2705211078573   0.5822279136280

  COORDINATES OF MINIMUM ENERGY GEOMETRY (ANGS):

   1  O           -0.3183485488733   2.0051007559980  -1.4938433988303
   2  H            0.2038659957612   2.4369186586997  -2.1745151029908
   3  H           -1.2158546109978   2.2424295513308  -1.6768538685872
   4  O           -1.2361729272667  -2.6128273032115   1.5061419812777
   5  H           -1.5275061200406  -3.5256801018045   1.5340639331413
   6  H           -0.8497882509360  -2.5089647494255   0.6479791829604
   7  O           -0.4954829232369  -3.0595280696715   4.4266459963126
   8  H           -0.2010994380105  -3.1204735525301   3.5295512511880
   9  H           -1.0680002634154  -2.2912135531392   4.4520026246101
  10  O            4.8060618722395   0.1156563825180  -1.1347502087279
  11  H            4.1641791774827   0.8193393678016  -1.1699364464624
  12  H            4.9735675697497  -0.0210420854711  -0.2134445998699
  13  O           -2.4436171950917   0.5166019335016   0.0713502378782
  14  H           -2.9255612204046  -0.1936400963104   0.4852273753840
  15  H           -2.7170147036422   1.2705211078573   0.5822279136280
 MC NBLOCK ii at temp number                    7                    1

  COORDINATES OF MINIMUM ENERGY GEOMETRY (ANGS):

   1  O            0.5396806431267   1.1445905459980  -1.3054136628303
   2  H            1.0618951877612   1.5764084486997  -1.9860853669908
   3  H           -0.3578254189978   1.3819193413308  -1.4884241325872
   4  O           -1.2361729272667  -2.6128273032115   1.5061419812777
   5  H           -1.5275061200406  -3.5256801018045   1.5340639331413
   6  H           -0.8497882509360  -2.5089647494255   0.6479791829604
   7  O           -0.4954829232369  -3.0595280696715   4.4266459963126
   8  H           -0.2010994380105  -3.1204735525301   3.5295512511880
   9  H           -1.0680002634154  -2.2912135531392   4.4520026246101
  10  O            4.7884609222395   0.3445596165180  -0.4409979927279
  11  H            4.1465782274827   1.0482426018016  -0.4761842304624
  12  H            4.9559666197497   0.2078611485289   0.4803076161301
  13  O           -2.4436171950917   0.5166019335016   0.0713502378782
  14  H           -2.9255612204046  -0.1936400963104   0.4852273753840
  15  H           -2.7170147036422   1.2705211078573   0.5822279136280
 Proximity alert between atom                    2 and atom                   13
 MC NBLOCK ii at temp number                    8                    1
 MC NBLOCK ii at temp number                    9                    1
 Proximity alert between atom                    4 and atom                   14
 MC NBLOCK ii at temp number                   10                    1

          -------------------------------
          STATISTICS FROM MONTE CARLO RUN
          -------------------------------

 AT TEMPERATURE =                 2000.00
 NUMBER OF GEOMETRIES REJECTED 
  DUE TO PROXIMITY ALERT =           5
 NUMBER OF ENERGY EVALUATIONS =     35
 NUMBER OF ENERGIES REJECTED =       4
 NUMBER OF ENERGIES ACCEPTED =      31
 ACCEPTANCE RATIO =                  0.886
 MINIMUM ENERGY FOUND SO FAR =    -377.5195163387  AT GEOMETRY NUMBER     26


 TEMPERATURE NUMBER   2 IS     20.00
 MAX.DISP.:  1   1.98919   1.98919   1.98919   1.05263   1.05263   1.05263
 MAX.DISP.:  2   1.98919   1.98919   1.98919   1.05263   1.05263   1.05263
 MAX.DISP.:  3   1.98919   1.98919   1.98919   1.05263   1.05263   1.05263
 MAX.DISP.:  4   1.98919   1.98919   1.98919   1.05263   1.05263   1.05263
 MAX.DISP.:  5   1.98919   1.98919   1.98919   1.05263   1.05263   1.05263
 MC NBLOCK ii at temp number                    1                    2
 MC NBLOCK ii at temp number                    2                    2
 MC NBLOCK ii at temp number                    3                    2
 MC NBLOCK ii at temp number                    4                    2

  COORDINATES OF MINIMUM ENERGY GEOMETRY (ANGS):

   1  O            1.2269903503412   1.3413720492791  -0.0257536645973
   2  H            1.9269475866419   1.9470236036219   0.2306342497801
   3  H            1.2279698548057   1.3418279401687  -0.9719744387401
   4  O            0.0461652309438  -1.5639533065799   2.1865855903304
   5  H           -0.2451679618301  -2.4768061051729   2.2145075421939
   6  H            0.4325499072745  -1.4600907527939   1.3284227920130
   7  O           -0.2064053335085  -2.3006275361135   5.4358622722568
   8  H           -0.4796727494226  -2.9255647408722   4.7801692194546
   9  H            0.1937824976510  -1.5805396638379   4.9459138915969
  10  O            3.6498519169805   2.8719753846585  -0.2742486715476
  11  H            3.7547973991532   2.5241391498372  -1.1553942942733
  12  H            4.5297758548602   3.0294841381255   0.0363531811347
  13  O           -4.8906526199413   0.6300391573575  -1.3068011694480
  14  H           -4.4650132909925  -0.1891283808839  -1.0705729422192
  15  H           -4.1503796218213   1.1894821637104  -1.5145407410744

  COORDINATES OF MINIMUM ENERGY GEOMETRY (ANGS):

   1  O            1.2269903503412   1.3413720492791  -0.0257536645973
   2  H            1.9269475866419   1.9470236036219   0.2306342497801
   3  H            1.2279698548057   1.3418279401687  -0.9719744387401
   4  O            0.0461652309438  -1.5639533065799   2.1865855903304
   5  H           -0.2451679618301  -2.4768061051729   2.2145075421939
   6  H            0.4325499072745  -1.4600907527939   1.3284227920130
   7  O           -0.2064053335085  -2.3006275361135   5.4358622722568
   8  H           -0.4796727494226  -2.9255647408722   4.7801692194546
   9  H            0.1937824976510  -1.5805396638379   4.9459138915969
  10  O            3.6498519169805   2.8719753846585  -0.2742486715476
  11  H            3.7547973991532   2.5241391498372  -1.1553942942733
  12  H            4.5297758548602   3.0294841381255   0.0363531811347
  13  O           -3.5691410146728   2.9576160145045  -0.7427916290342
  14  H           -2.7182534468354   2.8958180750431  -0.3183161515632
  15  H           -4.1572770700445   3.0570940226334  -0.0022942117579
 MC NBLOCK ii at temp number                    5                    2

  COORDINATES OF MINIMUM ENERGY GEOMETRY (ANGS):

   1  O            1.2269903503412   1.3413720492791  -0.0257536645973
   2  H            1.9269475866419   1.9470236036219   0.2306342497801
   3  H            1.2279698548057   1.3418279401687  -0.9719744387401
   4  O            0.0461652309438  -1.5639533065799   2.1865855903304
   5  H           -0.2451679618301  -2.4768061051729   2.2145075421939
   6  H            0.4325499072745  -1.4600907527939   1.3284227920130
   7  O           -0.2064053335085  -2.3006275361135   5.4358622722568
   8  H           -0.4796727494226  -2.9255647408722   4.7801692194546
   9  H            0.1937824976510  -1.5805396638379   4.9459138915969
  10  O            3.6498519169805   2.8719753846585  -0.2742486715476
  11  H            3.7547973991532   2.5241391498372  -1.1553942942733
  12  H            4.5297758548602   3.0294841381255   0.0363531811347
  13  O           -2.7634307894097   3.5445603387150  -1.0228065932447
  14  H           -1.9125432215722   3.4827623992537  -0.5983311157737
  15  H           -3.3515668447813   3.6440383468440  -0.2823091759684
 MC NBLOCK ii at temp number                    6                    2
 Proximity alert between atom                    4 and atom                    9

  COORDINATES OF MINIMUM ENERGY GEOMETRY (ANGS):

   1  O            1.2269903503412   1.3413720492791  -0.0257536645973
   2  H            1.9269475866419   1.9470236036219   0.2306342497801
   3  H            1.2279698548057   1.3418279401687  -0.9719744387401
   4  O            0.0461652309438  -1.5639533065799   2.1865855903304
   5  H           -0.2451679618301  -2.4768061051729   2.2145075421939
   6  H            0.4325499072745  -1.4600907527939   1.3284227920130
   7  O           -0.2064053335085  -2.3006275361135   5.4358622722568
   8  H           -0.4796727494226  -2.9255647408722   4.7801692194546
   9  H            0.1937824976510  -1.5805396638379   4.9459138915969
  10  O            3.4102537925323   2.8628523697821  -0.6195116394928
  11  H            4.2112284870090   2.3874070433727  -0.8215326516061
  12  H            3.6742051519822   3.5528956150616  -0.0281414895438
  13  O           -2.7634307894097   3.5445603387150  -1.0228065932447
  14  H           -1.9125432215722   3.4827623992537  -0.5983311157737
  15  H           -3.3515668447813   3.6440383468440  -0.2823091759684
 MC NBLOCK ii at temp number                    7                    2

  COORDINATES OF MINIMUM ENERGY GEOMETRY (ANGS):

   1  O            1.2269903503412   1.3413720492791  -0.0257536645973
   2  H            1.9269475866419   1.9470236036219   0.2306342497801
   3  H            1.2279698548057   1.3418279401687  -0.9719744387401
   4  O            0.0461652309438  -1.5639533065799   2.1865855903304
   5  H           -0.2451679618301  -2.4768061051729   2.2145075421939
   6  H            0.4325499072745  -1.4600907527939   1.3284227920130
   7  O           -0.1733902998243  -1.7571774729556   5.3087809333094
   8  H           -0.4466577157384  -2.3821146777143   4.6530878805073
   9  H            0.2267975313352  -1.0370896006800   4.8188325526495
  10  O            3.4102537925323   2.8628523697821  -0.6195116394928
  11  H            4.2112284870090   2.3874070433727  -0.8215326516061
  12  H            3.6742051519822   3.5528956150616  -0.0281414895438
  13  O           -2.7634307894097   3.5445603387150  -1.0228065932447
  14  H           -1.9125432215722   3.4827623992537  -0.5983311157737
  15  H           -3.3515668447813   3.6440383468440  -0.2823091759684
 MC NBLOCK ii at temp number                    8                    2

  COORDINATES OF MINIMUM ENERGY GEOMETRY (ANGS):

   1  O            0.8687918871833   1.8879945082264  -0.7709057782815
   2  H            1.5687491234840   2.4936460625692  -0.5145178639041
   3  H            0.8697713916479   1.8884503991160  -1.7171265524243
   4  O            0.0461652309438  -1.5639533065799   2.1865855903304
   5  H           -0.2451679618301  -2.4768061051729   2.2145075421939
   6  H            0.4325499072745  -1.4600907527939   1.3284227920130
   7  O           -0.1733902998243  -1.7571774729556   5.3087809333094
   8  H           -0.4466577157384  -2.3821146777143   4.6530878805073
   9  H            0.2267975313352  -1.0370896006800   4.8188325526495
  10  O            3.4102537925323   2.8628523697821  -0.6195116394928
  11  H            4.2112284870090   2.3874070433727  -0.8215326516061
  12  H            3.6742051519822   3.5528956150616  -0.0281414895438
  13  O           -2.7634307894097   3.5445603387150  -1.0228065932447
  14  H           -1.9125432215722   3.4827623992537  -0.5983311157737
  15  H           -3.3515668447813   3.6440383468440  -0.2823091759684
 MC NBLOCK ii at temp number                    9                    2
 MC NBLOCK ii at temp number                   10                    2
 Proximity alert between atom                    2 and atom                   12
 Proximity alert between atom                    5 and atom                    8

  COORDINATES OF MINIMUM ENERGY GEOMETRY (ANGS):

   1  O            0.8687918871833   1.8879945082264  -0.7709057782815
   2  H            1.5687491234840   2.4936460625692  -0.5145178639041
   3  H            0.8697713916479   1.8884503991160  -1.7171265524243
   4  O            0.0461652309438  -1.5639533065799   2.1865855903304
   5  H           -0.2451679618301  -2.4768061051729   2.2145075421939
   6  H            0.4325499072745  -1.4600907527939   1.3284227920130
   7  O           -0.2648978019384  -0.7897023325931   4.8452228250961
   8  H            0.0718714436364  -1.6600773000567   5.0007505114822
   9  H           -0.4581446007213  -0.7585656601828   3.9069198665005
  10  O            3.4102537925323   2.8628523697821  -0.6195116394928
  11  H            4.2112284870090   2.3874070433727  -0.8215326516061
  12  H            3.6742051519822   3.5528956150616  -0.0281414895438
  13  O           -2.7634307894097   3.5445603387150  -1.0228065932447
  14  H           -1.9125432215722   3.4827623992537  -0.5983311157737
  15  H           -3.3515668447813   3.6440383468440  -0.2823091759684

          -------------------------------
          STATISTICS FROM MONTE CARLO RUN
          -------------------------------

 AT TEMPERATURE =                   20.00
 NUMBER OF GEOMETRIES REJECTED 
  DUE TO PROXIMITY ALERT =           3
 NUMBER OF ENERGY EVALUATIONS =     37
 NUMBER OF ENERGIES REJECTED =      25
 NUMBER OF ENERGIES ACCEPTED =      12
 ACCEPTANCE RATIO =                  0.324
 MINIMUM ENERGY FOUND SO FAR =    -377.5254821535  AT GEOMETRY NUMBER     80



          ***GLOBAL OPTIMIZATION COMPLETE*** 

 TOTAL NUMBER OF GEOMETRIES =       80
 NUMBER OF GEOMETRIES REJECTED 
  DUE TO PROXIMITY ALERT =           8
 NUMBER OF ENERGY EVALUATIONS =     72
 NUMBER OF ENERGIES REJECTED =      29
 NUMBER OF ENERGIES ACCEPTED =      43
 ACCEPTANCE RATIO =                  0.597
 FINAL ENERGY FOUND =             -377.5254821535
 MINIMUM ENERGY FOUND =           -377.5254821535  AT GEOMETRY NUMBER     80


  COORDINATES OF FINAL GEOMETRY (ANGS):

   1  O            0.8687918871833   1.8879945082264  -0.7709057782815
   2  H            1.5687491234840   2.4936460625692  -0.5145178639041
   3  H            0.8697713916479   1.8884503991160  -1.7171265524243
   4  O            0.0461652309438  -1.5639533065799   2.1865855903304
   5  H           -0.2451679618301  -2.4768061051729   2.2145075421939
   6  H            0.4325499072745  -1.4600907527939   1.3284227920130
   7  O           -0.2648978019384  -0.7897023325931   4.8452228250961
   8  H            0.0718714436364  -1.6600773000567   5.0007505114822
   9  H           -0.4581446007213  -0.7585656601828   3.9069198665005
  10  O            3.4102537925323   2.8628523697821  -0.6195116394928
  11  H            4.2112284870090   2.3874070433727  -0.8215326516061
  12  H            3.6742051519822   3.5528956150616  -0.0281414895438
  13  O           -2.7634307894097   3.5445603387150  -1.0228065932447
  14  H           -1.9125432215722   3.4827623992537  -0.5983311157737
  15  H           -3.3515668447813   3.6440383468440  -0.2823091759684

  COORDINATES OF MINIMUM ENERGY GEOMETRY (ANGS):

   1  O            0.8687918871833   1.8879945082264  -0.7709057782815
   2  H            1.5687491234840   2.4936460625692  -0.5145178639041
   3  H            0.8697713916479   1.8884503991160  -1.7171265524243
   4  O            0.0461652309438  -1.5639533065799   2.1865855903304
   5  H           -0.2451679618301  -2.4768061051729   2.2145075421939
   6  H            0.4325499072745  -1.4600907527939   1.3284227920130
   7  O           -0.2648978019384  -0.7897023325931   4.8452228250961
   8  H            0.0718714436364  -1.6600773000567   5.0007505114822
   9  H           -0.4581446007213  -0.7585656601828   3.9069198665005
  10  O            3.4102537925323   2.8628523697821  -0.6195116394928
  11  H            4.2112284870090   2.3874070433727  -0.8215326516061
  12  H            3.6742051519822   3.5528956150616  -0.0281414895438
  13  O           -2.7634307894097   3.5445603387150  -1.0228065932447
  14  H           -1.9125432215722   3.4827623992537  -0.5983311157737
  15  H           -3.3515668447813   3.6440383468440  -0.2823091759684

          ***MINIMIZING ENERGY FROM FINAL SA GEOMETRY***

 ...... END OF ONE-ELECTRON INTEGRALS ......
 STEP CPU TIME =     0.00 TOTAL CPU TIME =       15.3 (    0.3 MIN)
 TOTAL WALL CLOCK TIME=       18.2 SECONDS, CPU UTILIZATION IS  84.26%
  ...... END OF TWO-ELECTRON INTEGRALS .....
 STEP CPU TIME =     0.00 TOTAL CPU TIME =       15.3 (    0.3 MIN)
 TOTAL WALL CLOCK TIME=       18.2 SECONDS, CPU UTILIZATION IS  84.26%

          --------------------------
                 RHF SCF CALCULATION
          --------------------------
     DENSITY MATRIX CONV=  2.00E-05

 DIRECT SCF CALCULATION, SCHWRZ=T   FDIFF=T,  DIRTHR=  0.00E+00 NITDIR=10

                                                                                   NONZERO     BLOCKS
 ITER EX DEM     TOTAL ENERGY        E CHANGE  DENSITY CHANGE     ORB. GRAD      INTEGRALS    SKIPPED
          ---------------START SECOND ORDER SCF---------------
   1  0  0     -377.5254821533  -377.5254821533   0.000001226   0.000000300          49374      36902
   2  1  0     -377.5254821534    -0.0000000000   0.000000699   0.000000117          14886      49248

          -----------------
          DENSITY CONVERGED
          -----------------
     TIME TO FORM FOCK OPERATORS=       0.0 SECONDS (       0.0 SEC/ITER)
     FOCK TIME ON FIRST ITERATION=       0.0, LAST ITERATION=       0.0
     TIME TO SOLVE SCF EQUATIONS=       0.0 SECONDS (       0.0 SEC/ITER)

 FINAL RHF ENERGY IS     -377.5254821534 AFTER   2 ITERATIONS
 ...... END OF RHF CALCULATION ......
 STEP CPU TIME =     0.05 TOTAL CPU TIME =       15.4 (    0.3 MIN)
 TOTAL WALL CLOCK TIME=       18.2 SECONDS, CPU UTILIZATION IS  84.30%
 ..... END OF 1-ELECTRON GRADIENT ......
 STEP CPU TIME =     0.01 TOTAL CPU TIME =       15.4 (    0.3 MIN)
 TOTAL WALL CLOCK TIME=       18.2 SECONDS, CPU UTILIZATION IS  84.31%
 ...... END OF 2-ELECTRON GRADIENT ......
 STEP CPU TIME =     0.04 TOTAL CPU TIME =       15.4 (    0.3 MIN)
 TOTAL WALL CLOCK TIME=       18.3 SECONDS, CPU UTILIZATION IS  84.35%

          NSERCH=  0     ENERGY=    -377.5254822

                                 -----------------------
                                 GRADIENT (HARTREE/BOHR)
                                 -----------------------
        ATOM     ZNUC       DE/DX         DE/DY         DE/DZ
 --------------------------------------------------------------
    1  O            8.0     0.0374885     0.0229714    -0.0459842
    2  H            1.0    -0.0323063    -0.0189117    -0.0091909
    3  H            1.0    -0.0001449     0.0007967     0.0563068
    4  O            8.0     0.0126942    -0.0239772    -0.0477874
    5  H            1.0     0.0139516     0.0391059    -0.0030051
    6  H            1.0    -0.0249046    -0.0136233     0.0530125
    7  O            8.0     0.0153600    -0.0502164    -0.0359138
    8  H            1.0    -0.0214126     0.0511495    -0.0098798
    9  H            1.0     0.0043991    -0.0031339     0.0435603
   10  O            8.0     0.0481621     0.0119678     0.0236361
   11  H            1.0    -0.0380459     0.0280169     0.0126831
   12  H            1.0    -0.0144879    -0.0450334    -0.0376772
   13  O            8.0     0.0100141     0.0005162     0.0519356
   14  H            1.0    -0.0513191     0.0059867    -0.0148198
   15  H            1.0     0.0405518    -0.0056152    -0.0368763

          MAXIMUM GRADIENT = 0.0563068    RMS GRADIENT = 0.0312747

 NSERCH:   0  E=     -377.5254821534  GRAD. MAX=  0.0563068  R.M.S.=  0.0312747

          FORCE CONSTANT MATRIX NOT UPDATED --- TAKING FIRST STEP
          MIN SEARCH, CORRECT HESSIAN, TRYING PURE NR STEP
               NR STEP HAS LENGTH         =  68.095063
          TRIM/QA LAMBDA FOR NON-TS MODES =  -0.10219148
          TRIM/QA STEP HAS LENGTH         =   0.300000
          RADIUS OF STEP TAKEN=   0.30000  CURRENT TRUST RADIUS=   0.30000

 BEGINNING GEOMETRY SEARCH POINT NSERCH=   1 ...

 COORDINATES OF ALL ATOMS ARE (ANGS)
   ATOM   CHARGE       X              Y              Z
 ------------------------------------------------------------
 O           8.0   0.8119689054   1.8761348682  -0.7359384715
 H           1.0   1.5922315911   2.4798769366  -0.5200737467
 H           1.0   0.8765348339   1.8896186655  -1.7504154642
 O           8.0   0.0375539795  -1.5575553126   2.2099208161
 H           1.0  -0.2564168338  -2.5129505296   2.2079321941
 H           1.0   0.4475486831  -1.4420955363   1.2922801500
 O           8.0  -0.2921819911  -0.7532746163   4.8867551692
 H           1.0   0.0885899084  -1.6879219947   4.9987950545
 H           1.0  -0.4433007581  -0.7525984096   3.8873290684
 O           8.0   3.3910298644   2.8745404489  -0.6415050642
 H           1.0   4.2367193963   2.3644248198  -0.8272665351
 H           1.0   3.6953068263   3.5881574782   0.0038563332
 O           8.0  -2.7684065111   3.5507221473  -1.0484709958
 H           1.0  -1.8720412439   3.4718871462  -0.5964187482
 H           1.0  -3.3873014549   3.6464455140  -0.2595534925

          INTERNUCLEAR DISTANCES (ANGS.)
          ------------------------------

                1 O          2 H          3 H          4 O          5 H     

   1 O       0.0000000    1.0099069 *  1.0166190 *  4.5899928    5.3918358  
   2 H       1.0099069 *  0.0000000    1.5408982 *  5.1157357    5.9822942  
   3 H       1.0166190 *  1.5408982 *  0.0000000    5.3170632    6.0278281  
   4 O       4.5899928    5.1157357    5.3170632    0.0000000    0.9996013 *
   5 H       5.3918358    5.9822942    6.0278281    0.9996013 *  0.0000000  
   6 H       3.9060371    4.4695407    4.5323664    1.0116773 *  1.5750291 *
   7 O       6.3045719    6.5755671    7.2389791    2.8144334 *  3.2052817  
   8 H       6.7906514    7.0773865    7.6792901    2.7923860 *  2.9306343 *
   9 H       5.4644802    5.8324513    6.3645456    1.9216855 *  2.4401105 *
  10 O       2.7671803 *  1.8455839 *  2.9193216 *  6.2465913    7.1026910  
  11 H       3.4605901    2.6647725 *  3.5168857    6.4991865    7.2931128  
  12 H       3.4339417    2.4342789 *  3.7293403    6.6876181    7.5958929  
  13 O       3.9649725    4.5211810    4.0666434    6.6772023    7.3268261  
  14 H       3.1256682    3.6043167    3.3749004    6.0677333    6.8038892  
  15 H       4.5820098    5.1209865    4.8465874    6.7014597    7.3368306  

                6 H          7 O          8 H          9 H         10 O     

   1 O       3.9060371    6.3045719    6.7906514    5.4644802    2.7671803 *
   2 H       4.4695407    6.5755671    7.0773865    5.8324513    1.8455839 *
   3 H       4.5323664    7.2389791    7.6792901    6.3645456    2.9193216 *
   4 O       1.0116773 *  2.8144334 *  2.7923860 *  1.9216855 *  6.2465913  
   5 H       1.5750291 *  3.2052817    2.9306343 *  2.4401105 *  7.1026910  
   6 H       0.0000000    3.7338889    3.7319613    2.8290101 *  5.5710818  
   7 O       3.7338889    0.0000000    1.0154338 *  1.0107868 *  7.5689334  
   8 H       3.7319613    1.0154338 *  0.0000000    1.5469630 *  7.9708945  
   9 H       2.8290101 *  1.0107868 *  1.5469630 *  0.0000000    6.9547513  
  10 O       5.5710818    7.5689334    7.9708945    6.9547513    0.0000000  
  11 H       5.7740705    7.9297567    8.2201877    7.3379721    1.0049458 *
  12 H       6.1246563    7.6544628    8.1114015    7.1450399    1.0091209 *
  13 O       6.3835501    7.7384098    8.4956017    6.9488709    6.2097906  
  14 H       5.7528173    7.1002214    7.8596515    6.3238890    5.2970533  
  15 H       6.5580114    7.4445816    8.2575739    6.7242369    6.8328252  

               11 H         12 H         13 O         14 H         15 H     

   1 O       3.4605901    3.4339417    3.9649725    3.1256682    4.5820098  
   2 H       2.6647725 *  2.4342789 *  4.5211810    3.6043167    5.1209865  
   3 H       3.5168857    3.7293403    4.0666434    3.3749004    4.8465874  
   4 O       6.4991865    6.6876181    6.6772023    6.0677333    6.7014597  
   5 H       7.2931128    7.5958929    7.3268261    6.8038892    7.3368306  
   6 H       5.7740705    6.1246563    6.3835501    5.7528173    6.5580114  
   7 O       7.9297567    7.6544628    7.7384098    7.1002214    7.4445816  
   8 H       8.2201877    8.1114015    8.4956017    7.8596515    8.2575739  
   9 H       7.3379721    7.1450399    6.9488709    6.3238890    6.7242369  
  10 O       1.0049458 *  1.0091209 *  6.2097906    5.2970533    6.8328252  
  11 H       0.0000000    1.5752506 *  7.1083065    6.2126259    7.7518752  
  12 H       1.5752506 *  0.0000000    6.5489224    5.6008226    7.0877445  
  13 O       7.1083065    6.5489224    0.0000000    1.0069940 *  1.0072660 *
  14 H       6.2126259    5.6008226    1.0069940 *  0.0000000    1.5620379 *
  15 H       7.7518752    7.0877445    1.0072660 *  1.5620379 *  0.0000000  

  * ... LESS THAN  3.000

 ...... END OF ONE-ELECTRON INTEGRALS ......
 STEP CPU TIME =     0.00 TOTAL CPU TIME =       15.4 (    0.3 MIN)
 TOTAL WALL CLOCK TIME=       18.3 SECONDS, CPU UTILIZATION IS  84.35%
  ...... END OF TWO-ELECTRON INTEGRALS .....
 STEP CPU TIME =     0.00 TOTAL CPU TIME =       15.4 (    0.3 MIN)
 TOTAL WALL CLOCK TIME=       18.3 SECONDS, CPU UTILIZATION IS  84.35%

          --------------------------
                 RHF SCF CALCULATION
          --------------------------
     DENSITY MATRIX CONV=  4.00E-04

 DIRECT SCF CALCULATION, SCHWRZ=T   FDIFF=T,  DIRTHR=  0.00E+00 NITDIR=10

                                                                                   NONZERO     BLOCKS
 ITER EX DEM     TOTAL ENERGY        E CHANGE  DENSITY CHANGE     ORB. GRAD      INTEGRALS    SKIPPED
          ---------------START SECOND ORDER SCF---------------
   1  0  0     -377.5347731965  -377.5347731965   0.032899476   0.031998309          49377      36941
   2  1  0     -377.5401715850    -0.0053983885   0.023897541   0.004178865          47164      39969
   3  2  0     -377.5410308081    -0.0008592231   0.003188689   0.003036465          46176      40364
   4  3  0     -377.5410745274    -0.0000437192   0.000752697   0.000686761          43574      41396
   5  4  0     -377.5410769861    -0.0000024588   0.000255171   0.000072479          41102      42265
   6  5  0     -377.5410770797    -0.0000000935   0.000050310   0.000029610          37566      43272
   7  6  0     -377.5410770844    -0.0000000048   0.000011572   0.000003662          33442      44368

          -----------------
          DENSITY CONVERGED
          -----------------
     TIME TO FORM FOCK OPERATORS=       0.2 SECONDS (       0.0 SEC/ITER)
     FOCK TIME ON FIRST ITERATION=       0.0, LAST ITERATION=       0.0
     TIME TO SOLVE SCF EQUATIONS=       0.0 SECONDS (       0.0 SEC/ITER)

 FINAL RHF ENERGY IS     -377.5410770844 AFTER   7 ITERATIONS
 ...... END OF RHF CALCULATION ......
 STEP CPU TIME =     0.17 TOTAL CPU TIME =       15.6 (    0.3 MIN)
 TOTAL WALL CLOCK TIME=       18.5 SECONDS, CPU UTILIZATION IS  84.26%
 ..... END OF 1-ELECTRON GRADIENT ......
 STEP CPU TIME =     0.01 TOTAL CPU TIME =       15.6 (    0.3 MIN)
 TOTAL WALL CLOCK TIME=       18.5 SECONDS, CPU UTILIZATION IS  84.27%
 ...... END OF 2-ELECTRON GRADIENT ......
 STEP CPU TIME =     0.04 TOTAL CPU TIME =       15.6 (    0.3 MIN)
 TOTAL WALL CLOCK TIME=       18.5 SECONDS, CPU UTILIZATION IS  84.35%

          NSERCH=  1     ENERGY=    -377.5410771

                                 -----------------------
                                 GRADIENT (HARTREE/BOHR)
                                 -----------------------
        ATOM     ZNUC       DE/DX         DE/DY         DE/DZ
 --------------------------------------------------------------
    1  O            8.0    -0.0141415    -0.0168846     0.0315988
    2  H            1.0     0.0099520     0.0149130    -0.0046426
    3  H            1.0     0.0087473     0.0062469    -0.0262759
    4  O            8.0    -0.0059143     0.0129801     0.0239624
    5  H            1.0    -0.0009388    -0.0076982    -0.0014217
    6  H            1.0     0.0084386    -0.0038638    -0.0204476
    7  O            8.0    -0.0061386     0.0317798     0.0170841
    8  H            1.0     0.0080617    -0.0257519    -0.0046252
    9  H            1.0    -0.0033882    -0.0081916    -0.0145413
   10  O            8.0    -0.0269592    -0.0124590    -0.0124496
   11  H            1.0     0.0148782    -0.0035483    -0.0001517
   12  H            1.0     0.0082972     0.0114599     0.0116347
   13  O            8.0    -0.0048725    -0.0017950    -0.0269690
   14  H            1.0     0.0102144     0.0011272     0.0115925
   15  H            1.0    -0.0062363     0.0016854     0.0156521

          MAXIMUM GRADIENT = 0.0317798    RMS GRADIENT = 0.0143319

 NSERCH:   1  E=     -377.5410770844  GRAD. MAX=  0.0317798  R.M.S.=  0.0143319

          HESSIAN UPDATED USING THE BFGS FORMULA
             ACTUAL ENERGY CHANGE WAS  -0.0155949310
          PREDICTED ENERGY CHANGE WAS  -0.0329915838 RATIO=  0.473
          MIN SEARCH, CORRECT HESSIAN, TRYING PURE NR STEP
               NR STEP HAS LENGTH         = 104.701009
          TRIM/QA LAMBDA FOR NON-TS MODES =  -0.04204614
          TRIM/QA STEP HAS LENGTH         =   0.300000
          RADIUS OF STEP TAKEN=   0.30000  CURRENT TRUST RADIUS=   0.30000

 BEGINNING GEOMETRY SEARCH POINT NSERCH=   2 ...

 COORDINATES OF ALL ATOMS ARE (ANGS)
   ATOM   CHARGE       X              Y              Z
 ------------------------------------------------------------
 O           8.0   0.8004674380   1.9182894980  -0.7655172996
 H           1.0   1.6251294985   2.4206366378  -0.4879327126
[...]
    2  O  1  S   -0.003157   0.005643  -0.048486   0.000171   0.000010
    3  O  1  X    0.000329   0.000074  -0.006560   0.000080  -0.000734
    4  O  1  Y   -0.000858  -0.001041  -0.001428   0.000095  -0.000669
    5  O  1  Z   -0.000027   0.000800   0.001816  -0.000051  -0.000905
    6  H  2  S    0.000345  -0.000800   0.012086  -0.000116   0.004294
    7  H  3  S    0.000448  -0.000864   0.011992  -0.000070  -0.000700
    8  O  4  S   -0.013965   0.984514   0.094399  -0.045933  -0.003067
    9  O  4  S   -0.000736   0.048749   0.003278  -0.001209   0.000027
   10  O  4  X    0.000057  -0.004725  -0.000766   0.000953   0.000074
   11  O  4  Y   -0.000055   0.002396  -0.000409   0.000650   0.000077
   12  O  4  Z    0.000101  -0.004687   0.000620   0.001457   0.000018
   13  H  5  S    0.000157  -0.011926  -0.001401   0.000843   0.000073
   14  H  6  S    0.000309  -0.012439   0.002686   0.000872  -0.000254
   15  O  7  S   -0.000552   0.044926   0.010404   0.988178   0.043301
   16  O  7  S   -0.000045   0.003617   0.000697   0.048715   0.001109
   17  O  7  X    0.000010  -0.000690  -0.000089   0.001017  -0.000497
   18  O  7  Y    0.000011  -0.001112  -0.000188  -0.006982  -0.001429
   19  O  7  Z    0.000010  -0.000687  -0.000066  -0.000117   0.000970
   20  H  8  S    0.000003  -0.000288  -0.000096  -0.012010  -0.000804
   21  H  9  S    0.000053  -0.004420  -0.000669  -0.011955  -0.000823
   22  O 10  S   -0.010561   0.001855  -0.031790   0.043268  -0.988658
   23  O 10  S   -0.001211   0.000176  -0.002753   0.003528  -0.048807
   24  O 10  X    0.000399  -0.000051   0.000731  -0.000320   0.005280
   25  O 10  Y   -0.000492  -0.000099   0.001010  -0.000573  -0.001380
   26  O 10  Z    0.000011  -0.000066   0.001187   0.001285  -0.004633
   27  H 11  S   -0.000004  -0.000027   0.000007  -0.004350   0.011928
   28  H 12  S    0.001817   0.000042  -0.000102  -0.000274   0.011920
   29  O 13  S   -0.988746  -0.018893   0.050821  -0.000620   0.009002
   30  O 13  S   -0.048418  -0.000869   0.001632  -0.000016   0.000093
   31  O 13  X    0.005035   0.000107  -0.000434   0.000020  -0.000722
   32  O 13  Y    0.005772   0.000066   0.000371  -0.000001  -0.000096
   33  O 13  Z    0.000349  -0.000021   0.000390   0.000008  -0.000363
   34  H 14  S    0.012222   0.000086   0.001495   0.000001  -0.000448
   35  H 15  S    0.012042   0.000246  -0.000794   0.000013  -0.000237

                      6          7          8          9         10
                   -1.3106    -1.2921    -1.2831    -1.2801    -1.2620
                     A          A          A          A          A   
    1  O  1  S   -0.153210   0.079389   0.097535   0.058522   0.086016
    2  O  1  S    0.578961  -0.302992  -0.372891  -0.223991  -0.332734
    3  O  1  X    0.065950  -0.035725  -0.039625  -0.029439  -0.033229
    4  O  1  Y    0.015823  -0.012475  -0.004472  -0.007558  -0.004146
    5  O  1  Z   -0.010994   0.009052   0.013499   0.005607   0.017058
    6  H  2  S    0.103081  -0.055885  -0.049255  -0.050062  -0.031286
    7  H  3  S    0.102017  -0.055849  -0.070089  -0.042591  -0.065651
    8  O  4  S   -0.104798  -0.145971   0.059840  -0.097933  -0.065966
    9  O  4  S    0.394240   0.554523  -0.228145   0.374280   0.254669
   10  O  4  X   -0.031753  -0.048029   0.020692  -0.034140  -0.024594
   11  O  4  Y    0.022387   0.024565  -0.010704   0.014918   0.008354
   12  O  4  Z   -0.035230  -0.041664   0.023834  -0.029897  -0.020485
   13  H  5  S    0.069307   0.101436  -0.042906   0.070553   0.050020
   14  H  6  S    0.081327   0.083411  -0.050743   0.056994   0.034130
   15  O  7  S   -0.060534  -0.095429  -0.147306   0.052227   0.112359
   16  O  7  S    0.226736   0.360521   0.559531  -0.198917  -0.431435
   17  O  7  X    0.002806   0.004133   0.012385  -0.006190  -0.008708
   18  O  7  Y   -0.029378  -0.048906  -0.068256   0.021847   0.056066
   19  O  7  Z   -0.005388  -0.004713  -0.002991   0.000445  -0.002146
   20  H  8  S    0.038905   0.064746   0.102145  -0.036440  -0.082923
   21  H  9  S    0.047874   0.076368   0.086667  -0.021749  -0.066779
   22  O 10  S   -0.081041   0.041112  -0.081735   0.086704  -0.165793
   23  O 10  S    0.303130  -0.155412   0.309989  -0.328739   0.635669
   24  O 10  X   -0.034169   0.017866  -0.032361   0.031175  -0.061460
   25  O 10  Y    0.001854  -0.004692   0.005050  -0.002629   0.015900
   26  O 10  Z    0.021599  -0.007027   0.029891  -0.027276   0.049422
   27  H 11  S    0.053809  -0.014447   0.068048  -0.060400   0.095686
   28  H 12  S    0.051842  -0.031053   0.057605  -0.049312   0.113411
   29  O 13  S   -0.053753   0.104104  -0.092113  -0.164463   0.015346
   30  O 13  S    0.202130  -0.394151   0.350232   0.625311  -0.058189
   31  O 13  X   -0.015509   0.033745  -0.031305  -0.057610   0.006556
   32  O 13  Y   -0.025499   0.044303  -0.035974  -0.065219   0.007077
   33  O 13  Z   -0.001645   0.001885   0.000089  -0.001873   0.001803
   34  H 14  S    0.043287  -0.073551   0.056042   0.107114  -0.015772
   35  H 15  S    0.034933  -0.071022   0.064452   0.116070  -0.011395

                     11         12         13         14         15
                   -0.6760    -0.6640    -0.6487    -0.6434    -0.6323
                     A          A          A          A          A   
    1  O  1  S   -0.002023   0.005029   0.005585  -0.000462  -0.004990
    2  O  1  S   -0.000075  -0.026522  -0.031633   0.003609   0.029894
    3  O  1  X   -0.017166   0.063095   0.071752  -0.120911  -0.168698
    4  O  1  Y   -0.200458   0.220017   0.143487  -0.121744  -0.040340
    5  O  1  Z   -0.483322   0.029450  -0.064583  -0.222805  -0.123449
    6  H  2  S   -0.270302   0.107503   0.047030  -0.174290  -0.131291
    7  H  3  S    0.322265  -0.046216   0.026332   0.131075   0.049564
    8  O  4  S   -0.003083  -0.000387  -0.008835  -0.005334   0.003253
    9  O  4  S    0.011436  -0.003599   0.049261   0.030185  -0.018604
   10  O  4  X   -0.181551  -0.335454  -0.103418   0.175787   0.007310
   11  O  4  Y   -0.146108  -0.241485  -0.072519   0.108155   0.009329
   12  O  4  Z    0.100509   0.155817   0.346426  -0.023246  -0.099715
   13  H  5  S    0.152231   0.272977   0.111666  -0.133245  -0.016223
   14  H  6  S   -0.141488  -0.236462  -0.226852   0.081693   0.056342
   15  O  7  S   -0.002823  -0.002079   0.001443   0.006417  -0.006993
   16  O  7  S    0.013940   0.005147  -0.003407  -0.036187   0.039937
   17  O  7  X    0.066492   0.151837  -0.355033  -0.147617   0.115750
   18  O  7  Y    0.042237  -0.024170  -0.042546  -0.149703   0.153554
   19  O  7  Z    0.050472   0.235442  -0.370893  -0.010482  -0.028278
   20  H  8  S    0.039829   0.174265  -0.304887  -0.032775   0.001564
   21  H  9  S   -0.063061  -0.142091   0.298750   0.117345  -0.090649
   22  O 10  S   -0.007290  -0.000151   0.004441  -0.001282   0.007702
   23  O 10  S    0.029386   0.002692  -0.019662   0.001951  -0.039901
   24  O 10  X    0.075098  -0.069513  -0.005403  -0.099943   0.082032
   25  O 10  Y    0.064269   0.119272  -0.092845   0.421521  -0.207713
   26  O 10  Z    0.165511  -0.179712   0.023826  -0.149944   0.284860
   27  H 11  S    0.066683  -0.140419   0.046718  -0.232590   0.230253
   28  H 12  S    0.001403   0.102192  -0.050935   0.280184  -0.158484
   29  O 13  S   -0.005498   0.002290   0.001035  -0.004418  -0.000414
   30  O 13  S    0.025020  -0.008519  -0.005247   0.026323   0.000672
   31  O 13  X   -0.130296   0.166040   0.052516   0.224681   0.256649
   32  O 13  Y    0.125835  -0.122944  -0.059191  -0.105372  -0.265033
   33  O 13  Z    0.101147  -0.109761  -0.063887  -0.104687  -0.312356
   34  H 14  S   -0.131074   0.134934   0.064093   0.125455   0.292869
   35  H 15  S    0.119988  -0.142237  -0.056581  -0.171359  -0.275628

                     16         17         18         19         20
                   -0.5546    -0.5302    -0.5132    -0.5065    -0.4804
                     A          A          A          A          A   
    1  O  1  S    0.044874   0.044540  -0.021218  -0.029016   0.028564
    2  O  1  S   -0.241316  -0.239062   0.113446   0.154129  -0.151110
    3  O  1  X    0.347869   0.489861  -0.144125  -0.138966   0.291771
    4  O  1  Y    0.116758  -0.030062   0.254833  -0.200102  -0.076586
    5  O  1  Z   -0.230428  -0.066900   0.026908   0.185931  -0.024968
    6  H  2  S    0.083807   0.113516  -0.009785  -0.035946   0.039444
    7  H  3  S    0.170627   0.133508  -0.081667  -0.096074   0.088493
    8  O  4  S   -0.047283  -0.001438  -0.052585   0.005825   0.030899
    9  O  4  S    0.252892   0.006567   0.281415  -0.029552  -0.163954
   10  O  4  X    0.374545   0.037343   0.360843  -0.081342  -0.260564
   11  O  4  Y   -0.015214  -0.046113  -0.186108   0.096835   0.396511
   12  O  4  Z    0.191028  -0.176409   0.317210   0.210076  -0.049535
   13  H  5  S   -0.198691  -0.025720  -0.150019   0.046134   0.078347
   14  H  6  S   -0.057377   0.038587  -0.122206  -0.037039   0.067226
   15  O  7  S    0.037193  -0.035826   0.006132   0.042531   0.036323
   16  O  7  S   -0.198687   0.192771  -0.030947  -0.227298  -0.192820
   17  O  7  X    0.138757   0.001799   0.243458   0.126808   0.236886
   18  O  7  Y   -0.274098   0.356590   0.108772  -0.371165  -0.332357
   19  O  7  Z    0.133177  -0.080703  -0.047696  -0.022535  -0.199002
   20  H  8  S    0.173217  -0.113204   0.054934   0.130373   0.101885
   21  H  9  S    0.027319  -0.090031  -0.050785   0.085494   0.071303
   22  O 10  S   -0.031096   0.031388   0.051468   0.002610   0.033404
   23  O 10  S    0.166708  -0.164147  -0.274766  -0.015558  -0.176210
   24  O 10  X    0.166589  -0.252657  -0.330040   0.059037  -0.367720
   25  O 10  Y   -0.237236  -0.028277   0.154933  -0.060298  -0.036987
   26  O 10  Z   -0.161573  -0.016636   0.337873   0.170240   0.175320
   27  H 11  S   -0.026352   0.040502   0.121007   0.060305   0.078177
   28  H 12  S   -0.161245   0.087157   0.155614  -0.029193   0.079744
   29  O 13  S   -0.003060  -0.047442   0.010654  -0.062015   0.025758
   30  O 13  S    0.014920   0.256087  -0.054996   0.331822  -0.136345
   31  O 13  X    0.000140   0.354067  -0.007026   0.392316  -0.078531
   32  O 13  Y   -0.029507   0.256448  -0.043198   0.448989  -0.307220
   33  O 13  Z   -0.112841   0.052129   0.184650   0.014052   0.121511
   34  H 14  S    0.034829  -0.115791  -0.017145  -0.152816   0.066551
   35  H 15  S   -0.037394  -0.150635   0.057689  -0.173151   0.057935

                     21         22         23         24         25
                   -0.4551    -0.4529    -0.4493    -0.4407    -0.4294
                     A          A          A          A          A   
    1  O  1  S    0.002064  -0.002616   0.002786  -0.005689   0.007181
    2  O  1  S   -0.012157   0.014341  -0.015723   0.030016  -0.038635
    3  O  1  X   -0.293330  -0.006070  -0.143172  -0.029899   0.321987
    4  O  1  Y    0.515591  -0.226674   0.424345  -0.226297   0.259579
    5  O  1  Z   -0.300764   0.065196  -0.189931   0.071432   0.084374
    6  H  2  S   -0.012449  -0.015610   0.008540  -0.013482   0.061643
    7  H  3  S    0.025201  -0.001099   0.004046  -0.009737  -0.025861
    8  O  4  S    0.006956   0.006224   0.014940  -0.008394   0.005364
    9  O  4  S   -0.036749  -0.035936  -0.081289   0.045671  -0.028292
   10  O  4  X   -0.085857   0.103089  -0.019416   0.010429  -0.025870
   11  O  4  Y    0.309082  -0.643920  -0.214177   0.096754   0.012259
   12  O  4  Z   -0.081452  -0.328294  -0.397664   0.221067  -0.135632
   13  H  5  S   -0.012507   0.033412   0.024110  -0.005908   0.005553
   14  H  6  S    0.048309   0.001331   0.052843  -0.033098   0.017284
   15  O  7  S   -0.002694   0.012854   0.009441  -0.018375   0.002495
   16  O  7  S    0.014698  -0.069037  -0.048953   0.100702  -0.013643
   17  O  7  X   -0.023743  -0.027308   0.263351   0.548572  -0.003748
   18  O  7  Y    0.034307  -0.274741  -0.206258   0.247843  -0.062375
   19  O  7  Z    0.039768  -0.143440  -0.414170  -0.520840  -0.043529
   20  H  8  S   -0.001641  -0.000684  -0.002595  -0.041896  -0.005922
   21  H  9  S   -0.012735   0.068853   0.047040  -0.051685   0.016121
   22  O 10  S   -0.012511  -0.004997   0.003097  -0.020527   0.005470
   23  O 10  S    0.068183   0.028296  -0.016073   0.109762  -0.033978
   24  O 10  X    0.055433  -0.012524  -0.076120   0.274481   0.613879
   25  O 10  Y   -0.182676  -0.132977   0.041728   0.092269   0.478879
   26  O 10  Z   -0.151752  -0.047769  -0.059596  -0.343267   0.424165
   27  H 11  S   -0.008438   0.001905  -0.018034  -0.092126   0.025297
   28  H 12  S   -0.059305  -0.031634   0.029689  -0.011704   0.013300
   29  O 13  S   -0.011864   0.002123  -0.004615   0.001100  -0.001753
   30  O 13  S    0.063811  -0.010471   0.023818  -0.005888   0.009439
   31  O 13  X    0.303074   0.201707  -0.167439   0.057822   0.074239
   32  O 13  Y   -0.046190  -0.277191   0.328242  -0.110948  -0.074401
   33  O 13  Z    0.529949   0.416392  -0.352999   0.117801   0.126974
   34  H 14  S   -0.051505   0.012230  -0.029069   0.009903  -0.001378
   35  H 15  S   -0.007991  -0.004116   0.008702  -0.004051  -0.009396

                     26         27         28         29         30
                    0.5365     0.5737     0.5897     0.6115     0.6426
                     A          A          A          A          A   
    1  O  1  S    0.086171  -0.034361   0.055017  -0.055982  -0.003103
    2  O  1  S   -0.574456   0.234387  -0.378070   0.403107   0.027980
    3  O  1  X   -0.274365   0.120195  -0.185951   0.316743   0.100289
    4  O  1  Y    0.000097   0.091016   0.125987   0.005975   0.055189
    5  O  1  Z    0.168227  -0.153176   0.270844  -0.246855   0.193595
    6  H  2  S    0.335902  -0.132772   0.090829  -0.294289  -0.255833
    7  H  3  S    0.566584  -0.283560   0.539068  -0.530169   0.145931
    8  O  4  S    0.073123   0.066378   0.042151   0.057661  -0.013249
    9  O  4  S   -0.497136  -0.451468  -0.301761  -0.406835   0.099561
   10  O  4  X    0.220573   0.341958   0.176411   0.458489  -0.136076
   11  O  4  Y   -0.126096  -0.011194  -0.053776   0.084367  -0.032484
   12  O  4  Z    0.190235   0.015856   0.225931   0.031078  -0.053384
   13  H  5  S    0.429814   0.563878   0.286372   0.665754  -0.182094
   14  H  6  S    0.410159   0.166899   0.332177   0.085728  -0.048207
   15  O  7  S    0.053214   0.067829  -0.069045  -0.030451   0.042748
   16  O  7  S   -0.359763  -0.470320   0.471562   0.207214  -0.315746
   17  O  7  X   -0.038605  -0.055174   0.253148   0.222034  -0.162524
   18  O  7  Y    0.218552   0.346671  -0.240520  -0.071615   0.319317
   19  O  7  Z    0.036602  -0.018892   0.145750   0.156805  -0.233443
   20  H  8  S    0.292085   0.443202  -0.607673  -0.382621   0.542791
   21  H  9  S    0.305409   0.411471  -0.169097   0.062730   0.149179
   22  O 10  S    0.050943  -0.010320  -0.058952  -0.030538  -0.093505
   23  O 10  S   -0.339184   0.067011   0.415489   0.203462   0.653552
   24  O 10  X    0.190887  -0.092222  -0.213401  -0.069316  -0.401071
   25  O 10  Y    0.001930   0.128118   0.121031  -0.120631   0.315738
   26  O 10  Z   -0.087186  -0.104655   0.262642   0.097404   0.145377
   27  H 11  S    0.258507   0.104021  -0.397668  -0.253780  -0.342557
   28  H 12  S    0.254332  -0.179363  -0.418903  -0.035740  -0.824394
   29  O 13  S    0.055017  -0.078997  -0.039592   0.057431   0.036293
   30  O 13  S   -0.376290   0.549666   0.269428  -0.407863  -0.276917
   31  O 13  X    0.150229  -0.316199  -0.228861   0.380546   0.198863
   32  O 13  Y    0.237922  -0.289649  -0.030552   0.113675   0.233321
   33  O 13  Z    0.015746   0.023802   0.137271  -0.115757   0.111867
   34  H 14  S    0.349931  -0.449044  -0.047038   0.192340   0.400725
   35  H 15  S    0.314020  -0.556942  -0.409986   0.584674   0.224216

                     31         32         33         34         35
                    0.6924     0.7156     0.7188     0.7288     0.7419
                     A          A          A          A          A   
    1  O  1  S    0.009235   0.031499  -0.021289   0.010683  -0.020789
    2  O  1  S   -0.086258  -0.214403   0.188432  -0.068019   0.149301
    3  O  1  X   -0.138567  -0.212869   0.327824  -0.042085   0.152195
    4  O  1  Y    0.198940  -0.314426   0.247359  -0.074578   0.176926
    5  O  1  Z    0.185529  -0.658933  -0.128960  -0.231553   0.253099
    6  H  2  S   -0.031863   0.899712  -0.441394   0.265835  -0.479173
    7  H  3  S    0.294683  -0.500316  -0.237443  -0.179974   0.153943
    8  O  4  S    0.005090   0.007460   0.039497   0.011540   0.001738
    9  O  4  S   -0.035375  -0.045385  -0.279543  -0.117215  -0.021894
   10  O  4  X   -0.106269  -0.202719  -0.459109   0.260807   0.072337
   11  O  4  Y   -0.087218  -0.146985  -0.431442   0.084282   0.029166
   12  O  4  Z    0.106981   0.111029   0.557654   0.287624   0.062990
   13  H  5  S   -0.118460  -0.219322  -0.478415   0.287041   0.077571
   14  H  6  S    0.191767   0.259701   1.041526   0.225279   0.038683
   15  O  7  S    0.002605   0.004240   0.000263  -0.040713  -0.011315
   16  O  7  S   -0.023393  -0.021522  -0.002925   0.286713   0.113869
   17  O  7  X   -0.029491   0.142778   0.007589  -0.583744  -0.073638
   18  O  7  Y    0.049234  -0.026488   0.014305  -0.262964  -0.333330
   19  O  7  Z   -0.058387   0.189147  -0.003261  -0.578616   0.134971
   20  H  8  S    0.086888  -0.209992   0.004656   0.497595  -0.221739
   21  H  9  S   -0.006037   0.193312   0.012735  -1.063685  -0.268143
   22  O 10  S   -0.016088   0.004321  -0.002005   0.001074   0.027312
   23  O 10  S    0.111703  -0.001406  -0.000068   0.000011  -0.208497
   24  O 10  X   -0.044705  -0.108686   0.032482   0.007951  -0.142659
   25  O 10  Y   -0.015964   0.495912  -0.186804   0.035336   0.498490
   26  O 10  Z    0.070968   0.020582  -0.049406   0.078045  -0.659624
   27  H 11  S   -0.140458   0.243284  -0.053331  -0.053286   1.025013
   28  H 12  S   -0.058946  -0.525940   0.194760  -0.031176  -0.446520
   29  O 13  S   -0.023298  -0.000138   0.004487  -0.000488   0.002421
   30  O 13  S    0.163575  -0.007287  -0.029586   0.003742  -0.028556
   31  O 13  X    0.498554   0.122367  -0.083277   0.000110   0.103508
   32  O 13  Y   -0.562375  -0.032172   0.074698  -0.001669   0.000703
   33  O 13  Z   -0.531623  -0.035967   0.066847  -0.000244  -0.006158
   34  H 14  S   -0.970208  -0.068487   0.140027  -0.007135   0.013028
   35  H 15  S    0.655096   0.126576  -0.096292  -0.000396   0.096981
 ......END OF GEOMETRY SEARCH......
 STEP CPU TIME =     0.00 TOTAL CPU TIME =      167.9 (    2.8 MIN)
 TOTAL WALL CLOCK TIME=      186.2 SECONDS, CPU UTILIZATION IS  90.19%

          ***MINIMIZATION FROM MINIMUM-ENERGY SA GEOMETRY COMPLETE***

 ..... END OF GLOBAL OPTIMIZATION .....
 STEP CPU TIME =     0.00 TOTAL CPU TIME =      167.9 (    2.8 MIN)
 TOTAL WALL CLOCK TIME=      186.2 SECONDS, CPU UTILIZATION IS  90.19%
               580000  WORDS OF DYNAMIC MEMORY USED
 EXECUTION OF GAMESS TERMINATED NORMALLY Mon Nov 28 20:09:17 2016
 DDI: 263640 bytes (0.3 MB / 0 MWords) used by master data server.

 ----------------------------------------
 CPU timing information for all processes
 ========================================
 0: 167.246 + 0.668 = 167.915
 ----------------------------------------
 ddikick.x: exited gracefully.
unset echo
----- accounting info -----
Files used on the master node compute-3-0 were:
-rw-rw-r-- 1 sarom sarom 6842627 Nov 29  2016 .//globop-ai.dat
-rw-rw-r-- 1 sarom sarom    2060 Nov 29  2016 .//globop-ai.F05
-rw-rw-r-- 1 sarom sarom 1701440 Nov 29  2016 .//globop-ai.F10
-rw-rw-r-- 1 sarom sarom    2060 Nov 28 17:27 .//globop-ai.inp
-rw-rw-r-- 1 sarom sarom 3850394 Nov 29  2016 .//globop-ai.log
-rw-rw-r-- 1 sarom sarom   53124 Nov 29  2016 .//globop-ai.trj
Mon Nov 28 20:09:20 CST 2016
0.203u 0.379s 3:09.85 0.3%	0+0k 0+136io 0pf+0w
