-catch_rsh /opt/gridengine/default/spool/compute-0-2/active_jobs/23567.1/pe_hostfile
compute-0-2
The primary node assigned by SGE to this run is compute-0-2
Warning: no access to tty (Bad file descriptor).
Thus no job control in this shell.
Deleting shmid=3964928.
Deleting shmid=3997697.
Deleting shmid=4227074.
source /home/sarom/gamess.github.2017-05-31.14.06/install.info
setenv GMS_PATH /home/sarom/gamess.github.2017-05-31.14.06
setenv GMS_BUILD_DIR /home/sarom/gamess.github.2017-05-31.14.06
setenv GMS_TARGET linux64
setenv GMS_FORTRAN gfortran
setenv GMS_GFORTRAN_VERNO 4.4
setenv GMS_MATHLIB mkl-so
setenv GMS_MATHLIB_PATH /share/apps/intel/compilers_and_libraries_2017.1.132/linux/mkl/lib/intel64
setenv GMS_MKL_VERNO 12
setenv GMS_DDI_COMM sockets
setenv GMS_LIBCCHEM false
setenv GMS_EIGEN_PATH
setenv GMS_PHI false
setenv GMS_SHMTYPE sysv
setenv GMS_OPENMP false
unset echo
globop-ai
tests/globop
----- GAMESS execution script 'rungms' -----
This job is running on host compute-0-2.local
under operating system Linux at Fri Jun 2 01:14:57 CDT 2017
Available scratch disk space (Kbyte units) at beginning of the job is
Filesystem           1K-blocks      Used Available Use% Mounted on
/dev/sda1             16126920   3867312  11440408  26% /
GAMESS temporary binary files will be written to /scratch
GAMESS supplementary output files will be written to /home/sarom/restart
Copying input file globop-ai.inp to your run's scratch directory...
cp tests/globop/globop-ai.inp /scratch/globop-ai.F05
unset echo
The generated host list is
compute-0-2.local
/home/sarom/gamess.github.2017-05-31.14.06/ddikick.x /home/sarom/gamess.github.2017-05-31.14.06/gamess.00.x globop-ai -ddi 1 1 compute-0-2.local -scr /scratch

 Distributed Data Interface kickoff program.
 Initiating 1 compute processes on 1 nodes to run the following command:
 /home/sarom/gamess.github.2017-05-31.14.06/gamess.00.x globop-ai 

          ******************************************************
          *         GAMESS VERSION = 20 APR 2017 (R1)          *
          *             FROM IOWA STATE UNIVERSITY             *
          * M.W.SCHMIDT, K.K.BALDRIDGE, J.A.BOATZ, S.T.ELBERT, *
          *   M.S.GORDON, J.H.JENSEN, S.KOSEKI, N.MATSUNAGA,   *
          *          K.A.NGUYEN, S.J.SU, T.L.WINDUS,           *
          *       TOGETHER WITH M.DUPUIS, J.A.MONTGOMERY       *
          *         J.COMPUT.CHEM.  14, 1347-1363(1993)        *
          **************** 64 BIT LINUX VERSION ****************

  SINCE 1993, STUDENTS AND POSTDOCS WORKING AT IOWA STATE UNIVERSITY
  AND ALSO IN THEIR VARIOUS JOBS AFTER LEAVING ISU HAVE MADE IMPORTANT
  CONTRIBUTIONS TO THE CODE:
     IVANA ADAMOVIC, CHRISTINE AIKENS, YURI ALEXEEV, POOJA ARORA,
     ANDREY ASADCHEV, ROB BELL, PRADIPTA BANDYOPADHYAY, JONATHAN BENTZ,
     BRETT BODE, KURT BRORSEN, CALEB CARLIN, GALINA CHABAN, WEI CHEN,
     CHEOL HO CHOI, PAUL DAY, ALBERT DEFUSCO, NUWAN DESILVA, TIM DUDLEY,
     DMITRI FEDOROV, GRAHAM FLETCHER, MARK FREITAG, KURT GLAESEMANN,
     DAN KEMP, GRANT MERRILL, NORIYUKI MINEZAWA, JONATHAN MULLIN,
     TAKESHI NAGATA, SEAN NEDD, HEATHER NETZLOFF, BOSILJKA NJEGIC, RYAN OLSON,
     MIKE PAK, SPENCER PRUITT, LUKE ROSKOP, JIM SHOEMAKER, LYUDMILA SLIPCHENKO,
     TONY SMITH, SAROM SOK LEANG, JIE SONG, TETSUYA TAKETSUGU, SIMON WEBB,
     PENG XU, SOOHAENG YOO, FEDERICO ZAHARIEV

  ADDITIONAL CODE HAS BEEN PROVIDED BY COLLABORATORS IN OTHER GROUPS:
     IOWA STATE UNIVERSITY:
          JOE IVANIC, AARON WEST, LAIMUTIS BYTAUTAS, KLAUS RUEDENBERG
     UNIVERSITY OF TOKYO: KIMIHIKO HIRAO, TAKAHITO NAKAJIMA,
          TAKAO TSUNEDA, MUNEAKI KAMIYA, SUSUMU YANAGISAWA,
          KIYOSHI YAGI, MAHITO CHIBA, SEIKEN TOKURA, NAOAKI KAWAKAMI
     UNIVERSITY OF AARHUS: FRANK JENSEN
     UNIVERSITY OF IOWA: VISVALDAS KAIRYS, HUI LI
     NATIONAL INST. OF STANDARDS AND TECHNOLOGY: WALT STEVENS, DAVID GARMER
     UNIVERSITY OF PISA: BENEDETTA MENNUCCI, JACOPO TOMASI
     UNIVERSITY OF MEMPHIS: HENRY KURTZ, PRAKASHAN KORAMBATH
     UNIVERSITY OF ALBERTA: TOBY ZENG, MARIUSZ KLOBUKOWSKI
     UNIVERSITY OF NEW ENGLAND: MARK SPACKMAN
     MIE UNIVERSITY: HIROAKI UMEDA
     NAT. INST. OF ADVANCED INDUSTRIAL SCIENCE AND TECHNOLOGY: KAZUO KITAURA
     MICHIGAN STATE UNIVERSITY:
          KAROL KOWALSKI, MARTA WLOCH, JEFFREY GOUR, JESSE LUTZ,
          WEI LI, PIOTR PIECUCH
     UNIVERSITY OF SILESIA: MONIKA MUSIAL, STANISLAW KUCHARSKI
     FACULTES UNIVERSITAIRES NOTRE-DAME DE LA PAIX:
          OLIVIER QUINET, BENOIT CHAMPAGNE
     UNIVERSITY OF CALIFORNIA - SANTA BARBARA: BERNARD KIRTMAN
     INSTITUTE FOR MOLECULAR SCIENCE:
          KAZUYA ISHIMURA, MICHIO KATOUDA, AND SHIGERU NAGASE
     UNIVERSITY OF NOTRE DAME: ANNA POMOGAEVA, DAN CHIPMAN
     KYUSHU UNIVERSITY:
          HARUYUKI NAKANO,
          FENG LONG GU, JACEK KORCHOWIEC, MARCIN MAKOWSKI, AND YURIKO AOKI,
          HIROTOSHI MORI AND EISAKU MIYOSHI
     PENNSYLVANIA STATE UNIVERSITY:
          TZVETELIN IORDANOV, CHET SWALINA, JONATHAN SKONE,
          SHARON HAMMES-SCHIFFER
     WASEDA UNIVERSITY:
          MASATO KOBAYASHI, TOMOKO AKAMA, TSUGUKI TOUMA,
          TAKESHI YOSHIKAWA, YASUHIRO IKABATA, JUNJI SEINO,
          YUYA NAKAJIMA, HIROMI NAKAI
     NANJING UNIVERSITY: SHUHUA LI
     UNIVERSITY OF NEBRASKA:
          PEIFENG SU, DEJUN SI, NANDUN THELLAMUREGE, YALI WANG, HUI LI
     UNIVERSITY OF ZURICH: ROBERTO PEVERATI, KIM BALDRIDGE
     N. COPERNICUS UNIVERSITY AND JACKSON STATE UNIVERSITY:
          MARIA BARYSZ
     UNIVERSITY OF COPENHAGEN: Jimmy Kromann, CASPER STEINMANN
     TOKYO INSTITUTE OF TECHNOLOGY: HIROYA NAKATA
     NAGOYA UNIVERSITY: YOSHIO NISHIMOTO, STEPHAN IRLE
     MOSCOW STATE UNIVERSITY: VLADIMIR MIRONOV

 EXECUTION OF GAMESS BEGUN Fri Jun  2 01:14:57 2017

            ECHO OF THE FIRST FEW INPUT CARDS -
 INPUT CARD>!  Monte Carlo AI test case                                                     
 INPUT CARD>!  This is a sample input file for finding the minima of a                      
 INPUT CARD>!  water pentamer using the Monte Carlo search.  In this input,                 
 INPUT CARD>!  the energy is calculated using RHF/MINI.  The system is                      
 INPUT CARD>!  segmented with each molecule as a group.                                     
 INPUT CARD>!                                                                               
 INPUT CARD>!  Since the Monte Carlo method involves random movements, it                   
 INPUT CARD>!  is impossible to predict the final geometry.  However, the                   
 INPUT CARD>!  lowest energy should be within a few Hartree of:                             
 INPUT CARD>!  MINIMUM ENERGY FOUND = -380.1962019141                                       
 INPUT CARD>!                                                                               
 INPUT CARD>!  The output will include the line:                                            
 INPUT CARD>!  TOTAL NUMBER OF GEOMETRIES =     80                                          
 INPUT CARD>!                                                                               
 INPUT CARD>!  This run ends with an optimization from the lowest energy                    
 INPUT CARD>!  configuration.  The geometry may or may not be successful                    
 INPUT CARD>!  but is fine as long as it doesn't end in an error.                           
 INPUT CARD>!                                                                               
 INPUT CARD> $CONTRL SCFTYP=RHF RUNTYP=GLOBOP MAXIT=30 MULT=1 ISPHER=1 $END                 
 INPUT CARD> $SYSTEM TIMLIM=525600 MWORDS=100 MEMDDI=300 $END                               
 INPUT CARD> $BASIS GBASIS=MINI $END                                                        
 INPUT CARD> $GLOBOP MCTYP=1 NTRAN=2 NROT=2 NBLOCK=10 NTEMPS=2 TEMPI=2000 RNDINI=.t.        
 INPUT CARD>       MCMIN=.f. JSTRND=.f. NAIFG=5 TEMPF=20 OPTN=.t. $END                      
 INPUT CARD> $GLBFRG AIFRG(1)=1,1,1,2,2,2,3,3,3,4,4,4,5,5,5 $END                            
 INPUT CARD> $SCF DIRSCF=.TRUE. $END                                                        
 INPUT CARD> $STATPT NSTEP=200 $END                                                         
 INPUT CARD> $DATA                                                                          
 INPUT CARD>Title                                                                           
 INPUT CARD>C1                                                                              
 INPUT CARD> O           8.0  -8.4842218050  -1.0134428881  -2.6103544458                   
 INPUT CARD> H           1.0  -7.9431282905  -0.9548804564  -3.4017310633                   
 INPUT CARD> H           1.0  -9.3795815081  -0.9953854603  -2.9158701607                   
 INPUT CARD> O           8.0  -6.7722426929  -0.6356938187  -4.8084057067                   
 INPUT CARD> H           1.0  -6.1666670105   0.0305407058  -4.4792179977                   
 INPUT CARD> H           1.0  -6.2160110020  -1.3435058030  -5.1018889899                   
 INPUT CARD> O           8.0  -5.0534821918   1.1074034668  -3.4162842435                   
 INPUT CARD> H           1.0  -4.9483311878   2.0428982759  -3.5108765185                   
 INPUT CARD> H           1.0  -5.4185226002   0.9826259040  -2.5388434650                   
 INPUT CARD> O           8.0  -6.9482438035  -2.1658491674  -0.4134561481                   
 INPUT CARD> H           1.0  -7.5481871183  -2.0309564574  -1.1416684693                   
 INPUT CARD> H           1.0  -7.4975727768  -2.4049872074   0.3190732586                   
 INPUT CARD> O           8.0  -6.5508921981   0.6499107013  -1.0545682936                   
 INPUT CARD> H           1.0  -6.3620775963  -0.1696437634  -0.6065866032                   
 INPUT CARD> H           1.0  -7.3819460459   0.4622486950  -1.4767871849                   
 INPUT CARD> $END                                                                           
  100000000 WORDS OF MEMORY AVAILABLE

     BASIS OPTIONS
     -------------
     GBASIS=MINI         IGAUSS=       0      POLAR=NONE    
     NDFUNC=       0     NFFUNC=       0     DIFFSP=       F
     NPFUNC=       0      DIFFS=       F     BASNAM=        


     RUN TITLE
     ---------
 Title                                                                           

 THE POINT GROUP OF THE MOLECULE IS C1      
 THE ORDER OF THE PRINCIPAL AXIS IS     0

 ATOM      ATOMIC                      COORDINATES (BOHR)
           CHARGE         X                   Y                   Z
 O           8.0   -16.0328544305       -1.9151293627       -4.9328546334
 H           1.0   -15.0103359544       -1.8044624136       -6.4283395936
 H           1.0   -17.7248389298       -1.8810057721       -5.5101956195
 O           8.0   -12.7976830119       -1.2012871294       -9.0865692235
 H           1.0   -11.6533109074        0.0577135654       -8.4644946549
 H           1.0   -11.7465575304       -2.5388578306       -9.6411722107
 O           8.0    -9.5496966263        2.0926891101       -6.4558411164
 H           1.0    -9.3509900414        3.8605179622       -6.6345945967
 H           1.0   -10.2395229727        1.8568937070       -4.7977184746
 O           8.0   -13.1302768845       -4.0928614571       -0.7813188278
 H           1.0   -14.2640053576       -3.8379511975       -2.1574405758
 H           1.0   -14.1683581212       -4.5447668260        0.6029610288
 O           8.0   -12.3793912295        1.2281531419       -1.9928451102
 H           1.0   -12.0225833696       -0.3205802284       -1.1462824679
 H           1.0   -13.9498552829        0.8735233717       -2.7907231216

          INTERNUCLEAR DISTANCES (ANGS.)
          ------------------------------

                1 O          2 H          3 H          4 O          5 H     

   1 O       0.0000000    0.9604628 *  0.9462214 *  2.8115825 *  3.1549347  
   2 H       0.9604628 *  0.0000000    1.5169375 *  1.8578447 *  2.2995320 *
   3 H       0.9462214 *  1.5169375 *  0.0000000    3.2418027    3.7174454  
   4 O       2.8115825 *  1.8578447 *  3.2418027    0.0000000    0.9586214 *
   5 H       3.1549347    2.2995320 *  3.7174454    0.9586214 *  0.0000000  
   6 H       3.3854787    2.4544858 *  3.8610937    0.9468495 *  1.5093568 *
   7 O       4.1130872    3.5501100    4.8360388    2.8161193 *  1.8784680 *
   8 H       4.7596937    4.2387970    5.4056618    3.4907149    2.5439360 *
   9 H       3.6589501    3.2972928    4.4434970    3.0987787    2.2871903 *
  10 O       2.9178127 *  3.3743188    3.6801446    4.6570305    4.6867270  
  11 H       2.0170606 *  2.5341273 *  2.7521272 *  3.9992261    4.1590390  
  12 H       3.3898995    4.0181730    3.9992240    5.4724349    5.5431674  
  13 O       2.9874703 *  3.1658884    3.7646948    3.9740496    3.5013531  
  14 H       3.0381867    3.3059266    3.8884405    4.2474371    3.8827224  
  15 H       2.1627881 *  2.4553186 *  2.8611544 *  3.5604632    3.2677004  

                6 H          7 O          8 H          9 H         10 O     

   1 O       3.3854787    4.1130872    4.7596937    3.6589501    2.9178127 *
   2 H       2.4544858 *  3.5501100    4.2387970    3.2972928    3.3743188  
   3 H       3.8610937    4.8360388    5.4056618    4.4434970    3.6801446  
   4 O       0.9468495 *  2.8161193 *  3.4907149    3.0987787    4.6570305  
   5 H       1.5093568 *  1.8784680 *  2.5439360 *  2.2871903 *  4.6867270  
   6 H       0.0000000    3.1936958    3.9504513    3.5519120    4.8159958  
   7 O       3.1936958    0.0000000    0.9461263 *  0.9585021 *  4.8292112  
   8 H       3.9504513    0.9461263 *  0.0000000    1.5133095 *  5.5952854  
   9 H       3.5519120    0.9585021 *  1.5133095 *  0.0000000    4.0951451  
  10 O       4.8159958    4.8292112    5.5952854    4.0951451    0.0000000  
  11 H       4.2344572    4.6094178    5.3822570    3.9457886    0.9531113 *
  12 H       5.6706239    5.6800847    6.3992838    4.8955143    0.9463343 *
  13 O       4.5240092    2.8335911 *  3.2468548    1.8963209 *  2.9150329 *
  14 H       4.6483364    3.3522638    3.9152166    2.4395979 *  2.0894320 *
  15 H       4.2144415    3.0983249    3.5437909    2.2921142 *  2.8680427 *

               11 H         12 H         13 O         14 H         15 H     

   1 O       2.0170606 *  3.3898995    2.9874703 *  3.0381867    2.1627881 *
   2 H       2.5341273 *  4.0181730    3.1658884    3.3059266    2.4553186 *
   3 H       2.7521272 *  3.9992240    3.7646948    3.8884405    2.8611544 *
   4 O       3.9992261    5.4724349    3.9740496    4.2474371    3.5604632  
   5 H       4.1590390    5.5431674    3.5013531    3.8827224    3.2677004  
   6 H       4.2344572    5.6706239    4.5240092    4.6483364    4.2144415  
   7 O       4.6094178    5.6800847    2.8335911 *  3.3522638    3.0983249  
   8 H       5.3822570    6.3992838    3.2468548    3.9152166    3.5437909  
   9 H       3.9457886    4.8955143    1.8963209 *  2.4395979 *  2.2921142 *
  10 O       0.9531113 *  0.9463343 *  2.9150329 *  2.0894320 *  2.8680427 *
  11 H       0.0000000    1.5087171 *  2.8616835 *  2.2710468 *  2.5211134 *
  12 H       1.5087171 *  0.0000000    3.4807322    2.6726309 *  3.3851922  
  13 O       2.8616835 *  3.4807322    0.0000000    0.9528946 *  0.9508608 *
  14 H       2.2710468 *  2.6726309 *  0.9528946 *  0.0000000    1.4821163 *
  15 H       2.5211134 *  3.3851922    0.9508608 *  1.4821163 *  0.0000000  

  * ... LESS THAN  3.000


     ATOMIC BASIS SET
     ----------------
 THE CONTRACTED PRIMITIVE FUNCTIONS HAVE BEEN UNNORMALIZED
 THE CONTRACTED BASIS FUNCTIONS ARE NOW NORMALIZED TO UNITY

  SHELL TYPE  PRIMITIVE        EXPONENT          CONTRACTION COEFFICIENT(S)

 O         

      1   S       1           281.8665800    0.069059895330
      1   S       2            42.4160000    0.393159473412
      1   S       3             9.0956200    0.665669054983

      2   S       4            11.7893262   -0.080819896351
      2   S       5             0.9128941    0.582089473721
      2   S       6             0.2866610    0.497159577555

      3   P       7             8.2741400    0.124270892747
      3   P       8             1.7154628    0.476593472182
      3   P       9             0.3830133    0.613044464218

 H         

      4   S      10             7.0340625    0.070452003325
      4   S      11             1.0647563    0.407826019247
      4   S      12             0.2365594    0.647752030571

 H         

      5   S      13             7.0340625    0.070452003325
      5   S      14             1.0647563    0.407826019247
      5   S      15             0.2365594    0.647752030571

 O         

      6   S      16           281.8665800    0.069059895330
      6   S      17            42.4160000    0.393159473412
      6   S      18             9.0956200    0.665669054983

      7   S      19            11.7893262   -0.080819896351
      7   S      20             0.9128941    0.582089473721
      7   S      21             0.2866610    0.497159577555

      8   P      22             8.2741400    0.124270892747
      8   P      23             1.7154628    0.476593472182
      8   P      24             0.3830133    0.613044464218

 H         

      9   S      25             7.0340625    0.070452003325
      9   S      26             1.0647563    0.407826019247
      9   S      27             0.2365594    0.647752030571

 H         

     10   S      28             7.0340625    0.070452003325
     10   S      29             1.0647563    0.407826019247
     10   S      30             0.2365594    0.647752030571

 O         

     11   S      31           281.8665800    0.069059895330
     11   S      32            42.4160000    0.393159473412
     11   S      33             9.0956200    0.665669054983

     12   S      34            11.7893262   -0.080819896351
     12   S      35             0.9128941    0.582089473721
     12   S      36             0.2866610    0.497159577555

     13   P      37             8.2741400    0.124270892747
     13   P      38             1.7154628    0.476593472182
     13   P      39             0.3830133    0.613044464218

 H         

     14   S      40             7.0340625    0.070452003325
     14   S      41             1.0647563    0.407826019247
     14   S      42             0.2365594    0.647752030571

 H         

     15   S      43             7.0340625    0.070452003325
     15   S      44             1.0647563    0.407826019247
     15   S      45             0.2365594    0.647752030571

 O         

     16   S      46           281.8665800    0.069059895330
     16   S      47            42.4160000    0.393159473412
     16   S      48             9.0956200    0.665669054983

     17   S      49            11.7893262   -0.080819896351
     17   S      50             0.9128941    0.582089473721
     17   S      51             0.2866610    0.497159577555

     18   P      52             8.2741400    0.124270892747
     18   P      53             1.7154628    0.476593472182
     18   P      54             0.3830133    0.613044464218

 H         

     19   S      55             7.0340625    0.070452003325
     19   S      56             1.0647563    0.407826019247
     19   S      57             0.2365594    0.647752030571

 H         

     20   S      58             7.0340625    0.070452003325
     20   S      59             1.0647563    0.407826019247
     20   S      60             0.2365594    0.647752030571

 O         

     21   S      61           281.8665800    0.069059895330
     21   S      62            42.4160000    0.393159473412
     21   S      63             9.0956200    0.665669054983

     22   S      64            11.7893262   -0.080819896351
     22   S      65             0.9128941    0.582089473721
     22   S      66             0.2866610    0.497159577555

     23   P      67             8.2741400    0.124270892747
     23   P      68             1.7154628    0.476593472182
     23   P      69             0.3830133    0.613044464218

 H         

     24   S      70             7.0340625    0.070452003325
     24   S      71             1.0647563    0.407826019247
     24   S      72             0.2365594    0.647752030571

 H         

     25   S      73             7.0340625    0.070452003325
     25   S      74             1.0647563    0.407826019247
     25   S      75             0.2365594    0.647752030571

 TOTAL NUMBER OF BASIS SET SHELLS             =   25
 NUMBER OF CARTESIAN GAUSSIAN BASIS FUNCTIONS =   35
 NOTE: THIS RUN WILL RESTRICT THE MO VARIATION SPACE TO SPHERICAL HARMONICS.
 THE NUMBER OF ORBITALS KEPT IN THE VARIATIONAL SPACE WILL BE PRINTED LATER.
 NUMBER OF ELECTRONS                          =   50
 CHARGE OF MOLECULE                           =    0
 SPIN MULTIPLICITY                            =    1
 NUMBER OF OCCUPIED ORBITALS (ALPHA)          =   25
 NUMBER OF OCCUPIED ORBITALS (BETA )          =   25
 TOTAL NUMBER OF ATOMS                        =   15
 THE NUCLEAR REPULSION ENERGY IS      205.8738721656

     $CONTRL OPTIONS
     ---------------
 SCFTYP=RHF          RUNTYP=GLOBOP       EXETYP=RUN     
 MPLEVL=       0     CITYP =NONE         CCTYP =NONE         VBTYP =NONE    
 DFTTYP=NONE         TDDFT =NONE    
 MULT  =       1     ICHARG=       0     NZVAR =       0     COORD =UNIQUE  
 PP    =NONE         RELWFN=NONE         LOCAL =NONE         NUMGRD=       F
 ISPHER=       1     NOSYM =       0     MAXIT =      30     UNITS =ANGS    
 PLTORB=       F     MOLPLT=       F     AIMPAC=       F     FRIEND=        
 NPRINT=       7     IREST =       0     GEOM  =INPUT   
 NORMF =       0     NORMP =       0     ITOL  =      20     ICUT  =       9
 INTTYP=BEST         GRDTYP=BEST         QMTTOL= 1.0E-06

     $SYSTEM OPTIONS
     ---------------
  REPLICATED MEMORY=   100000000 WORDS (ON EVERY NODE).
 DISTRIBUTED MEMDDI=         300 MILLION WORDS IN AGGREGATE,
 MEMDDI DISTRIBUTED OVER   1 PROCESSORS IS   300000000 WORDS/PROCESSOR.
 TOTAL MEMORY REQUESTED ON EACH PROCESSOR=   400000000 WORDS.
 TIMLIM=      525600.00 MINUTES, OR     365.0 DAYS.
 PARALL= F  BALTYP=  DLB     KDIAG=    0  COREFL= F
 MXSEQ2=     300 MXSEQ3=     150  mem10=         0

          ----------------
          PROPERTIES INPUT
          ----------------

     MOMENTS            FIELD           POTENTIAL          DENSITY
 IEMOM =       1   IEFLD =       0   IEPOT =       0   IEDEN =       0
 WHERE =COMASS     WHERE =NUCLEI     WHERE =NUCLEI     WHERE =NUCLEI  
 OUTPUT=BOTH       OUTPUT=BOTH       OUTPUT=BOTH       OUTPUT=BOTH    
 IEMINT=       0   IEFINT=       0                     IEDINT=       0
                                                       MORB  =       0
          EXTRAPOLATION IN EFFECT
          SOSCF IN EFFECT
 ORBITAL PRINTING OPTION: NPREO=     1    35     2     1

     -------------------------------
     INTEGRAL TRANSFORMATION OPTIONS
     -------------------------------
     NWORD  =            0
     CUTOFF = 1.0E-09     MPTRAN =       0
     DIRTRF =       T     AOINTS =DUP     

          ----------------------
          INTEGRAL INPUT OPTIONS
          ----------------------
 NOPK  =       1 NORDER=       0 SCHWRZ=       T

     ------------------------------------------
     THE POINT GROUP IS C1 , NAXIS= 0, ORDER= 1
     ------------------------------------------

 -- VARIATIONAL SPACE WILL BE RESTRICTED TO PURE SPHERICAL HARMONICS ONLY --
 AFTER EXCLUDING CONTAMINANT COMBINATIONS FROM THE CARTESIAN GAUSSIAN BASIS
 SET, THE NUMBER OF SPHERICAL HARMONICS KEPT IN THE VARIATION SPACE IS   35

     DIMENSIONS OF THE SYMMETRY SUBSPACES ARE
 A   =   35

 ..... DONE SETTING UP THE RUN .....
 STEP CPU TIME =     0.00 TOTAL CPU TIME =        0.0 (    0.0 MIN)
 TOTAL WALL CLOCK TIME=        0.0 SECONDS, CPU UTILIZATION IS   0.00%
 AIFRG=    1    1    1    2    2    2    3    3    3    4
 AIFRG=    4    4    5    5    5

          ---- MONTE CARLO/SIMULATED ANNEALING OPTIONS -----
 TEMPI=    2000.0 TEMPF=      20.0 NTEMPS=   2 NGEOPT=   40
 NFRMOV=   1 NTRAN=   2 NROT=   2 NBLOCK=  10 SCALE=  1.00  1.00 SEPTOL= 1.500
 MCMIN= F NSTMIN=  10 OPTN= T
 XMIN/XMAX= -1.00E+01  1.00E+01
 YMIN/YMAX= -1.00E+01  1.00E+01
 ZMIN/ZMAX= -1.00E+01  1.00E+01
 ALPHA=    0.0000 DACRAT=    0.5000 UPDFAC=    0.9500 BOLTWT=STANDARD
 AIMOVE=   0.0000  NPRT=   1  RANDOM=RAND3    RNDINI= T  RIORD=RAND    
   NAIFG=   5 NFMOMOV=   1
 NSMSTP=
 IFXFRG=
 NFRMOV=                    1  IS GREATER THAN THE NUMBER OF FRAGMENTS=                    0
  
 BEGINNING RANDOMIZING FMO CLUSTER FRAGMENTS
 Proximity alert between atom                    1 and atom                    7
 Proximity alert between atom                    1 and atom                    8
 Proximity alert between atom                    1 and atom                    7
 Proximity alert between atom                    1 and atom                    4
 Proximity alert between atom                    1 and atom                    4
 Proximity alert between atom                    1 and atom                    4
 Proximity alert between atom                    1 and atom                    4
 Proximity alert between atom                    1 and atom                   15
 Proximity alert between atom                    4 and atom                   12
 Randomized coordinates:
 COORDINATES OF ALL ATOMS ARE (ANGS)
   ATOM   CHARGE       X              Y              Z
 ------------------------------------------------------------
 O           8.0  -0.7898533973  -0.4515302617   1.0143587507
 H           1.0   0.0657708390  -0.6815568305   0.6435708807
 H           1.0  -1.2077894738   0.0934956357   0.3635045982
 O           8.0   1.8819907754   0.5125539144  -0.4908826845
 H           1.0   2.4902537901   0.9023417337   0.1392256058
 H           1.0   2.1303782993   0.8821942921  -1.3264624627
 O           8.0  -1.7119674494  -1.6821128997  -2.3094742397
 H           1.0  -1.0164527947  -1.6242985161  -2.9482792429
 H           1.0  -1.4764901966  -1.0553127821  -1.6236183250
 O           8.0   0.9597510294  -0.2500257582  -3.0665018237
 H           1.0   0.7965153164  -0.2368926421  -2.1275647480
 H           1.0   1.6459163123   0.3862277005  -3.2075953937
 O           8.0  -2.3356741714   2.8134174389   1.6173910831
 H           1.0  -2.7016603428   3.0255006309   0.7635275626
 H           1.0  -2.2204377941   1.8713622240   1.5591770975

 -------------------     ----------------------------------------------
 GLOBAL OPTIMIZATION     WRITTEN BY PAUL DAY AND PRADIPTA BANDYOPADHYAY
 -------------------     ----------------------------------------------

          ********************
          1 ELECTRON INTEGRALS
          ********************

          -------------
          GUESS OPTIONS
          -------------
          GUESS =HUCKEL            NORB  =       0          NORDER=       0
          MIX   =       F          PRTMO =       F          PUNMO =       F
          TOLZ  = 1.0E-08          TOLE  = 1.0E-05
          SYMDEN=       F          PURIFY=       F

 INITIAL GUESS ORBITALS GENERATED BY HUCKEL   ROUTINE.
 HUCKEL GUESS REQUIRES     23880 WORDS.

 SYMMETRIES FOR INITIAL GUESS ORBITALS FOLLOW.   BOTH SET(S).
    25 ORBITALS ARE OCCUPIED (    5 CORE ORBITALS).
     6=A        7=A        8=A        9=A       10=A       11=A       12=A   
    13=A       14=A       15=A       16=A       17=A       18=A       19=A   
    20=A       21=A       22=A       23=A       24=A       25=A       26=A   
    27=A       28=A       29=A       30=A       31=A       32=A       33=A   
    34=A       35=A   
 ...... END OF INITIAL ORBITAL SELECTION ......

                    ----------------------
                    AO INTEGRAL TECHNOLOGY
                    ----------------------
     S,P,L SHELL ROTATED AXIS INTEGRALS, REPROGRAMMED BY
        KAZUYA ISHIMURA (IMS) AND JOSE SIERRA (SYNSTAR).
     S,P,D,L SHELL ROTATED AXIS INTEGRALS PROGRAMMED BY
        KAZUYA ISHIMURA (INSTITUTE FOR MOLECULAR SCIENCE).
     S,P,D,F,G SHELL TO TOTAL QUARTET ANGULAR MOMENTUM SUM 5,
        ERIC PROGRAM BY GRAHAM FLETCHER (ELORET AND NASA ADVANCED
        SUPERCOMPUTING DIVISION, AMES RESEARCH CENTER).
     S,P,D,F,G,L SHELL GENERAL RYS QUADRATURE PROGRAMMED BY
        MICHEL DUPUIS (PACIFIC NORTHWEST NATIONAL LABORATORY).

          --------------------
          2 ELECTRON INTEGRALS
          --------------------

 DIRECT SCF METHOD SKIPS INTEGRAL STORAGE ON DISK.
 DIRECT TRANSFORMATION SKIPS AO INTEGRAL STORAGE ON DISK.
 SCHWARZ INEQUALITY OVERHEAD:       605 INTEGRALS, T=        0.00

     ----------------------------------------------------------------
     PROPERTY VALUES FOR THE RHF   SELF-CONSISTENT FIELD WAVEFUNCTION
     ----------------------------------------------------------------

          -----------------
          ENERGY COMPONENTS
          -----------------

         WAVEFUNCTION NORMALIZATION =       1.0000000000

                ONE ELECTRON ENERGY =    -881.8729157070
                TWO ELECTRON ENERGY =     324.0155223755
           NUCLEAR REPULSION ENERGY =     180.3463736821
                                      ------------------
                       TOTAL ENERGY =    -377.5110196494

 ELECTRON-ELECTRON POTENTIAL ENERGY =     324.0155223755
  NUCLEUS-ELECTRON POTENTIAL ENERGY =   -1261.6714817580
   NUCLEUS-NUCLEUS POTENTIAL ENERGY =     180.3463736821
                                      ------------------
             TOTAL POTENTIAL ENERGY =    -757.3095857005
               TOTAL KINETIC ENERGY =     379.7985660510
                 VIRIAL RATIO (V/T) =       1.9939769483

          ---------------------------------------
          MULLIKEN AND LOWDIN POPULATION ANALYSES
          ---------------------------------------

     ATOMIC MULLIKEN POPULATION IN EACH MOLECULAR ORBITAL

                      1          2          3          4          5

                  2.000000   2.000000   2.000000   2.000000   2.000000

    1             0.000013   0.000004   2.002990   0.000051   0.000035
    2            -0.000002  -0.000000  -0.001494  -0.000000   0.000000
    3            -0.000000  -0.000000  -0.001600   0.000000   0.000000
    4             2.003050   0.000033   0.000013   0.000000   0.000000
    5            -0.001495  -0.000000  -0.000000  -0.000000  -0.000000
    6            -0.001593   0.000002  -0.000000  -0.000000  -0.000000
    7             0.000000   0.000007   0.000036   0.000000   2.003069
    8            -0.000000  -0.000002  -0.000000  -0.000000  -0.001597
    9            -0.000000   0.000000  -0.000000  -0.000000  -0.001515
   10             0.000032   2.003129   0.000004   0.000000   0.000007
   11            -0.000007  -0.001570   0.000000   0.000000   0.000000
   12             0.000001  -0.001603  -0.000000  -0.000000  -0.000000
   13             0.000000   0.000000   0.000052   2.003044   0.000000
   14             0.000000  -0.000000  -0.000000  -0.001539  -0.000000
   15            -0.000000  -0.000000  -0.000000  -0.001558   0.000000

                      6          7          8          9         10

                  2.000000   2.000000   2.000000   2.000000   2.000000

    1             0.001906   0.000327   1.562941   0.043490   0.008253
    2             0.000753   0.000103   0.173010   0.004955   0.000877
    3             0.000255   0.000038   0.197090   0.005148   0.000932
    4             1.455441   0.163600   0.002405   0.000053   0.000211
    5             0.156124   0.020194   0.000289   0.000006   0.000031
    6             0.185703   0.015079   0.000376   0.000009   0.000010
    7             0.000323   0.007685   0.007472   0.000500   1.600746
    8             0.000098   0.001848   0.000837   0.000057   0.187735
    9             0.000050   0.001000   0.001326   0.000077   0.190345
   10             0.154155   1.450249   0.000012   0.000002   0.008765
   11             0.026353   0.163986  -0.000001   0.000000   0.000663
   12             0.018838   0.175891   0.000003   0.000000   0.001354
   13             0.000000   0.000000   0.043184   1.573745   0.000064
   14             0.000000   0.000000   0.005084   0.187216   0.000008
   15             0.000000   0.000000   0.005972   0.184742   0.000005

                     11         12         13         14         15

                  2.000000   2.000000   2.000000   2.000000   2.000000

    1             0.001160   0.008972   1.046603   0.004097   0.120939
    2             0.000659   0.004730   0.350558   0.000276   0.043380
    3             0.000444   0.002622   0.365302   0.000244   0.034039
    4             1.081879   0.113735   0.014826   0.002237   0.004325
    5             0.362769   0.020435   0.004097   0.000241   0.000131
    6             0.336487   0.054537   0.000225   0.000760   0.000362
    7             0.000271   0.012454   0.026462   0.894266   0.252558
    8            -0.000007   0.007470   0.007504   0.292595   0.083577
    9             0.000145   0.000587   0.012871   0.316324   0.085358
   10             0.129652   1.065312   0.011472   0.009332   0.002497
   11             0.069660   0.318409   0.002525   0.003693   0.000686
   12             0.016871   0.390471   0.004148   0.000441   0.000003
   13             0.000005   0.000139   0.086585   0.284792   0.828550
   14             0.000001   0.000040   0.027098   0.095530   0.279890
   15             0.000004   0.000086   0.039725   0.095173   0.263704

                     16         17         18         19         20

                  2.000000   2.000000   2.000000   2.000000   2.000000

    1             0.059080   0.004029   1.264121   0.010922   0.375365
    2             0.000865   0.000341   0.082750  -0.000000   0.023606
    3             0.014167   0.000295   0.075353   0.000799   0.020355
    4             1.657484   0.070642   0.483041   0.005067   1.517856
    5             0.093514   0.021533   0.003188   0.000004   0.000164
    6             0.111931  -0.000097   0.003198   0.000000   0.000625
    7             0.002492   0.043030   0.045607   0.001086   0.038873
    8             0.000094   0.001276   0.005459   0.000119   0.003581
    9             0.000660   0.008553   0.002063   0.000054   0.002388
   10             0.047975   1.660648   0.021322   0.000325   0.016519
   11             0.000199   0.108524   0.000646   0.000008   0.000271
   12             0.011209   0.081225   0.000988   0.000020   0.000004
   13             0.000257   0.000000   0.010943   1.750230   0.000336
   14             0.000073   0.000000   0.000650   0.117421   0.000037
   15            -0.000002  -0.000000   0.000673   0.113946   0.000020

                     21         22         23         24         25

                  2.000000   2.000000   2.000000   2.000000   2.000000

    1             0.089962   0.002026   1.975820   0.006387   0.001746
    2             0.004014   0.000072   0.000044   0.000000   0.000001
    3             0.004786   0.000083   0.000010   0.000004   0.000001
    4             0.003228   0.024159   0.002143   0.000007   0.000006
    5            -0.000000   0.000153   0.000026   0.000000   0.000001
    6             0.000197   0.000009   0.000116   0.000000   0.000000
    7             1.571341   0.075779   0.010912   0.000031   1.997124
    8             0.093131   0.003927   0.000036   0.000000   0.000009
    9             0.098477   0.003849   0.000358   0.000000   0.000001
   10             0.126039   1.889684   0.000037   0.000000   0.001104
   11             0.000564   0.000045  -0.000000   0.000000   0.000001
   12             0.007661   0.000208   0.000003   0.000000   0.000000
   13             0.000539   0.000005   0.010378   1.993570   0.000006
   14             0.000026   0.000000   0.000006  -0.000000  -0.000000
   15             0.000035   0.000000   0.000111   0.000000   0.000000

               ----- POPULATIONS IN EACH AO -----
                             MULLIKEN      LOWDIN
              1  O  1  S      1.99522     1.99494
              2  O  1  S      1.80284     1.63720
              3  O  1  X      1.38982     1.39284
              4  O  1  Y      1.75264     1.75521
              5  O  1  Z      1.65072     1.64962
              6  H  2  S      0.68950     0.77234
              7  H  3  S      0.72037     0.79917
              8  O  4  S      1.99518     1.99488
              9  O  4  S      1.79947     1.63338
             10  O  4  X      1.74525     1.74210
             11  O  4  Y      1.82977     1.82802
             12  O  4  Z      1.23577     1.24114
             13  H  5  S      0.68140     0.76563
             14  H  6  S      0.70794     0.78776
             15  O  7  S      1.99520     1.99494
             16  O  7  S      1.80264     1.63644
             17  O  7  X      1.67162     1.66924
             18  O  7  Y      1.74124     1.74222
             19  O  7  Z      1.38143     1.38747
             20  H  8  S      0.68775     0.77387
             21  H  9  S      0.72297     0.79909
             22  O 10  S      1.99514     1.99489
             23  O 10  S      1.79896     1.63198
             24  O 10  X      1.65790     1.65978
             25  O 10  Y      1.73280     1.73327
             26  O 10  Z      1.41347     1.41521
             27  H 11  S      0.69465     0.77789
             28  H 12  S      0.70774     0.78883
             29  O 13  S      1.99529     1.99506
             30  O 13  S      1.81101     1.64476
             31  O 13  X      1.89657     1.89747
             32  O 13  Y      1.36158     1.36524
             33  O 13  Z      1.52198     1.52300
             34  H 14  S      0.71154     0.79094
             35  H 15  S      0.70264     0.78421

          ----- MULLIKEN ATOMIC OVERLAP POPULATIONS -----
          (OFF-DIAGONAL ELEMENTS NEED TO BE MULTIPLIED BY 2)

             1           2           3           4           5

    1    7.9872334
    2    0.3021080   0.4236431
    3    0.3020907  -0.0375006   0.4554443
    4   -0.0003777   0.0012572   0.0000557   8.0011030
    5    0.0000111  -0.0000599  -0.0000006   0.3033533   0.4147141
    6    0.0000080  -0.0000247  -0.0000021   0.3023746  -0.0366780
    7   -0.0000334  -0.0000003  -0.0000675  -0.0000000   0.0000000
    8    0.0000013  -0.0000001   0.0000012   0.0000000  -0.0000000
    9    0.0000983   0.0000507   0.0002657  -0.0000005   0.0000000
   10   -0.0000001  -0.0000025  -0.0000003  -0.0023979   0.0000570
   11   -0.0000026   0.0000334   0.0000103   0.0004816   0.0000080
   12    0.0000000   0.0000001  -0.0000000  -0.0004107  -0.0000007
   13   -0.0000319   0.0000011  -0.0000518  -0.0000000   0.0000000
   14    0.0000014  -0.0000001   0.0000112   0.0000000  -0.0000000
   15    0.0001325  -0.0000065   0.0001117   0.0000000  -0.0000000

             6           7           8           9          10

    6    0.4448732
    7    0.0000000   7.9878160
    8    0.0000001   0.3033508   0.4216919
    9   -0.0000001   0.3016094  -0.0379467   0.4587333
   10   -0.0013525  -0.0004861   0.0009023  -0.0000019   7.9927484
   11   -0.0019016  -0.0000741  -0.0002428   0.0001653   0.3037577
   12    0.0006393   0.0000096  -0.0000104  -0.0000014   0.3050515
   13    0.0000000  -0.0000000  -0.0000000   0.0000000  -0.0000000
   14   -0.0000000  -0.0000000   0.0000000   0.0000000  -0.0000000
   15   -0.0000000   0.0000000   0.0000000  -0.0000001   0.0000000

            11          12          13          14          15

   11    0.4309446
   12   -0.0385260   0.4409854
   13   -0.0000000  -0.0000000   7.9847266
   14    0.0000000  -0.0000000   0.3005178   0.4508992
   15   -0.0000000   0.0000000   0.3012641  -0.0398888   0.4410253

          TOTAL MULLIKEN AND LOWDIN ATOMIC POPULATIONS
       ATOM         MULL.POP.    CHARGE          LOW.POP.     CHARGE
    1 O             8.591239   -0.591239         8.429815   -0.429815
    2 H             0.689499    0.310501         0.772344    0.227656
    3 H             0.720368    0.279632         0.799174    0.200826
    4 O             8.605439   -0.605439         8.439509   -0.439509
    5 H             0.681404    0.318596         0.765629    0.234371
    6 H             0.707936    0.292064         0.787759    0.212241
    7 O             8.592124   -0.592124         8.430308   -0.430308
    8 H             0.687748    0.312252         0.773871    0.226129
    9 H             0.722972    0.277028         0.799090    0.200910
   10 O             8.598276   -0.598276         8.435123   -0.435123
   11 H             0.694654    0.305346         0.777887    0.222113
   12 H             0.707737    0.292263         0.788825    0.211175
   13 O             8.586426   -0.586426         8.425521   -0.425521
   14 H             0.711541    0.288459         0.790935    0.209065
   15 H             0.702638    0.297362         0.784208    0.215792

          MULLIKEN SPHERICAL HARMONIC POPULATIONS
       ATOM           S       P       D      F      G      H      I    TOTAL
    1 O             3.80    4.79    0.00   0.00   0.00   0.00   0.00    8.59
    2 H             0.69    0.00    0.00   0.00   0.00   0.00   0.00    0.69
    3 H             0.72    0.00    0.00   0.00   0.00   0.00   0.00    0.72
    4 O             3.79    4.81    0.00   0.00   0.00   0.00   0.00    8.61
    5 H             0.68    0.00    0.00   0.00   0.00   0.00   0.00    0.68
    6 H             0.71    0.00    0.00   0.00   0.00   0.00   0.00    0.71
    7 O             3.80    4.79    0.00   0.00   0.00   0.00   0.00    8.59
    8 H             0.69    0.00    0.00   0.00   0.00   0.00   0.00    0.69
    9 H             0.72    0.00    0.00   0.00   0.00   0.00   0.00    0.72
   10 O             3.79    4.80    0.00   0.00   0.00   0.00   0.00    8.60
   11 H             0.69    0.00    0.00   0.00   0.00   0.00   0.00    0.69
   12 H             0.71    0.00    0.00   0.00   0.00   0.00   0.00    0.71
   13 O             3.81    4.78    0.00   0.00   0.00   0.00   0.00    8.59
   14 H             0.71    0.00    0.00   0.00   0.00   0.00   0.00    0.71
   15 H             0.70    0.00    0.00   0.00   0.00   0.00   0.00    0.70

          -------------------------------
          BOND ORDER AND VALENCE ANALYSIS     BOND ORDER THRESHOLD=0.050
          -------------------------------

                   BOND                       BOND                       BOND
  ATOM PAIR DIST  ORDER      ATOM PAIR DIST  ORDER      ATOM PAIR DIST  ORDER
    1   2  0.960  0.889        1   3  0.946  0.910        4   5  0.959  0.887
    4   6  0.947  0.901        7   8  0.946  0.889        7   9  0.959  0.911
   10  11  0.953  0.888       10  12  0.946  0.902       13  14  0.953  0.908
   13  15  0.951  0.902

                       TOTAL       BONDED        FREE
      ATOM            VALENCE     VALENCE     VALENCE
    1 O                 1.806       1.806      -0.000
    2 H                 0.904       0.904      -0.000
    3 H                 0.922       0.922      -0.000
    4 O                 1.806       1.806       0.000
    5 H                 0.898       0.898      -0.000
    6 H                 0.915       0.915       0.000
    7 O                 1.804       1.804       0.000
    8 H                 0.902       0.902      -0.000
    9 H                 0.923       0.923      -0.000
   10 O                 1.805       1.805      -0.000
   11 H                 0.907       0.907      -0.000
   12 H                 0.915       0.915       0.000
   13 O                 1.811       1.811      -0.000
   14 H                 0.917       0.917       0.000
   15 H                 0.912       0.912       0.000

          ---------------------
          ELECTROSTATIC MOMENTS
          ---------------------

 POINT   1           X           Y           Z (BOHR)    CHARGE
                -0.701466    0.391636   -1.250067        0.00 (A.U.)
         DX          DY          DZ         /D/  (DEBYE)
     4.954943    3.104397   -2.328730    6.293785
 ...... END OF PROPERTY EVALUATION ......

   ENERGY ACCEPTED AT GLOBAL SEARCH POINT     0 IS      -377.5110196494
 GAMR=    0.010000 DACRAT=    0.500000 UPDFAC=    0.950000
 TEMPERATURE NUMBER   1 IS   2000.00
 MAX.DISP.:  1   1.88973   1.88973   1.88973   1.00000   1.00000   1.00000
 MAX.DISP.:  2   1.88973   1.88973   1.88973   1.00000   1.00000   1.00000
 MAX.DISP.:  3   1.88973   1.88973   1.88973   1.00000   1.00000   1.00000
 MAX.DISP.:  4   1.88973   1.88973   1.88973   1.00000   1.00000   1.00000
 MAX.DISP.:  5   1.88973   1.88973   1.88973   1.00000   1.00000   1.00000
 MC NBLOCK ii at temp number                    1                    1

  COORDINATES OF MINIMUM ENERGY GEOMETRY (ANGS):

   1  O            0.1920652007447  -1.1389353596576   1.7973549166665
   2  H            1.0476894370010  -1.3689619285155   1.4265670466970
   3  H           -0.2258708758392  -0.5939094623472   1.1465007641595
   4  O            1.8819907754217   0.5125539144081  -0.4908826844869
   5  H            2.4902537901084   0.9023417336681   0.1392256057517
   6  H            2.1303782992874   0.8821942920548  -1.3264624627243
   7  O           -1.7119674494368  -1.6821128996931  -2.3094742396847
   8  H           -1.0164527947459  -1.6242985160861  -2.9482792429081
   9  H           -1.4764901966053  -1.0553127820959  -1.6236183250081
  10  O            0.9597510294210  -0.2500257582120  -3.0665018236823
  11  H            0.7965153163531  -0.2368926420640  -2.1275647479572
  12  H            1.6459163123322   0.3862277005469  -3.2075953937231
  13  O           -2.3356741714493   2.8134174389454   1.6173910830554
  14  H           -2.7016603427692   3.0255006309189   0.7635275626488
  15  H           -2.2204377941012   1.8713622240344   1.5591770974761

  COORDINATES OF MINIMUM ENERGY GEOMETRY (ANGS):

   1  O           -0.0950690532553  -1.6864138556576   0.9983379546665
   2  H            0.7605551830010  -1.9164404245155   0.6275500846970
   3  H           -0.5130051298392  -1.1413879583472   0.3474838021595
   4  O            2.1625550573076   0.4222495287765  -0.7391795040402
   5  H            1.4642995662029   0.8303061244977  -0.2245106975858
   6  H            2.8757682413070   1.0445342868569  -0.7144293398335
   7  O           -1.7119674494368  -1.6821128996931  -2.3094742396847
   8  H           -1.0164527947459  -1.6242985160861  -2.9482792429081
   9  H           -1.4764901966053  -1.0553127820959  -1.6236183250081
  10  O            0.9597510294210  -0.2500257582120  -3.0665018236823
  11  H            0.7965153163531  -0.2368926420640  -2.1275647479572
  12  H            1.6459163123322   0.3862277005469  -3.2075953937231
  13  O           -2.3356741714493   2.8134174389454   1.6173910830554
  14  H           -2.7016603427692   3.0255006309189   0.7635275626488
  15  H           -2.2204377941012   1.8713622240344   1.5591770974761
 MC NBLOCK ii at temp number                    2                    1

  COORDINATES OF MINIMUM ENERGY GEOMETRY (ANGS):

   1  O           -0.0950690532553  -1.6864138556576   0.9983379546665
   2  H            0.7605551830010  -1.9164404245155   0.6275500846970
   3  H           -0.5130051298392  -1.1413879583472   0.3474838021595
   4  O            1.9090979973076   0.8879112067765  -0.7438109200402
   5  H            1.2108425062029   1.2959678024977  -0.2291421135858
   6  H            2.6223111813070   1.5101959648569  -0.7190607558335
   7  O           -1.7119674494368  -1.6821128996931  -2.3094742396847
   8  H           -1.0164527947459  -1.6242985160861  -2.9482792429081
   9  H           -1.4764901966053  -1.0553127820959  -1.6236183250081
  10  O            0.9597510294210  -0.2500257582120  -3.0665018236823
  11  H            0.7965153163531  -0.2368926420640  -2.1275647479572
  12  H            1.6459163123322   0.3862277005469  -3.2075953937231
  13  O           -2.3356741714493   2.8134174389454   1.6173910830554
  14  H           -2.7016603427692   3.0255006309189   0.7635275626488
  15  H           -2.2204377941012   1.8713622240344   1.5591770974761

  COORDINATES OF MINIMUM ENERGY GEOMETRY (ANGS):

   1  O           -0.4133220252553  -1.5925613256576   1.5163374226665
   2  H            0.4423022110010  -1.8225878945155   1.1455495526970
   3  H           -0.8312581018392  -1.0475354283472   0.8654832701595
   4  O            1.9090979973076   0.8879112067765  -0.7438109200402
   5  H            1.2108425062029   1.2959678024977  -0.2291421135858
   6  H            2.6223111813070   1.5101959648569  -0.7190607558335
   7  O           -1.7119674494368  -1.6821128996931  -2.3094742396847
   8  H           -1.0164527947459  -1.6242985160861  -2.9482792429081
   9  H           -1.4764901966053  -1.0553127820959  -1.6236183250081
  10  O            0.9597510294210  -0.2500257582120  -3.0665018236823
  11  H            0.7965153163531  -0.2368926420640  -2.1275647479572
  12  H            1.6459163123322   0.3862277005469  -3.2075953937231
  13  O           -2.3356741714493   2.8134174389454   1.6173910830554
  14  H           -2.7016603427692   3.0255006309189   0.7635275626488
  15  H           -2.2204377941012   1.8713622240344   1.5591770974761
 MC NBLOCK ii at temp number                    3                    1
 Proximity alert between atom                    1 and atom                   13
 MC NBLOCK ii at temp number                    4                    1
 Proximity alert between atom                    3 and atom                   15
 Proximity alert between atom                    1 and atom                   13
 MC NBLOCK ii at temp number                    5                    1
 MC NBLOCK ii at temp number                    6                    1
 Proximity alert between atom                    6 and atom                   11
 MC NBLOCK ii at temp number                    7                    1
 Proximity alert between atom                    9 and atom                   12
 MC NBLOCK ii at temp number                    8                    1
 MC NBLOCK ii at temp number                    9                    1
 Proximity alert between atom                    2 and atom                    5
 MC NBLOCK ii at temp number                   10                    1

          -------------------------------
          STATISTICS FROM MONTE CARLO RUN
          -------------------------------

 AT TEMPERATURE =                 2000.00
 NUMBER OF GEOMETRIES REJECTED 
  DUE TO PROXIMITY ALERT =           6
 NUMBER OF ENERGY EVALUATIONS =     34
 NUMBER OF ENERGIES REJECTED =      10
 NUMBER OF ENERGIES ACCEPTED =      24
 ACCEPTANCE RATIO =                  0.706
 MINIMUM ENERGY FOUND SO FAR =    -377.5153856472  AT GEOMETRY NUMBER      6


 TEMPERATURE NUMBER   2 IS     20.00
 MAX.DISP.:  1   1.98919   1.98919   1.98919   1.05263   1.05263   1.05263
 MAX.DISP.:  2   1.98919   1.98919   1.98919   1.05263   1.05263   1.05263
 MAX.DISP.:  3   1.98919   1.98919   1.98919   1.05263   1.05263   1.05263
 MAX.DISP.:  4   1.98919   1.98919   1.98919   1.05263   1.05263   1.05263
 MAX.DISP.:  5   1.98919   1.98919   1.98919   1.05263   1.05263   1.05263
 MC NBLOCK ii at temp number                    1                    2
 MC NBLOCK ii at temp number                    2                    2
 Proximity alert between atom                    1 and atom                    4

  COORDINATES OF MINIMUM ENERGY GEOMETRY (ANGS):

   1  O           -0.1134275636811  -2.0763630313842   2.2251075942977
   2  H            0.3031621952765  -1.2152183551956   2.1392500380193
   3  H           -0.6335836693876  -2.1834122777795   1.4419645644319
   4  O            1.3001597370273   1.7754835484301  -0.8454738364707
   5  H            0.7720983189422   1.7101547931887  -0.0480792108459
   6  H            0.6787042850194   1.6872583956456  -1.5543697245839
   7  O           -1.7366590874613   0.0379205889707  -1.8192907365329
   8  H           -1.3156052154331   0.2254907391102  -2.6455389108798
   9  H           -1.0650737392010  -0.3903207351396  -1.2860846337506
  10  O           -2.1800580802847   1.2295940004805  -4.1859776822346
  11  H           -3.0038713067414   1.6673537896163  -3.9907359247580
  12  H           -2.3629142843246   0.6797802875368  -4.9341869741211
  13  O           -1.8765319858258   2.0162545335239   0.7525649674388
  14  H           -1.5348551365871   1.1887236966032   0.4262863839616
  15  H           -2.7790101076405   1.9936963494617   0.4539670995630
 MC NBLOCK ii at temp number                    3                    2
 Proximity alert between atom                    7 and atom                   14

  COORDINATES OF MINIMUM ENERGY GEOMETRY (ANGS):

   1  O           -0.1134275636811  -2.0763630313842   2.2251075942977
   2  H            0.3031621952765  -1.2152183551956   2.1392500380193
   3  H           -0.6335836693876  -2.1834122777795   1.4419645644319
   4  O            1.2817222212378   1.7461926789564  -0.0182494891023
   5  H            0.7536608031528   1.6808639237151   0.7791451365225
   6  H            0.6602667692299   1.6579675261719  -0.7271453772155
   7  O           -1.7366590874613   0.0379205889707  -1.8192907365329
   8  H           -1.3156052154331   0.2254907391102  -2.6455389108798
   9  H           -1.0650737392010  -0.3903207351396  -1.2860846337506
  10  O           -2.1800580802847   1.2295940004805  -4.1859776822346
  11  H           -3.0038713067414   1.6673537896163  -3.9907359247580
  12  H           -2.3629142843246   0.6797802875368  -4.9341869741211
  13  O           -1.8765319858258   2.0162545335239   0.7525649674388
  14  H           -1.5348551365871   1.1887236966032   0.4262863839616
  15  H           -2.7790101076405   1.9936963494617   0.4539670995630
 MC NBLOCK ii at temp number                    4                    2

  COORDINATES OF MINIMUM ENERGY GEOMETRY (ANGS):

   1  O           -0.1134275636811  -2.0763630313842   2.2251075942977
   2  H            0.3031621952765  -1.2152183551956   2.1392500380193
   3  H           -0.6335836693876  -2.1834122777795   1.4419645644319
   4  O            1.2817222212378   1.7461926789564  -0.0182494891023
   5  H            0.7536608031528   1.6808639237151   0.7791451365225
   6  H            0.6602667692299   1.6579675261719  -0.7271453772155
   7  O           -1.7366590874613   0.0379205889707  -1.8192907365329
   8  H           -1.3156052154331   0.2254907391102  -2.6455389108798
   9  H           -1.0650737392010  -0.3903207351396  -1.2860846337506
  10  O           -2.1800580802847   1.2295940004805  -4.1859776822346
  11  H           -3.0038713067414   1.6673537896163  -3.9907359247580
  12  H           -2.3629142843246   0.6797802875368  -4.9341869741211
  13  O           -2.7915901142469   2.6275824387870   0.3729121821756
  14  H           -2.4499132650082   1.8000516018663   0.0466335986984
  15  H           -3.6940682360616   2.6050242547249   0.0743143142999

  COORDINATES OF MINIMUM ENERGY GEOMETRY (ANGS):

   1  O           -0.1134275636811  -2.0763630313842   2.2251075942977
   2  H            0.3031621952765  -1.2152183551956   2.1392500380193
   3  H           -0.6335836693876  -2.1834122777795   1.4419645644319
   4  O            0.7545462783832   2.0318753566798   0.3404028911056
   5  H            0.2724121770560   2.8292150894000   0.1151231639448
   6  H            0.5789949283697   1.4341269902673  -0.3726206362465
   7  O           -1.7366590874613   0.0379205889707  -1.8192907365329
   8  H           -1.3156052154331   0.2254907391102  -2.6455389108798
   9  H           -1.0650737392010  -0.3903207351396  -1.2860846337506
  10  O           -2.1800580802847   1.2295940004805  -4.1859776822346
  11  H           -3.0038713067414   1.6673537896163  -3.9907359247580
  12  H           -2.3629142843246   0.6797802875368  -4.9341869741211
  13  O           -2.7915901142469   2.6275824387870   0.3729121821756
  14  H           -2.4499132650082   1.8000516018663   0.0466335986984
  15  H           -3.6940682360616   2.6050242547249   0.0743143142999
 MC NBLOCK ii at temp number                    5                    2

  COORDINATES OF MINIMUM ENERGY GEOMETRY (ANGS):

   1  O            0.8534087836873  -1.7349277240158   2.0024009353503
   2  H            1.2699985426449  -0.8737830478272   1.9165433790720
   3  H            0.3332526779808  -1.8419769704111   1.2192579054846
   4  O            0.7545462783832   2.0318753566798   0.3404028911056
   5  H            0.2724121770560   2.8292150894000   0.1151231639448
   6  H            0.5789949283697   1.4341269902673  -0.3726206362465
   7  O           -1.7366590874613   0.0379205889707  -1.8192907365329
   8  H           -1.3156052154331   0.2254907391102  -2.6455389108798
   9  H           -1.0650737392010  -0.3903207351396  -1.2860846337506
  10  O           -2.1800580802847   1.2295940004805  -4.1859776822346
  11  H           -3.0038713067414   1.6673537896163  -3.9907359247580
  12  H           -2.3629142843246   0.6797802875368  -4.9341869741211
  13  O           -2.7915901142469   2.6275824387870   0.3729121821756
  14  H           -2.4499132650082   1.8000516018663   0.0466335986984
  15  H           -3.6940682360616   2.6050242547249   0.0743143142999

  COORDINATES OF MINIMUM ENERGY GEOMETRY (ANGS):

   1  O            1.1371989752663  -2.1171795808579   2.6804292869293
   2  H            1.5537887342238  -1.2560349046693   2.5945717306509
   3  H            0.6170428695597  -2.2242288272532   1.8972862570635
   4  O            0.7545462783832   2.0318753566798   0.3404028911056
   5  H            0.2724121770560   2.8292150894000   0.1151231639448
   6  H            0.5789949283697   1.4341269902673  -0.3726206362465
   7  O           -1.7366590874613   0.0379205889707  -1.8192907365329
   8  H           -1.3156052154331   0.2254907391102  -2.6455389108798
   9  H           -1.0650737392010  -0.3903207351396  -1.2860846337506
  10  O           -2.1800580802847   1.2295940004805  -4.1859776822346
  11  H           -3.0038713067414   1.6673537896163  -3.9907359247580
  12  H           -2.3629142843246   0.6797802875368  -4.9341869741211
  13  O           -2.7915901142469   2.6275824387870   0.3729121821756
  14  H           -2.4499132650082   1.8000516018663   0.0466335986984
  15  H           -3.6940682360616   2.6050242547249   0.0743143142999
 MC NBLOCK ii at temp number                    6                    2
 Proximity alert between atom                    8 and atom                   10
 SOSCF IS SCALING ROTATION ANGLE MATRIX, SQCDF=    0.146431
 Proximity alert between atom                    7 and atom                   10
 Proximity alert between atom                    6 and atom                    9
 MC NBLOCK ii at temp number                    7                    2

  COORDINATES OF MINIMUM ENERGY GEOMETRY (ANGS):

   1  O            1.1371989752663  -2.1171795808579   2.6804292869293
   2  H            1.5537887342238  -1.2560349046693   2.5945717306509
   3  H            0.6170428695597  -2.2242288272532   1.8972862570635
   4  O            0.7545462783832   2.0318753566798   0.3404028911056
   5  H            0.2724121770560   2.8292150894000   0.1151231639448
   6  H            0.5789949283697   1.4341269902673  -0.3726206362465
   7  O           -1.7366590874613   0.0379205889707  -1.8192907365329
   8  H           -1.3156052154331   0.2254907391102  -2.6455389108798
   9  H           -1.0650737392010  -0.3903207351396  -1.2860846337506
  10  O           -2.1800580802847   1.2295940004805  -4.1859776822346
  11  H           -3.0038713067414   1.6673537896163  -3.9907359247580
  12  H           -2.3629142843246   0.6797802875368  -4.9341869741211
  13  O           -2.5261323163522   2.8194611903660  -0.3966207883507
  14  H           -2.1844554671134   1.9919303534453  -0.7228993718279
  15  H           -3.4286104381669   2.7969030063038  -0.6952186562264
 Proximity alert between atom                    8 and atom                   10
 Proximity alert between atom                    2 and atom                    4
 MC NBLOCK ii at temp number                    8                    2

  COORDINATES OF MINIMUM ENERGY GEOMETRY (ANGS):

   1  O            1.1371989752663  -2.1171795808579   2.6804292869293
   2  H            1.5537887342238  -1.2560349046693   2.5945717306509
   3  H            0.6170428695597  -2.2242288272532   1.8972862570635
   4  O            0.7545462783832   2.0318753566798   0.3404028911056
   5  H            0.2724121770560   2.8292150894000   0.1151231639448
   6  H            0.5789949283697   1.4341269902673  -0.3726206362465
   7  O           -1.7366590874613   0.0379205889707  -1.8192907365329
   8  H           -1.3156052154331   0.2254907391102  -2.6455389108798
   9  H           -1.0650737392010  -0.3903207351396  -1.2860846337506
  10  O           -1.3582208066004   1.5481495394279  -4.2990414674977
  11  H           -2.1820340330572   1.9859093285637  -4.1037997100211
  12  H           -1.5410770106404   0.9983358264842  -5.0472507593842
  13  O           -2.5261323163522   2.8194611903660  -0.3966207883507
  14  H           -2.1844554671134   1.9919303534453  -0.7228993718279
  15  H           -3.4286104381669   2.7969030063038  -0.6952186562264
 MC NBLOCK ii at temp number                    9                    2
 Proximity alert between atom                    7 and atom                   10
 MC NBLOCK ii at temp number                   10                    2
 Proximity alert between atom                    2 and atom                    4

          -------------------------------
          STATISTICS FROM MONTE CARLO RUN
          -------------------------------

 AT TEMPERATURE =                   20.00
 NUMBER OF GEOMETRIES REJECTED 
  DUE TO PROXIMITY ALERT =           9
 NUMBER OF ENERGY EVALUATIONS =     31
 NUMBER OF ENERGIES REJECTED =      18
 NUMBER OF ENERGIES ACCEPTED =      13
 ACCEPTANCE RATIO =                  0.419
 MINIMUM ENERGY FOUND SO FAR =    -377.5249020221  AT GEOMETRY NUMBER     69



          ***GLOBAL OPTIMIZATION COMPLETE*** 

 TOTAL NUMBER OF GEOMETRIES =       80
 NUMBER OF GEOMETRIES REJECTED 
  DUE TO PROXIMITY ALERT =          15
 NUMBER OF ENERGY EVALUATIONS =     65
 NUMBER OF ENERGIES REJECTED =      28
 NUMBER OF ENERGIES ACCEPTED =      37
 ACCEPTANCE RATIO =                  0.569
 FINAL ENERGY FOUND =             -377.5249020221
 MINIMUM ENERGY FOUND =           -377.5249020221  AT GEOMETRY NUMBER     69


  COORDINATES OF FINAL GEOMETRY (ANGS):

   1  O            1.1371989752663  -2.1171795808579   2.6804292869293
   2  H            1.5537887342238  -1.2560349046693   2.5945717306509
   3  H            0.6170428695597  -2.2242288272532   1.8972862570635
   4  O            0.7545462783832   2.0318753566798   0.3404028911056
   5  H            0.2724121770560   2.8292150894000   0.1151231639448
   6  H            0.5789949283697   1.4341269902673  -0.3726206362465
   7  O           -1.7366590874613   0.0379205889707  -1.8192907365329
   8  H           -1.3156052154331   0.2254907391102  -2.6455389108798
   9  H           -1.0650737392010  -0.3903207351396  -1.2860846337506
  10  O           -1.3582208066004   1.5481495394279  -4.2990414674977
  11  H           -2.1820340330572   1.9859093285637  -4.1037997100211
  12  H           -1.5410770106404   0.9983358264842  -5.0472507593842
  13  O           -2.5261323163522   2.8194611903660  -0.3966207883507
  14  H           -2.1844554671134   1.9919303534453  -0.7228993718279
  15  H           -3.4286104381669   2.7969030063038  -0.6952186562264

  COORDINATES OF MINIMUM ENERGY GEOMETRY (ANGS):

   1  O            1.1371989752663  -2.1171795808579   2.6804292869293
   2  H            1.5537887342238  -1.2560349046693   2.5945717306509
   3  H            0.6170428695597  -2.2242288272532   1.8972862570635
   4  O            0.7545462783832   2.0318753566798   0.3404028911056
   5  H            0.2724121770560   2.8292150894000   0.1151231639448
   6  H            0.5789949283697   1.4341269902673  -0.3726206362465
   7  O           -1.7366590874613   0.0379205889707  -1.8192907365329
   8  H           -1.3156052154331   0.2254907391102  -2.6455389108798
   9  H           -1.0650737392010  -0.3903207351396  -1.2860846337506
  10  O           -1.3582208066004   1.5481495394279  -4.2990414674977
  11  H           -2.1820340330572   1.9859093285637  -4.1037997100211
  12  H           -1.5410770106404   0.9983358264842  -5.0472507593842
  13  O           -2.5261323163522   2.8194611903660  -0.3966207883507
  14  H           -2.1844554671134   1.9919303534453  -0.7228993718279
  15  H           -3.4286104381669   2.7969030063038  -0.6952186562264

          ***MINIMIZING ENERGY FROM FINAL SA GEOMETRY***

 ...... END OF ONE-ELECTRON INTEGRALS ......
 STEP CPU TIME =     0.00 TOTAL CPU TIME =       20.6 (    0.3 MIN)
 TOTAL WALL CLOCK TIME=       20.7 SECONDS, CPU UTILIZATION IS  99.61%
  ...... END OF TWO-ELECTRON INTEGRALS .....
 STEP CPU TIME =     0.00 TOTAL CPU TIME =       20.6 (    0.3 MIN)
 TOTAL WALL CLOCK TIME=       20.7 SECONDS, CPU UTILIZATION IS  99.61%

          --------------------------
                 RHF SCF CALCULATION
          --------------------------
     DENSITY MATRIX CONV=  2.00E-05

 DIRECT SCF CALCULATION, SCHWRZ=T   FDIFF=T,  DIRTHR=  0.00E+00 NITDIR=10

                                                                                   NONZERO     BLOCKS
 ITER EX DEM     TOTAL ENERGY        E CHANGE  DENSITY CHANGE     ORB. GRAD      INTEGRALS    SKIPPED
          ---------------START SECOND ORDER SCF---------------
   1  0  0     -377.1907371795  -377.1907371795   0.458771160   0.204620271          83861      28764
   2  1  0     -377.4397344299    -0.2489972504   0.472118574   0.106102226          73770      33554
   3  2  0     -377.5137047720    -0.0739703422   0.098143104   0.051226442          74008      33322
   4  3  0     -377.5245210625    -0.0108162904   0.017036340   0.007660825          70016      34655
   5  4  0     -377.5248655110    -0.0003444486   0.007160236   0.001621628          62377      36842
   6  5  0     -377.5249008287    -0.0000353177   0.001381416   0.000444602          57458      38207
   7  6  0     -377.5249019223    -0.0000010936   0.000664032   0.000157498          49928      40070
   8  7  0     -377.5249020209    -0.0000000986   0.000034262   0.000013613          44691      41587
   9  8  0     -377.5249020218    -0.0000000009   0.000006559   0.000003634          36832      43504
  10  9  0     -377.5249020218    -0.0000000000   0.000001333   0.000000502          31916      44737

          -----------------
          DENSITY CONVERGED
          -----------------
     TIME TO FORM FOCK OPERATORS=       0.4 SECONDS (       0.0 SEC/ITER)
     FOCK TIME ON FIRST ITERATION=       0.1, LAST ITERATION=       0.0
     TIME TO SOLVE SCF EQUATIONS=       0.0 SECONDS (       0.0 SEC/ITER)

 FINAL RHF ENERGY IS     -377.5249020218 AFTER  10 ITERATIONS
 ...... END OF RHF CALCULATION ......
 STEP CPU TIME =     0.36 TOTAL CPU TIME =       21.0 (    0.3 MIN)
 TOTAL WALL CLOCK TIME=       21.1 SECONDS, CPU UTILIZATION IS  99.62%
 ..... END OF 1-ELECTRON GRADIENT ......
 STEP CPU TIME =     0.02 TOTAL CPU TIME =       21.0 (    0.3 MIN)
 TOTAL WALL CLOCK TIME=       21.1 SECONDS, CPU UTILIZATION IS  99.62%
 ...... END OF 2-ELECTRON GRADIENT ......
 STEP CPU TIME =     0.05 TOTAL CPU TIME =       21.0 (    0.4 MIN)
 TOTAL WALL CLOCK TIME=       21.1 SECONDS, CPU UTILIZATION IS  99.62%

          NSERCH=  0     ENERGY=    -377.5249020

                                 -----------------------
                                 GRADIENT (HARTREE/BOHR)
                                 -----------------------
        ATOM     ZNUC       DE/DX         DE/DY         DE/DZ
 --------------------------------------------------------------
    1  O            8.0    -0.0162449     0.0262510    -0.0499552
    2  H            1.0    -0.0170740    -0.0345930     0.0014787
    3  H            1.0     0.0332780     0.0079383     0.0481506
    4  O            8.0    -0.0302526    -0.0008196    -0.0495262
    5  H            1.0     0.0216534    -0.0365013     0.0061346
    6  H            1.0     0.0093121     0.0368264     0.0432997
    7  O            8.0     0.0491019    -0.0082124    -0.0360887
    8  H            1.0    -0.0237693    -0.0179529     0.0593074
    9  H            1.0    -0.0247414     0.0203231    -0.0242649
   10  O            8.0    -0.0503681    -0.0063572    -0.0381107
   11  H            1.0     0.0411652    -0.0255048    -0.0117681
   12  H            1.0     0.0087528     0.0344299     0.0491248
   13  O            8.0    -0.0276618    -0.0386696    -0.0263586
   14  H            1.0    -0.0250139     0.0489137     0.0164004
   15  H            1.0     0.0518625    -0.0060716     0.0121760

          MAXIMUM GRADIENT = 0.0593074    RMS GRADIENT = 0.0319926

 NSERCH:   0  E=     -377.5249020218  GRAD. MAX=  0.0593074  R.M.S.=  0.0319926

          FORCE CONSTANT MATRIX NOT UPDATED --- TAKING FIRST STEP
          MIN SEARCH, CORRECT HESSIAN, TRYING PURE NR STEP
               NR STEP HAS LENGTH         =  27.586104
          TRIM/QA LAMBDA FOR NON-TS MODES =  -0.06518448
          TRIM/QA STEP HAS LENGTH         =   0.300000
          RADIUS OF STEP TAKEN=   0.30000  CURRENT TRUST RADIUS=   0.30000

 BEGINNING GEOMETRY SEARCH POINT NSERCH=   1 ...

 COORDINATES OF ALL ATOMS ARE (ANGS)
   ATOM   CHARGE       X              Y              Z
 ------------------------------------------------------------
 O           8.0   1.1530716072  -2.1451888818   2.7193294916
 H           1.0   1.5580482144  -1.2306185860   2.5893606630
 H           1.0   0.5975459228  -2.2189881985   1.8668354933
 O           8.0   0.7793884987   2.0270762660   0.3788226401
 H           1.0   0.2536677183   2.8497884197   0.1189928208
 H           1.0   0.5733165165   1.4234029608  -0.4130616539
 O           8.0  -1.7677640255   0.0526261088  -1.7866364151
 H           1.0  -1.3033497421   0.2412206838  -2.6769023098
 H           1.0  -1.0457914670  -0.4224102486  -1.2751295688
 O           8.0  -1.3185844783   1.5409890400  -4.2702832977
 H           1.0  -2.2049485564   2.0050977390  -4.1053653525
 H           1.0  -1.5547842421   0.9847637637  -5.0909930998
 O           8.0  -2.5037844101   2.8446291088  -0.3975444900
 H           1.0  -2.1705734674   1.9478640768  -0.7259958593
 H           1.0  -3.4693422402   2.8113017087  -0.6919814028

          INTERNUCLEAR DISTANCES (ANGS.)
          ------------------------------

                1 O          2 H          3 H          4 O          5 H     

   1 O       0.0000000    1.0086311 *  1.0201966 *  4.7984797    5.7026727  
   2 H       1.0086311 *  0.0000000    1.5561111 *  4.0131490    4.9450831  
   3 H       1.0201966 *  1.5561111 *  0.0000000    4.5029227    5.3726811  
   4 O       4.7984797    4.0131490    4.5029227    0.0000000    1.0103213 *
   5 H       5.7026727    4.9450831    5.3726811    1.0103213 *  0.0000000  
   6 H       4.7836009    4.1265078    4.2971539    1.0168421 *  1.5555812 *
   7 O       5.8021893    5.6442089    4.9094582    3.8827377    3.9422996  
   8 H       6.3912655    6.1715018    5.5055958    4.1066451    4.1286752  
   9 H       4.8742864    4.7294256    3.9749459    3.4737334    3.7867474  
  10 O       8.2795941    7.9379808    7.4480341    5.1236664    4.8425900  
  11 H       8.6647353    8.3336283    7.8335216    5.3865288    4.9601914  
  12 H       8.8391304    8.5781979    7.9566281    6.0376868    5.8217496  
  13 O       6.9271771    6.4828798    6.3549891    3.4713633    2.8054197 *
  14 H       6.2984098    5.9158229    5.6345290    3.1510592    2.7211062 *
  15 H       7.5875260    7.2373324    6.9563597    4.4512182    3.8105070  

                6 H          7 O          8 H          9 H         10 O     

   1 O       4.7836009    5.8021893    6.3912655    4.8742864    8.2795941  
   2 H       4.1265078    5.6442089    6.1715018    4.7294256    7.9379808  
   3 H       4.2971539    4.9094582    5.5055958    3.9749459    7.4480341  
   4 O       1.0168421 *  3.8827377    4.1066451    3.4737334    5.1236664  
   5 H       1.5555812 *  3.9422996    4.1286752    3.7867474    4.8425900  
   6 H       0.0000000    3.0407885    3.1692910    2.6022487 *  4.2978221  
   7 O       3.0407885    0.0000000    1.0216760 *  1.0042625 *  2.9301004 *
   8 H       3.1692910    1.0216760 *  0.0000000    1.5721670 *  2.0563299 *
   9 H       2.6022487 *  1.0042625 *  1.5721670 *  0.0000000    3.5916986  
  10 O       4.2978221    2.9301004 *  2.0563299 *  3.5916986    0.0000000  
  11 H       4.6572773    3.0626426    2.4422632 *  3.9046991    1.0140198 *
  12 H       5.1579317    3.4399148    2.5384858 *  4.0987836    1.0191867 *
  13 O       3.3894947    3.2041509    3.6625470    3.6836728    4.2546777  
  14 H       2.8110353 *  2.2088777 *  2.7332663 *  2.6804632 *  3.6678885  
  15 H       4.2833572    3.4211006    3.9034281    4.0829589    4.3639085  

               11 H         12 H         13 O         14 H         15 H     

   1 O       8.6647353    8.8391304    6.9271771    6.2984098    7.5875260  
   2 H       8.3336283    8.5781979    6.4828798    5.9158229    7.2373324  
   3 H       7.8335216    7.9566281    6.3549891    5.6345290    6.9563597  
   4 O       5.3865288    6.0376868    3.4713633    3.1510592    4.4512182  
   5 H       4.9601914    5.8217496    2.8054197 *  2.7211062 *  3.8105070  
   6 H       4.6572773    5.1579317    3.3894947    2.8110353 *  4.2833572  
   7 O       3.0626426    3.4399148    3.2041509    2.2088777 *  3.4211006  
   8 H       2.4422632 *  2.5384858 *  3.6625470    2.7332663 *  3.9034281  
   9 H       3.9046991    4.0987836    3.6836728    2.6804632 *  4.0829589  
  10 O       1.0140198 *  1.0191867 *  4.2546777    3.6678885    4.3639085  
  11 H       0.0000000    1.5605310 *  3.8134042    3.3800289    3.7282498  
  12 H       1.5605310 *  0.0000000    5.1369408    4.5122012    5.1335248  
  13 O       3.8134042    5.1369408    0.0000000    1.0114828 *  1.0100028 *
  14 H       3.3800289    4.5122012    1.0114828 *  0.0000000    1.5599621 *
  15 H       3.7282498    5.1335248    1.0100028 *  1.5599621 *  0.0000000  

  * ... LESS THAN  3.000

 ...... END OF ONE-ELECTRON INTEGRALS ......
 STEP CPU TIME =     0.00 TOTAL CPU TIME =       21.0 (    0.4 MIN)
 TOTAL WALL CLOCK TIME=       21.1 SECONDS, CPU UTILIZATION IS  99.57%
  ...... END OF TWO-ELECTRON INTEGRALS .....
 STEP CPU TIME =     0.00 TOTAL CPU TIME =       21.0 (    0.4 MIN)
 TOTAL WALL CLOCK TIME=       21.1 SECONDS, CPU UTILIZATION IS  99.57%

          --------------------------
                 RHF SCF CALCULATION
          --------------------------
     DENSITY MATRIX CONV=  4.00E-04

 DIRECT SCF CALCULATION, SCHWRZ=T   FDIFF=T,  DIRTHR=  0.00E+00 NITDIR=10

                                                                                   NONZERO     BLOCKS
 ITER EX DEM     TOTAL ENERGY        E CHANGE  DENSITY CHANGE     ORB. GRAD      INTEGRALS    SKIPPED
          ---------------START SECOND ORDER SCF---------------
   1  0  0     -377.5313316939  -377.5313316939   0.034205779   0.033407410          83492      28824
   2  1  0     -377.5374460425    -0.0061143485   0.022882943   0.006956963          77280      32186
   3  2  0     -377.5383794424    -0.0009333999   0.004158286   0.003211803          74334      33142
   4  3  0     -377.5384371745    -0.0000577322   0.001126580   0.000774574          68233      34999
   5  4  0     -377.5384402896    -0.0000031151   0.000250220   0.000115410          62665      36719
   6  5  0     -377.5384404271    -0.0000001374   0.000052073   0.000032920          55635      38367
   7  6  0     -377.5384404353    -0.0000000082   0.000020151   0.000005512          47798      40555

          -----------------
          DENSITY CONVERGED
          -----------------
     TIME TO FORM FOCK OPERATORS=       0.3 SECONDS (       0.0 SEC/ITER)
     FOCK TIME ON FIRST ITERATION=       0.1, LAST ITERATION=       0.0
     TIME TO SOLVE SCF EQUATIONS=       0.0 SECONDS (       0.0 SEC/ITER)

 FINAL RHF ENERGY IS     -377.5384404353 AFTER   7 ITERATIONS
 ...... END OF RHF CALCULATION ......
 STEP CPU TIME =     0.29 TOTAL CPU TIME =       21.3 (    0.4 MIN)
 TOTAL WALL CLOCK TIME=       21.4 SECONDS, CPU UTILIZATION IS  99.63%
 ..... END OF 1-ELECTRON GRADIENT ......
 STEP CPU TIME =     0.02 TOTAL CPU TIME =       21.4 (    0.4 MIN)
 TOTAL WALL CLOCK TIME=       21.4 SECONDS, CPU UTILIZATION IS  99.63%
 ...... END OF 2-ELECTRON GRADIENT ......
 STEP CPU TIME =     0.05 TOTAL CPU TIME =       21.4 (    0.4 MIN)
 TOTAL WALL CLOCK TIME=       21.5 SECONDS, CPU UTILIZATION IS  99.63%

          NSERCH=  1     ENERGY=    -377.5384404

                                 -----------------------
                                 GRADIENT (HARTREE/BOHR)
                                 -----------------------
        ATOM     ZNUC       DE/DX         DE/DY         DE/DZ
 --------------------------------------------------------------
    1  O            8.0     0.0103464    -0.0191285     0.0353470
    2  H            1.0     0.0026699     0.0140793    -0.0092058
    3  H            1.0    -0.0130542     0.0046005    -0.0264779
    4  O            8.0     0.0194251     0.0011981     0.0339091
    5  H            1.0    -0.0094529     0.0101565    -0.0118096
    6  H            1.0    -0.0090722    -0.0118217    -0.0221660
    7  O            8.0    -0.0321965    -0.0003325     0.0149864
    8  H            1.0     0.0189956    -0.0023481    -0.0189232
    9  H            1.0     0.0140088    -0.0037402     0.0024836
   10  O            8.0     0.0347551     0.0109054     0.0217559
   11  H            1.0    -0.0219178     0.0046912    -0.0025305
   12  H            1.0    -0.0135633    -0.0128205    -0.0198659
   13  O            8.0     0.0150814     0.0224116     0.0173376
   14  H            1.0     0.0022402    -0.0121633    -0.0058828
   15  H            1.0    -0.0182656    -0.0056877    -0.0089580

          MAXIMUM GRADIENT = 0.0353470    RMS GRADIENT = 0.0165981

 NSERCH:   1  E=     -377.5384404353  GRAD. MAX=  0.0353470  R.M.S.=  0.0165981

          HESSIAN UPDATED USING THE BFGS FORMULA
             ACTUAL ENERGY CHANGE WAS  -0.0135384135
          PREDICTED ENERGY CHANGE WAS  -0.0332496646 RATIO=  0.407
          MIN SEARCH, CORRECT HESSIAN, TRYING PURE NR STEP
               NR STEP HAS LENGTH         =  20.004556
          TRIM/QA LAMBDA FOR NON-TS MODES =  -0.03482552
          TRIM/QA STEP HAS LENGTH         =   0.300000
          RADIUS OF STEP TAKEN=   0.30000  CURRENT TRUST RADIUS=   0.30000

 BEGINNING GEOMETRY SEARCH POINT NSERCH=   2 ...

 COORDINATES OF ALL ATOMS ARE (ANGS)
   ATOM   CHARGE       X              Y              Z
 ------------------------------------------------------------
 O           8.0   1.1523075964  -2.1191845839   2.6826690671
 H           1.0   1.5734722046  -1.2221098192   2.6219213818
 H           1.0   0.5829720978  -2.2481220927   1.8749514464
 O           8.0   0.7694250733   2.0319524260   0.3394651307
 H           1.0   0.2442937156   2.8634340449   0.1682028449
 H           1.0   0.5899604770   1.4108971096  -0.4174600048
 O           8.0  -1.7257846211   0.0654588706  -1.7775975352
 H           1.0  -1.3383040321   0.2761726390  -2.6804699491
 H           1.0  -1.0563661234  -0.4525812863  -1.2571088080
 O           8.0  -1.3615890742   1.5103428803  -4.2891523396
 H           1.0  -2.1859540474   2.0369350112  -4.0887043216
 H           1.0  -1.5253004109   0.9752766458  -5.1152235332
 O           8.0  -2.5042794281   2.8179777152  -0.4284349815
 H           1.0  -2.1652536959   1.9231167267  -0.7224104724
 H           1.0  -3.4734838827   2.8419876740  -0.6712002666

          INTERNUCLEAR DISTANCES (ANGS.)
[...]
    3  O  1  X    0.000000   0.000003   0.000000   0.000259  -0.005085
    4  O  1  Y   -0.000000  -0.000012  -0.000002  -0.000854  -0.005195
    5  O  1  Z    0.000000   0.000011   0.000003   0.000868   0.002976
    6  H  2  S   -0.000000  -0.000002  -0.000000  -0.000103   0.012149
    7  H  3  S    0.000001   0.000046   0.000008   0.003687   0.012294
    8  O  4  S    0.000060   0.006062   0.013441  -0.990039   0.011322
    9  O  4  S    0.000023   0.001212   0.001473  -0.048761  -0.000403
   10  O  4  X   -0.000011  -0.000454  -0.000426   0.006856  -0.000457
   11  O  4  Y   -0.000009  -0.000372   0.000713  -0.002021   0.001061
   12  O  4  Z   -0.000014  -0.000634   0.000297   0.002208  -0.001110
   13  H  5  S    0.000003   0.000088  -0.002448   0.012035  -0.000415
   14  H  6  S   -0.000053  -0.002451   0.000180   0.012134  -0.000434
   15  O  7  S   -0.007162   0.990064  -0.012806   0.006088  -0.000135
   16  O  7  S   -0.001728   0.048877   0.000179  -0.000290   0.000017
   17  O  7  X   -0.000258  -0.001677  -0.000203  -0.000935   0.000035
   18  O  7  Y   -0.000328  -0.003804   0.001084  -0.000055   0.000002
   19  O  7  Z    0.001211  -0.005580   0.000953  -0.000644   0.000025
   20  H  8  S    0.003819  -0.012197   0.000400  -0.000281   0.000010
   21  H  9  S   -0.000155  -0.011988   0.000397  -0.000262   0.000007
   22  O 10  S   -0.990213  -0.007461   0.000179  -0.000109   0.000003
   23  O 10  S   -0.048643   0.000658  -0.000027   0.000021  -0.000001
   24  O 10  X   -0.003669  -0.000439   0.000015  -0.000010   0.000000
   25  O 10  Y   -0.004532  -0.000451   0.000014  -0.000012   0.000000
   26  O 10  Z    0.003996   0.001546  -0.000054   0.000039  -0.000001
   27  H 11  S    0.011901   0.000371  -0.000010   0.000009  -0.000000
   28  H 12  S    0.011898   0.000371  -0.000012   0.000005  -0.000000
   29  O 13  S    0.000077   0.012475   0.990081   0.013699  -0.000178
   30  O 13  S    0.000025   0.001733   0.048531   0.000162   0.000010
   31  O 13  X   -0.000004  -0.000217  -0.005117  -0.001075   0.000038
   32  O 13  Y   -0.000014  -0.000723  -0.005638   0.000166  -0.000009
   33  O 13  Z   -0.000015  -0.000776   0.000190  -0.000210   0.000009
   34  H 14  S   -0.000057  -0.003152  -0.012141  -0.000665   0.000021
   35  H 15  S    0.000003   0.000061  -0.012065  -0.000337   0.000007

                      6          7          8          9         10
                   -1.3520    -1.3104    -1.2802    -1.2620    -1.2255
                     A          A          A          A          A   
    1  O  1  S    0.000124   0.002675   0.010371  -0.044818   0.217302
    2  O  1  S   -0.000440  -0.009689  -0.038149   0.166602  -0.824889
    3  O  1  X   -0.000025  -0.000666  -0.002945   0.013618  -0.075124
    4  O  1  Y   -0.000075  -0.001415  -0.004849   0.019258  -0.075925
    5  O  1  Z    0.000062   0.001070   0.003390  -0.012885   0.043326
    6  H  2  S   -0.000066  -0.001569  -0.006548   0.029637  -0.157437
    7  H  3  S   -0.000230  -0.004083  -0.012931   0.046971  -0.139660
    8  O  4  S    0.002480   0.032415   0.074542  -0.201546  -0.049794
    9  O  4  S   -0.009006  -0.120297  -0.281856   0.766515   0.192789
   10  O  4  X    0.001629   0.018651   0.038486  -0.092650  -0.025324
   11  O  4  Y   -0.000207  -0.004000  -0.013170   0.024760   0.009950
   12  O  4  Z    0.000788   0.007020   0.009463  -0.028749  -0.010922
   13  H  5  S   -0.001566  -0.022388  -0.059080   0.128095   0.035897
   14  H  6  S   -0.003511  -0.032827  -0.044808   0.134959   0.036819
   15  O  7  S    0.039866   0.209826  -0.064614   0.012871   0.003256
   16  O  7  S   -0.147720  -0.797838   0.248895  -0.049512  -0.012710
   17  O  7  X    0.003022   0.023906  -0.008376   0.004007   0.001192
   18  O  7  Y    0.008382   0.053651  -0.019841   0.003479   0.001145
   19  O  7  Z    0.019870   0.076878  -0.028285   0.006458   0.001990
   20  H  8  S   -0.044931  -0.128758   0.043789  -0.009055  -0.002537
   21  H  9  S   -0.024437  -0.143535   0.048250  -0.009997  -0.002840
   22  O 10  S    0.218829  -0.043200   0.008143  -0.001291  -0.000252
   23  O 10  S   -0.831371   0.167675  -0.032081   0.005135   0.001019
   24  O 10  X   -0.057236   0.012825  -0.002701   0.000506   0.000119
   25  O 10  Y   -0.070934   0.015801  -0.003331   0.000547   0.000126
   26  O 10  Z    0.059797  -0.016595   0.003942  -0.000697  -0.000179
   27  H 11  S   -0.144091   0.032131  -0.006640   0.001097   0.000240
   28  H 12  S   -0.143915   0.032003  -0.006592   0.001140   0.000251
   29  O 13  S    0.003449   0.051694   0.198939   0.084925   0.007584
   30  O 13  S   -0.012536  -0.192778  -0.755739  -0.323911  -0.029193
   31  O 13  X    0.001061   0.016657   0.066762   0.032704   0.003769
   32  O 13  Y    0.001881   0.024060   0.080018   0.031861   0.002375
   33  O 13  Z    0.000499   0.002629  -0.003401  -0.001738  -0.000295
   34  H 14  S   -0.005010  -0.050577  -0.125716  -0.059166  -0.005752
   35  H 15  S   -0.001958  -0.033073  -0.138514  -0.061854  -0.006086

                     11         12         13         14         15
                   -0.7025    -0.6816    -0.6493    -0.6228    -0.5957
                     A          A          A          A          A   
    1  O  1  S   -0.000009   0.000145  -0.002256   0.000757  -0.005528
    2  O  1  S    0.000045  -0.000710   0.011280  -0.003435   0.025193
    3  O  1  X    0.000031  -0.000909   0.017910  -0.022487   0.396422
    4  O  1  Y   -0.000043   0.000753  -0.016444   0.008570  -0.238773
    5  O  1  Z    0.000028  -0.001085   0.020463  -0.028800   0.355722
    6  H  2  S    0.000035  -0.000947   0.018156  -0.021747   0.348299
    7  H  3  S   -0.000075   0.001492  -0.027670   0.023792  -0.369707
    8  O  4  S    0.000098   0.000009   0.015112   0.001237   0.012576
    9  O  4  S   -0.000531  -0.000156  -0.075172  -0.006358  -0.071854
   10  O  4  X   -0.000131  -0.001875  -0.066547  -0.009640  -0.119822
   11  O  4  Y   -0.000918  -0.007387  -0.006503  -0.463484   0.165503
   12  O  4  Z   -0.001032   0.001824  -0.067998  -0.383268  -0.205444
   13  H  5  S   -0.000803  -0.003495  -0.006575  -0.353643   0.059697
   14  H  6  S    0.001396   0.003857   0.065454   0.355052   0.080529
   15  O  7  S    0.000543  -0.007205  -0.019706  -0.011436  -0.003908
   16  O  7  S   -0.002643   0.033741   0.109275   0.064037   0.021529
   17  O  7  X    0.012348  -0.234589   0.037295   0.168690   0.070316
   18  O  7  Y   -0.002850  -0.380713   0.221051   0.057732   0.001734
   19  O  7  Z   -0.006361   0.387220   0.207981   0.112335   0.026186
   20  H  8  S    0.005228  -0.360240  -0.061032  -0.025569  -0.005408
   21  H  9  S   -0.003161   0.331317  -0.107379  -0.072186  -0.018546
   22  O 10  S   -0.000296   0.016748   0.006845   0.005501   0.003360
   23  O 10  S    0.001680  -0.093065  -0.037300  -0.029728  -0.018090
   24  O 10  X    0.529117   0.104481   0.040371   0.025722   0.015742
   25  O 10  Y   -0.394421   0.096970   0.038245   0.034133   0.020334
   26  O 10  Z    0.045143  -0.282732  -0.077880  -0.050614  -0.025638
   27  H 11  S   -0.377752   0.074662   0.021287   0.018805   0.010175
   28  H 12  S    0.375028   0.084711   0.027210   0.015420   0.008839
   29  O 13  S   -0.000214   0.000869   0.006646   0.006569   0.001153
   30  O 13  S    0.001065  -0.004758  -0.030697  -0.038654  -0.004696
   31  O 13  X   -0.000681  -0.006259   0.164510  -0.172005   0.013533
   32  O 13  Y    0.001410  -0.002456  -0.210060   0.030333   0.016153
   33  O 13  Z    0.002564   0.011129  -0.505130   0.069925   0.094730
   34  H 14  S   -0.002567  -0.002115   0.356552  -0.027991  -0.051580
   35  H 15  S    0.001756   0.007455  -0.333942   0.104105   0.045346

                     16         17         18         19         20
                   -0.5764    -0.5352    -0.5209    -0.5145    -0.4810
                     A          A          A          A          A   
    1  O  1  S    0.000689  -0.005101   0.021545   0.008790  -0.039076
    2  O  1  S   -0.003896   0.027166  -0.114773  -0.046816   0.208627
    3  O  1  X    0.045559  -0.063962   0.212328   0.081373  -0.270994
    4  O  1  Y   -0.024241   0.009772   0.011809   0.008645  -0.160505
    5  O  1  Z    0.033489  -0.025124   0.060066   0.015710   0.052327
    6  H  2  S    0.037537  -0.045370   0.143128   0.053036  -0.150899
    7  H  3  S   -0.033939   0.019320  -0.031696  -0.007513  -0.054818
    8  O  4  S   -0.004002   0.016942  -0.055180  -0.020629   0.025804
    9  O  4  S    0.020921  -0.089355   0.294213   0.109261  -0.138132
   10  O  4  X    0.010237  -0.114825   0.395227   0.167702  -0.270463
   11  O  4  Y   -0.112951   0.133119  -0.111004  -0.101149   0.127353
   12  O  4  Z   -0.113851   0.071255   0.144092  -0.003850  -0.221779
   13  H  5  S   -0.086183   0.099122  -0.137588  -0.078076   0.052007
   14  H  6  S    0.070730  -0.016221  -0.150173  -0.026131   0.090815
   15  O  7  S    0.040401  -0.044264   0.000795   0.012657   0.040900
   16  O  7  S   -0.214343   0.237966  -0.005261  -0.069606  -0.218771
   17  O  7  X   -0.159943   0.090591  -0.400704  -0.011731  -0.181310
   18  O  7  Y   -0.319129   0.259174   0.211586  -0.040582  -0.134713
   19  O  7  Z   -0.018316   0.397053  -0.037256  -0.328997  -0.385024
   20  H  8  S   -0.017633  -0.113916   0.003613   0.087243   0.104998
   21  H  9  S    0.211010  -0.124994   0.001276  -0.005696   0.089899
   22  O 10  S   -0.065835  -0.036234   0.000775   0.014766   0.015108
   23  O 10  S    0.353785   0.193247  -0.004143  -0.081230  -0.081719
   24  O 10  X   -0.336720  -0.336692   0.015718  -0.195837   0.003160
   25  O 10  Y   -0.411141  -0.480830   0.015723  -0.338317  -0.018194
   26  O 10  Z    0.399195  -0.229467   0.017224  -0.713693  -0.213294
   27  H 11  S   -0.174453  -0.085891  -0.001552   0.037743   0.033590
   28  H 12  S   -0.175972  -0.083901   0.005016   0.037045   0.033769
   29  O 13  S   -0.011032   0.033909   0.043767  -0.033361   0.043646
   30  O 13  S    0.057674  -0.179166  -0.237706   0.176686  -0.232338
   31  O 13  X    0.049121  -0.133036  -0.450942   0.122215  -0.207988
   32  O 13  Y   -0.008294  -0.156994  -0.192444   0.231886  -0.466155
   33  O 13  Z   -0.180035   0.215863  -0.093609  -0.135354   0.002200
   34  H 14  S    0.065975  -0.000643   0.136715  -0.042461   0.124978
   35  H 15  S   -0.111232   0.162976   0.122883  -0.120362   0.095209

                     21         22         23         24         25
                   -0.4723    -0.4604    -0.4359    -0.4155    -0.3992
                     A          A          A          A          A   
    1  O  1  S   -0.028753   0.054318  -0.009776  -0.036349  -0.000079
    2  O  1  S    0.153629  -0.290355   0.052206   0.195041   0.000384
    3  O  1  X   -0.188672   0.343486  -0.055139  -0.190880  -0.248796
    4  O  1  Y   -0.141713   0.308982  -0.085372  -0.408655   0.652973
    5  O  1  Z    0.055707  -0.161829   0.029640   0.315679   0.714904
    6  H  2  S   -0.100751   0.171199  -0.027438  -0.048350  -0.000442
    7  H  3  S   -0.051112   0.115843  -0.023710  -0.144466   0.000200
    8  O  4  S    0.005442   0.026741  -0.028292  -0.021358  -0.000773
    9  O  4  S   -0.030967  -0.140125   0.151745   0.115832   0.004180
   10  O  4  X   -0.045923  -0.398064   0.528871  -0.164221   0.014051
   11  O  4  Y    0.020327  -0.286361   0.015091  -0.506395  -0.002353
   12  O  4  Z   -0.221491   0.172173  -0.173798   0.574651  -0.013336
   13  H  5  S   -0.014300   0.025865  -0.092233  -0.053280  -0.007984
   14  H  6  S    0.057915   0.086603  -0.053035  -0.047005   0.003677
   15  O  7  S   -0.010130   0.011824  -0.003573  -0.003759   0.000146
   16  O  7  S    0.054604  -0.062786   0.018810   0.019910  -0.000775
   17  O  7  X   -0.690324  -0.264546   0.088484   0.052363  -0.002596
   18  O  7  Y    0.433706   0.082126  -0.030511  -0.007376   0.000705
   19  O  7  Z    0.044850  -0.116877   0.029427   0.023972  -0.000999
   20  H  8  S   -0.026420   0.030085  -0.006086  -0.004118   0.000199
   21  H  9  S   -0.022036   0.024052  -0.007168  -0.010814   0.000293
   22  O 10  S   -0.003730   0.003701  -0.000676  -0.000443   0.000020
   23  O 10  S    0.020123  -0.020046   0.003670   0.002407  -0.000107
   24  O 10  X    0.005361   0.005028  -0.001365  -0.000897   0.000036
   25  O 10  Y    0.003422  -0.000313  -0.000342  -0.000508   0.000016
   26  O 10  Z    0.054896  -0.042700   0.006646   0.003827  -0.000171
   27  H 11  S   -0.013062   0.006565  -0.000973  -0.000717   0.000029
   28  H 12  S   -0.003261   0.009365  -0.001879  -0.001151   0.000051
   29  O 13  S   -0.027006   0.003529  -0.004750  -0.004362  -0.000394
   30  O 13  S    0.144704  -0.016755   0.025735   0.023206   0.002068
   31  O 13  X    0.229558   0.295091   0.535218   0.100590   0.010500
   32  O 13  Y    0.281276  -0.299623  -0.494205  -0.057055  -0.007029
   33  O 13  Z    0.109535   0.219623   0.332636   0.044392   0.005455
   34  H 14  S   -0.100673  -0.002839  -0.000702  -0.002776  -0.000282
   35  H 15  S   -0.040680   0.009563  -0.019129  -0.015455  -0.001015

                     26         27         28         29         30
                    0.4951     0.5494     0.6049     0.6069     0.6309
                     A          A          A          A          A   
    1  O  1  S    0.001910   0.010544   0.019493   0.000577   0.081341
    2  O  1  S   -0.012987  -0.072521  -0.135629  -0.004020  -0.569023
    3  O  1  X   -0.001288  -0.014240  -0.052637  -0.001570  -0.322062
    4  O  1  Y   -0.010998  -0.054871  -0.084989  -0.002501  -0.299769
    5  O  1  Z    0.009594   0.045351   0.059898   0.001772   0.162160
    6  H  2  S    0.005710   0.039501   0.103326   0.003071   0.550973
    7  H  3  S    0.017846   0.093954   0.149500   0.004432   0.514191
    8  O  4  S    0.011907   0.044880   0.040488   0.001017   0.089376
    9  O  4  S   -0.080908  -0.307174  -0.277895  -0.006899  -0.612197
   10  O  4  X    0.064623   0.226343   0.178279   0.004223   0.361546
   11  O  4  Y    0.008910  -0.027726  -0.200401  -0.013347  -0.036841
   12  O  4  Z    0.046943   0.108658  -0.083188  -0.009479   0.090927
   13  H  5  S    0.042113   0.228074   0.411788   0.019454   0.489089
   14  H  6  S    0.100079   0.313717   0.071472  -0.007797   0.544815
   15  O  7  S    0.058107   0.092181  -0.057476  -0.003790  -0.003806
   16  O  7  S   -0.394449  -0.621735   0.416517   0.027249   0.034079
   17  O  7  X    0.026720   0.195715  -0.188003  -0.014578  -0.107069
   18  O  7  Y    0.081055   0.358014  -0.390556  -0.028065  -0.019607
   19  O  7  Z    0.268197   0.084534  -0.174317  -0.006825  -0.018428
   20  H  8  S    0.412196   0.276357  -0.225390  -0.009283  -0.007751
   21  H  9  S    0.270065   0.732042  -0.620723  -0.044641  -0.088487
   22  O 10  S    0.122064  -0.040912   0.008593   0.000237   0.000160
   23  O 10  S   -0.841531   0.299927  -0.069928  -0.002084  -0.001560
   24  O 10  X   -0.290155   0.152369  -0.101623   0.790478   0.007623
   25  O 10  Y   -0.365616   0.177862  -0.023416  -0.588661  -0.008720
   26  O 10  Z    0.299041  -0.227572   0.093968   0.065017   0.004128
   27  H 11  S    0.732957  -0.317064   0.042243   0.872372   0.012830
   28  H 12  S    0.726948  -0.322689   0.151663  -0.865979  -0.007427
   29  O 13  S    0.017855   0.070017   0.084470   0.005684  -0.046743
   30  O 13  S   -0.121772  -0.481110  -0.584213  -0.039579   0.344963
   31  O 13  X    0.046159   0.212279   0.368812   0.026029  -0.324676
   32  O 13  Y    0.091595   0.300967   0.215339   0.015149  -0.153001
   33  O 13  Z    0.043806   0.036331  -0.354632  -0.021949   0.101942
   34  H 14  S    0.145846   0.468244   0.205989   0.016549  -0.271244
   35  H 15  S    0.070594   0.388551   0.825694   0.054880  -0.463082

                     31         32         33         34         35
                    0.6654     0.6941     0.7163     0.7201     0.7677
                     A          A          A          A          A   
    1  O  1  S   -0.084589  -0.003289   0.000254  -0.000480   0.040446
    2  O  1  S    0.596917   0.023472  -0.001822   0.003379  -0.285977
    3  O  1  X    0.620999   0.057881   0.003456  -0.021229   0.508084
    4  O  1  Y    0.165685  -0.009966  -0.002847   0.012575  -0.460528
    5  O  1  Z    0.064858   0.029612   0.004341  -0.019794   0.596112
    6  H  2  S   -0.910094  -0.075340  -0.003587   0.024312  -0.523843
    7  H  3  S   -0.210999   0.031744   0.007298  -0.031565   1.090074
    8  O  4  S    0.066752   0.009838  -0.002944   0.003715  -0.011839
    9  O  4  S   -0.480953  -0.070024   0.019235  -0.029291   0.120679
   10  O  4  X    0.367825   0.033554  -0.031732   0.039398  -0.214151
   11  O  4  Y   -0.146393  -0.220043  -0.337900   0.580976   0.239196
   12  O  4  Z    0.186680  -0.166876  -0.306438   0.524505  -0.188970
   13  H  5  S    0.466921   0.313059   0.402504  -0.681540  -0.286225
   14  H  6  S    0.504386  -0.181214  -0.431589   0.750259  -0.207811
   15  O  7  S   -0.002741  -0.027188   0.031741   0.001729   0.000609
   16  O  7  S    0.030779   0.174204  -0.262602  -0.010317  -0.009451
   17  O  7  X   -0.121986   0.336383  -0.045668  -0.089997   0.025977
   18  O  7  Y   -0.086214   0.587175   0.028789   0.096447  -0.000371
   19  O  7  Z   -0.005290  -0.494119   0.545944  -0.001454   0.032625
   20  H  8  S    0.035389  -0.881118   0.693210  -0.013152   0.032564
   21  H  9  S   -0.150931   0.643059   0.055008   0.036452   0.013262
   22  O 10  S   -0.000344   0.004117  -0.001202  -0.000058   0.000118
   23  O 10  S    0.003455  -0.059076   0.032617  -0.000007   0.000289
   24  O 10  X    0.007241  -0.103039   0.077252   0.001632   0.002719
   25  O 10  Y    0.003142  -0.125381   0.091303  -0.003663   0.003965
   26  O 10  Z   -0.009576   0.248651  -0.190417   0.003437  -0.008290
   27  H 11  S   -0.004538   0.173930  -0.123332   0.004881  -0.005051
   28  H 12  S   -0.010526   0.163646  -0.117796  -0.001558  -0.003909
   29  O 13  S   -0.015512  -0.012722  -0.028890  -0.018138   0.000965
   30  O 13  S    0.124009   0.097904   0.215055   0.112599  -0.015100
   31  O 13  X   -0.171906  -0.002929   0.011283   0.229312   0.058916
   32  O 13  Y   -0.050029  -0.156730  -0.304742  -0.235492   0.005320
   33  O 13  Z    0.035810  -0.301781  -0.555407  -0.499909   0.002558
   34  H 14  S   -0.118331  -0.415538  -0.795228  -0.584371   0.036227
   35  H 15  S   -0.195632   0.176396   0.314451   0.456736   0.039457
 ......END OF GEOMETRY SEARCH......
 STEP CPU TIME =     0.00 TOTAL CPU TIME =      153.1 (    2.6 MIN)
 TOTAL WALL CLOCK TIME=      153.6 SECONDS, CPU UTILIZATION IS  99.66%

          ***MINIMIZATION FROM MINIMUM-ENERGY SA GEOMETRY COMPLETE***

 ..... END OF GLOBAL OPTIMIZATION .....
 STEP CPU TIME =     0.00 TOTAL CPU TIME =      153.1 (    2.6 MIN)
 TOTAL WALL CLOCK TIME=      153.6 SECONDS, CPU UTILIZATION IS  99.66%
               580000  WORDS OF DYNAMIC MEMORY USED
 EXECUTION OF GAMESS TERMINATED NORMALLY Fri Jun  2 01:17:31 2017
 DDI: 263640 bytes (0.3 MB / 0 MWords) used by master data server.

 ----------------------------------------
 CPU timing information for all processes
 ========================================
 0: 152.858 + 0.267 = 153.126
 ----------------------------------------
 ddikick.x: exited gracefully.
unset echo
----- accounting info -----
Files used on the master node compute-0-2.local were:
-rw-rw-r-- 1 sarom sarom    2060 Jun  2 01:14 /scratch/globop-ai.F05
-rw-rw-r-- 1 sarom sarom 1701440 Jun  2 01:17 /scratch/globop-ai.F10
rm: cannot remove `/scratch/sarom': Is a directory
rm: cannot remove `/scratch/tmp': Is a directory
ls: No match.
ls: No match.
ls: No match.
Fri Jun  2 01:17:34 CDT 2017
0.147u 0.029s 2:36.97 0.1%	0+0k 8+376io 0pf+0w
Deleting shmid=3964928.
Deleting shmid=3997697.
Deleting shmid=4227074.
/opt/gridengine/default/spool/compute-0-2/active_jobs/23567.1/pe_hostfile compute-0-2.local
