-catch_rsh /opt/gridengine/default/spool/compute-1-0/active_jobs/35636.1/pe_hostfile
compute-1-0
The primary node assigned by SGE to this run is compute-1-0
Warning: no access to tty (Bad file descriptor).
Thus no job control in this shell.
source /home/sarom/dir.git.branch.saromleang-travis-ci/install.info
setenv GMS_PATH /home/sarom/dir.git.branch.saromleang-travis-ci
setenv GMS_BUILD_DIR /home/sarom/dir.git.branch.saromleang-travis-ci
setenv GMS_TARGET linux64
setenv GMS_FORTRAN gfortran
setenv GMS_GFORTRAN_VERNO 4.4
setenv GMS_MATHLIB mkl-so
setenv GMS_MATHLIB none
setenv GMS_MATHLIB_PATH /share/apps/intel/compilers_and_libraries_2017.1.132/linux/mkl/lib/intel64
setenv GMS_MKL_VERNO 12
setenv GMS_DDI_COMM sockets
setenv GMS_LIBCCHEM false
setenv GMS_EIGEN_PATH
setenv GMS_PHI false
setenv GMS_SHMTYPE sysv
setenv GMS_OPENMP false
unset echo
bibenz-dc
/home/sarom/dir.git.branch.saromleang-travis-ci/tests/dft/parallel
----- GAMESS execution script 'rungms' -----
This job is running on host compute-1-0.local
under operating system Linux at Wed Aug 9 19:23:26 CDT 2017
Available scratch disk space (Kbyte units) at beginning of the job is
Filesystem           1K-blocks      Used Available Use% Mounted on
/dev/sda1             16126920   9111844   6195876  60% /
GAMESS temporary binary files will be written to /scratch
GAMESS supplementary output files will be written to /home/sarom/restart
Copying input file bibenz-dc.inp to your run's scratch directory...
cp /home/sarom/dir.git.branch.saromleang-travis-ci/tests/dft/parallel/bibenz-dc.inp /scratch/bibenz-dc.F05
unset echo
The generated host list is
compute-1-0.local
/home/sarom/dir.git.branch.saromleang-travis-ci/ddikick.x /home/sarom/dir.git.branch.saromleang-travis-ci/gamess.00.x bibenz-dc -ddi 1 1 compute-1-0.local -scr /scratch

 Distributed Data Interface kickoff program.
 Initiating 1 compute processes on 1 nodes to run the following command:
 /home/sarom/dir.git.branch.saromleang-travis-ci/gamess.00.x bibenz-dc 

          ******************************************************
          *         GAMESS VERSION = 20 APR 2017 (R1)          *
          *             FROM IOWA STATE UNIVERSITY             *
          * M.W.SCHMIDT, K.K.BALDRIDGE, J.A.BOATZ, S.T.ELBERT, *
          *   M.S.GORDON, J.H.JENSEN, S.KOSEKI, N.MATSUNAGA,   *
          *          K.A.NGUYEN, S.J.SU, T.L.WINDUS,           *
          *       TOGETHER WITH M.DUPUIS, J.A.MONTGOMERY       *
          *         J.COMPUT.CHEM.  14, 1347-1363(1993)        *
          **************** 64 BIT LINUX VERSION ****************

  SINCE 1993, STUDENTS AND POSTDOCS WORKING AT IOWA STATE UNIVERSITY
  AND ALSO IN THEIR VARIOUS JOBS AFTER LEAVING ISU HAVE MADE IMPORTANT
  CONTRIBUTIONS TO THE CODE:
     IVANA ADAMOVIC, CHRISTINE AIKENS, YURI ALEXEEV, POOJA ARORA,
     ANDREY ASADCHEV, ROB BELL, PRADIPTA BANDYOPADHYAY, JONATHAN BENTZ,
     BRETT BODE, KURT BRORSEN, CALEB CARLIN, GALINA CHABAN, WEI CHEN,
     CHEOL HO CHOI, PAUL DAY, ALBERT DEFUSCO, NUWAN DESILVA, TIM DUDLEY,
     DMITRI FEDOROV, GRAHAM FLETCHER, MARK FREITAG, KURT GLAESEMANN,
     DAN KEMP, GRANT MERRILL, NORIYUKI MINEZAWA, JONATHAN MULLIN,
     TAKESHI NAGATA, SEAN NEDD, HEATHER NETZLOFF, BOSILJKA NJEGIC, RYAN OLSON,
     MIKE PAK, SPENCER PRUITT, LUKE ROSKOP, JIM SHOEMAKER, LYUDMILA SLIPCHENKO,
     TONY SMITH, SAROM SOK LEANG, JIE SONG, TETSUYA TAKETSUGU, SIMON WEBB,
     PENG XU, SOOHAENG YOO, FEDERICO ZAHARIEV

  ADDITIONAL CODE HAS BEEN PROVIDED BY COLLABORATORS IN OTHER GROUPS:
     IOWA STATE UNIVERSITY:
          JOE IVANIC, AARON WEST, LAIMUTIS BYTAUTAS, KLAUS RUEDENBERG
     UNIVERSITY OF TOKYO: KIMIHIKO HIRAO, TAKAHITO NAKAJIMA,
          TAKAO TSUNEDA, MUNEAKI KAMIYA, SUSUMU YANAGISAWA,
          KIYOSHI YAGI, MAHITO CHIBA, SEIKEN TOKURA, NAOAKI KAWAKAMI
     UNIVERSITY OF AARHUS: FRANK JENSEN
     UNIVERSITY OF IOWA: VISVALDAS KAIRYS, HUI LI
     NATIONAL INST. OF STANDARDS AND TECHNOLOGY: WALT STEVENS, DAVID GARMER
     UNIVERSITY OF PISA: BENEDETTA MENNUCCI, JACOPO TOMASI
     UNIVERSITY OF MEMPHIS: HENRY KURTZ, PRAKASHAN KORAMBATH
     UNIVERSITY OF ALBERTA: TOBY ZENG, MARIUSZ KLOBUKOWSKI
     UNIVERSITY OF NEW ENGLAND: MARK SPACKMAN
     MIE UNIVERSITY: HIROAKI UMEDA
     NAT. INST. OF ADVANCED INDUSTRIAL SCIENCE AND TECHNOLOGY: KAZUO KITAURA
     MICHIGAN STATE UNIVERSITY:
          KAROL KOWALSKI, MARTA WLOCH, JEFFREY GOUR, JESSE LUTZ,
          WEI LI, PIOTR PIECUCH
     UNIVERSITY OF SILESIA: MONIKA MUSIAL, STANISLAW KUCHARSKI
     FACULTES UNIVERSITAIRES NOTRE-DAME DE LA PAIX:
          OLIVIER QUINET, BENOIT CHAMPAGNE
     UNIVERSITY OF CALIFORNIA - SANTA BARBARA: BERNARD KIRTMAN
     INSTITUTE FOR MOLECULAR SCIENCE:
          KAZUYA ISHIMURA, MICHIO KATOUDA, AND SHIGERU NAGASE
     UNIVERSITY OF NOTRE DAME: ANNA POMOGAEVA, DAN CHIPMAN
     KYUSHU UNIVERSITY:
          HARUYUKI NAKANO,
          FENG LONG GU, JACEK KORCHOWIEC, MARCIN MAKOWSKI, AND YURIKO AOKI,
          HIROTOSHI MORI AND EISAKU MIYOSHI
     PENNSYLVANIA STATE UNIVERSITY:
          TZVETELIN IORDANOV, CHET SWALINA, JONATHAN SKONE,
          SHARON HAMMES-SCHIFFER
     WASEDA UNIVERSITY:
          MASATO KOBAYASHI, TOMOKO AKAMA, TSUGUKI TOUMA,
          TAKESHI YOSHIKAWA, YASUHIRO IKABATA, JUNJI SEINO,
          YUYA NAKAJIMA, HIROMI NAKAI
     NANJING UNIVERSITY: SHUHUA LI
     UNIVERSITY OF NEBRASKA:
          PEIFENG SU, DEJUN SI, NANDUN THELLAMUREGE, YALI WANG, HUI LI
     UNIVERSITY OF ZURICH: ROBERTO PEVERATI, KIM BALDRIDGE
     N. COPERNICUS UNIVERSITY AND JACKSON STATE UNIVERSITY:
          MARIA BARYSZ
     UNIVERSITY OF COPENHAGEN: Jimmy Kromann, CASPER STEINMANN
     TOKYO INSTITUTE OF TECHNOLOGY: HIROYA NAKATA
     NAGOYA UNIVERSITY: YOSHIO NISHIMOTO, STEPHAN IRLE
     MOSCOW STATE UNIVERSITY: VLADIMIR MIRONOV

 EXECUTION OF GAMESS BEGUN Wed Aug  9 19:23:26 2017

            ECHO OF THE FIRST FEW INPUT CARDS -
 INPUT CARD>!   B3LYP-D test case from Roberto Peverati...(C6H6)2                           
 INPUT CARD>!                                                                               
 INPUT CARD>!   Version 1 (2004): F.NAL E= -464.0345394668, RMS grad= 0.047725112           
 INPUT CARD>!   Version 2 (2006): F.NAL E= -464.0503737436, RMS grad= 0.047488976           
 INPUT CARD>!   Version 3 (2010): FINAL E= -464.0414730210, RMS grad= 0.047666857           
 INPUT CARD>!                                                                               
 INPUT CARD>!   dispersion correction is added to a base energy of -464.0157445004,         
 INPUT CARD>!       V1= -0.0187949665, V2= -0.0346292432, V3= -0.0257285207                 
 INPUT CARD>!                                                                               
 INPUT CARD>!   This run takes 39 seconds on 2.66 GHz Cloverton (31 Mar 2015)               
 INPUT CARD>!   answers stationary since ab out 2010.                                       
 INPUT CARD>!                                                                               
 INPUT CARD>!               geometry optimization would proceed as follows:                 
 INPUT CARD>!   NSERCH:   0  E= -464.0414730210  GRAD. MAX=  0.1090109  R.M.S.=  0.0476669  
 INPUT CARD>!   NSERCH:   1  E= -464.1268340078  GRAD. MAX=  0.0560527  R.M.S.=  0.0237316  
 INPUT CARD>!   NSERCH:   2  E= -464.1963543614  GRAD. MAX=  0.0199882  R.M.S.=  0.0102458  
 INPUT CARD>!   NSERCH:   3  E= -464.2172229770  GRAD. MAX=  0.0068236  R.M.S.=  0.0031037  
 INPUT CARD>!   NSERCH:   4  E= -464.2205245526  GRAD. MAX=  0.0037186  R.M.S.=  0.0017600  
 INPUT CARD>!   NSERCH:   5  E= -464.2232222221  GRAD. MAX=  0.0034539  R.M.S.=  0.0020983  
 INPUT CARD>!   NSERCH:   6  E= -464.2261386079  GRAD. MAX=  0.0029035  R.M.S.=  0.0016377  
 INPUT CARD>!   NSERCH:   7  E= -464.2285481724  GRAD. MAX=  0.0018396  R.M.S.=  0.0008470  
 INPUT CARD>!   NSERCH:   8  E= -464.2297860840  GRAD. MAX=  0.0007291  R.M.S.=  0.0004745  
 INPUT CARD>!   NSERCH:   9  E= -464.2304786299  GRAD. MAX=  0.0003444  R.M.S.=  0.0001972  
 INPUT CARD>!   NSERCH:  10  E= -464.2307997891  GRAD. MAX=  0.0004617  R.M.S.=  0.0002082  
 INPUT CARD>!   NSERCH:  11  E= -464.2308705317  GRAD. MAX=  0.0002979  R.M.S.=  0.0001371  
 INPUT CARD>!   NSERCH:  12  E= -464.2308836645  GRAD. MAX=  0.0000912  R.M.S.=  0.0000446  
 INPUT CARD>!   NSERCH:  13  E= -464.2308843616  GRAD. MAX=  0.0000157  R.M.S.=  0.0000085  
 INPUT CARD>!   NSERCH:  14  E= -464.2308843673  GRAD. MAX=  0.0000038  R.M.S.=  0.0000021  
 INPUT CARD>!                          to coordinates                                       
 INPUT CARD>!   C  6.0   1.3985952346   0.0000000000   1.9202896632                         
 INPUT CARD>!   H  1.0   2.4914899899   0.0000000000   1.9122856252                         
 INPUT CARD>!                                                                               
 INPUT CARD>!   version 3 gradient answers changed November 2010, from Dima's bug fix.      
 INPUT CARD>!                                                                               
 INPUT CARD> $CONTRL SCFTYP=RHF DFTTYP=B3LYP RUNTYP=gradient ISPHER=1 $END                  
 INPUT CARD> $SYSTEM MWORDS=2 $END                                                          
 INPUT CARD> $DFT    DC=.t. idcver=3 $END                                                   
 INPUT CARD> $BASIS  GBASIS=CCD $END                                                        
 INPUT CARD> $statpt opttol=1d-5 $end                                                       
 INPUT CARD> $DATA                                                                          
 INPUT CARD>benzene sandwich...dispersion test                                              
 INPUT CARD>Dnh 6                                                                           
 INPUT CARD>                                                                                
 INPUT CARD>C           6.0   1.3391541168   0.0000000000   1.5                             
 INPUT CARD>H           1.0   2.3177263406   0.0000000000   1.5                             
 INPUT CARD> $END                                                                           
    2000000 WORDS OF MEMORY AVAILABLE

     BASIS OPTIONS
     -------------
     GBASIS=CCD          IGAUSS=       0      POLAR=NONE    
     NDFUNC=       0     NFFUNC=       0     DIFFSP=       F
     NPFUNC=       0      DIFFS=       F     BASNAM=        


     RUN TITLE
     ---------
 benzene sandwich...dispersion test                                              

 THE POINT GROUP OF THE MOLECULE IS DNH     
 THE ORDER OF THE PRINCIPAL AXIS IS     6

 ATOM      ATOMIC                      COORDINATES (BOHR)
           CHARGE         X                   Y                   Z
 C           6.0     1.2653171680        2.1915936227        2.8345889816
 C           6.0    -1.2653171680        2.1915936227        2.8345889816
 C           6.0    -2.5306343361        0.0000000000        2.8345889816
 C           6.0    -1.2653171680       -2.1915936227        2.8345889816
 C           6.0     1.2653171680       -2.1915936227        2.8345889816
 C           6.0     2.5306343361        0.0000000000       -2.8345889816
 C           6.0     1.2653171680        2.1915936227       -2.8345889816
 C           6.0    -1.2653171680        2.1915936227       -2.8345889816
 C           6.0    -2.5306343361        0.0000000000       -2.8345889816
 C           6.0    -1.2653171680       -2.1915936227       -2.8345889816
 C           6.0     1.2653171680       -2.1915936227       -2.8345889816
 C           6.0     2.5306343361        0.0000000000        2.8345889816
 H           1.0     2.1899338491        3.7930766919        2.8345889816
 H           1.0    -2.1899338491        3.7930766919        2.8345889816
 H           1.0    -4.3798676983        0.0000000000        2.8345889816
 H           1.0    -2.1899338491       -3.7930766919        2.8345889816
 H           1.0     2.1899338491       -3.7930766919        2.8345889816
 H           1.0     4.3798676983        0.0000000000       -2.8345889816
 H           1.0     2.1899338491        3.7930766919       -2.8345889816
 H           1.0    -2.1899338491        3.7930766919       -2.8345889816
 H           1.0    -4.3798676983        0.0000000000       -2.8345889816
 H           1.0    -2.1899338491       -3.7930766919       -2.8345889816
 H           1.0     2.1899338491       -3.7930766919       -2.8345889816
 H           1.0     4.3798676983        0.0000000000        2.8345889816

          INTERNUCLEAR DISTANCES (ANGS.)
          ------------------------------

                1 C          2 C          3 C          4 C          5 C     

   1 C       0.0000000    1.3391541 *  2.3194830 *  2.6783082 *  2.3194830 *
   2 C       1.3391541 *  0.0000000    1.3391541 *  2.3194830 *  2.6783082 *
   3 C       2.3194830 *  1.3391541 *  0.0000000    1.3391541 *  2.3194830 *
   4 C       2.6783082 *  2.3194830 *  1.3391541 *  0.0000000    1.3391541 *
   5 C       2.3194830 *  2.6783082 *  2.3194830 *  1.3391541 *  0.0000000  
   6 C       3.2853210    3.7920972    4.0216085    3.7920972    3.2853210  
   7 C       3.0000000 *  3.2853210    3.7920972    4.0216085    3.7920972  
   8 C       3.2853210    3.0000000 *  3.2853210    3.7920972    4.0216085  
   9 C       3.7920972    3.2853210    3.0000000 *  3.2853210    3.7920972  
  10 C       4.0216085    3.7920972    3.2853210    3.0000000 *  3.2853210  
  11 C       3.7920972    4.0216085    3.7920972    3.2853210    3.0000000 *
  12 C       1.3391541 *  2.3194830 *  2.6783082 *  2.3194830 *  1.3391541 *
  13 H       0.9785722 *  2.0152906 *  3.2045252    3.6568805    3.2045252  
  14 H       2.0152906 *  0.9785722 *  2.0152906 *  3.2045252    3.6568805  
  15 H       3.2045252    2.0152906 *  0.9785722 *  2.0152906 *  3.2045252  
  16 H       3.6568805    3.2045252    2.0152906 *  0.9785722 *  2.0152906 *
  17 H       3.2045252    3.6568805    3.2045252    2.0152906 *  0.9785722 *
  18 H       3.6140554    4.3896448    4.7299868    4.3896448    3.6140554  
  19 H       3.1555671    3.6140554    4.3896448    4.7299868    4.3896448  
  20 H       3.6140554    3.1555671    3.6140554    4.3896448    4.7299868  
  21 H       4.3896448    3.6140554    3.1555671    3.6140554    4.3896448  
  22 H       4.7299868    4.3896448    3.6140554    3.1555671    3.6140554  
  23 H       4.3896448    4.7299868    4.3896448    3.6140554    3.1555671  
  24 H       2.0152906 *  3.2045252    3.6568805    3.2045252    2.0152906 *

                6 C          7 C          8 C          9 C         10 C     

   1 C       3.2853210    3.0000000 *  3.2853210    3.7920972    4.0216085  
   2 C       3.7920972    3.2853210    3.0000000 *  3.2853210    3.7920972  
   3 C       4.0216085    3.7920972    3.2853210    3.0000000 *  3.2853210  
   4 C       3.7920972    4.0216085    3.7920972    3.2853210    3.0000000 *
   5 C       3.2853210    3.7920972    4.0216085    3.7920972    3.2853210  
   6 C       0.0000000    1.3391541 *  2.3194830 *  2.6783082 *  2.3194830 *
   7 C       1.3391541 *  0.0000000    1.3391541 *  2.3194830 *  2.6783082 *
   8 C       2.3194830 *  1.3391541 *  0.0000000    1.3391541 *  2.3194830 *
   9 C       2.6783082 *  2.3194830 *  1.3391541 *  0.0000000    1.3391541 *
  10 C       2.3194830 *  2.6783082 *  2.3194830 *  1.3391541 *  0.0000000  
  11 C       1.3391541 *  2.3194830 *  2.6783082 *  2.3194830 *  1.3391541 *
  12 C       3.0000000 *  3.2853210    3.7920972    4.0216085    3.7920972  
  13 H       3.6140554    3.1555671    3.6140554    4.3896448    4.7299868  
  14 H       4.3896448    3.6140554    3.1555671    3.6140554    4.3896448  
  15 H       4.7299868    4.3896448    3.6140554    3.1555671    3.6140554  
  16 H       4.3896448    4.7299868    4.3896448    3.6140554    3.1555671  
  17 H       3.6140554    4.3896448    4.7299868    4.3896448    3.6140554  
  18 H       0.9785722 *  2.0152906 *  3.2045252    3.6568805    3.2045252  
  19 H       2.0152906 *  0.9785722 *  2.0152906 *  3.2045252    3.6568805  
  20 H       3.2045252    2.0152906 *  0.9785722 *  2.0152906 *  3.2045252  
  21 H       3.6568805    3.2045252    2.0152906 *  0.9785722 *  2.0152906 *
  22 H       3.2045252    3.6568805    3.2045252    2.0152906 *  0.9785722 *
  23 H       2.0152906 *  3.2045252    3.6568805    3.2045252    2.0152906 *
  24 H       3.1555671    3.6140554    4.3896448    4.7299868    4.3896448  

               11 C         12 C         13 H         14 H         15 H     

   1 C       3.7920972    1.3391541 *  0.9785722 *  2.0152906 *  3.2045252  
   2 C       4.0216085    2.3194830 *  2.0152906 *  0.9785722 *  2.0152906 *
   3 C       3.7920972    2.6783082 *  3.2045252    2.0152906 *  0.9785722 *
   4 C       3.2853210    2.3194830 *  3.6568805    3.2045252    2.0152906 *
   5 C       3.0000000 *  1.3391541 *  3.2045252    3.6568805    3.2045252  
   6 C       1.3391541 *  3.0000000 *  3.6140554    4.3896448    4.7299868  
   7 C       2.3194830 *  3.2853210    3.1555671    3.6140554    4.3896448  
   8 C       2.6783082 *  3.7920972    3.6140554    3.1555671    3.6140554  
   9 C       2.3194830 *  4.0216085    4.3896448    3.6140554    3.1555671  
  10 C       1.3391541 *  3.7920972    4.7299868    4.3896448    3.6140554  
  11 C       0.0000000    3.2853210    4.3896448    4.7299868    4.3896448  
  12 C       3.2853210    0.0000000    2.0152906 *  3.2045252    3.6568805  
  13 H       4.3896448    2.0152906 *  0.0000000    2.3177263 *  4.0144198  
  14 H       4.7299868    3.2045252    2.3177263 *  0.0000000    2.3177263 *
  15 H       4.3896448    3.6568805    4.0144198    2.3177263 *  0.0000000  
  16 H       3.6140554    3.2045252    4.6354527    4.0144198    2.3177263 *
  17 H       3.1555671    2.0152906 *  4.0144198    4.6354527    4.0144198  
  18 H       2.0152906 *  3.1555671    3.7910230    5.0115433    5.5215416  
  19 H       3.2045252    3.6140554    3.0000000 *  3.7910230    5.0115433  
  20 H       3.6568805    4.3896448    3.7910230    3.0000000 *  3.7910230  
  21 H       3.2045252    4.7299868    5.0115433    3.7910230    3.0000000 *
  22 H       2.0152906 *  4.3896448    5.5215416    5.0115433    3.7910230  
  23 H       0.9785722 *  3.6140554    5.0115433    5.5215416    5.0115433  
  24 H       3.6140554    0.9785722 *  2.3177263 *  4.0144198    4.6354527  

               16 H         17 H         18 H         19 H         20 H     

   1 C       3.6568805    3.2045252    3.6140554    3.1555671    3.6140554  
   2 C       3.2045252    3.6568805    4.3896448    3.6140554    3.1555671  
   3 C       2.0152906 *  3.2045252    4.7299868    4.3896448    3.6140554  
   4 C       0.9785722 *  2.0152906 *  4.3896448    4.7299868    4.3896448  
   5 C       2.0152906 *  0.9785722 *  3.6140554    4.3896448    4.7299868  
   6 C       4.3896448    3.6140554    0.9785722 *  2.0152906 *  3.2045252  
   7 C       4.7299868    4.3896448    2.0152906 *  0.9785722 *  2.0152906 *
   8 C       4.3896448    4.7299868    3.2045252    2.0152906 *  0.9785722 *
   9 C       3.6140554    4.3896448    3.6568805    3.2045252    2.0152906 *
  10 C       3.1555671    3.6140554    3.2045252    3.6568805    3.2045252  
  11 C       3.6140554    3.1555671    2.0152906 *  3.2045252    3.6568805  
  12 C       3.2045252    2.0152906 *  3.1555671    3.6140554    4.3896448  
  13 H       4.6354527    4.0144198    3.7910230    3.0000000 *  3.7910230  
  14 H       4.0144198    4.6354527    5.0115433    3.7910230    3.0000000 *
  15 H       2.3177263 *  4.0144198    5.5215416    5.0115433    3.7910230  
  16 H       0.0000000    2.3177263 *  5.0115433    5.5215416    5.0115433  
  17 H       2.3177263 *  0.0000000    3.7910230    5.0115433    5.5215416  
  18 H       5.0115433    3.7910230    0.0000000    2.3177263 *  4.0144198  
  19 H       5.5215416    5.0115433    2.3177263 *  0.0000000    2.3177263 *
  20 H       5.0115433    5.5215416    4.0144198    2.3177263 *  0.0000000  
  21 H       3.7910230    5.0115433    4.6354527    4.0144198    2.3177263 *
  22 H       3.0000000 *  3.7910230    4.0144198    4.6354527    4.0144198  
  23 H       3.7910230    3.0000000 *  2.3177263 *  4.0144198    4.6354527  
  24 H       4.0144198    2.3177263 *  3.0000000 *  3.7910230    5.0115433  

               21 H         22 H         23 H         24 H     

   1 C       4.3896448    4.7299868    4.3896448    2.0152906 *
   2 C       3.6140554    4.3896448    4.7299868    3.2045252  
   3 C       3.1555671    3.6140554    4.3896448    3.6568805  
   4 C       3.6140554    3.1555671    3.6140554    3.2045252  
   5 C       4.3896448    3.6140554    3.1555671    2.0152906 *
   6 C       3.6568805    3.2045252    2.0152906 *  3.1555671  
   7 C       3.2045252    3.6568805    3.2045252    3.6140554  
   8 C       2.0152906 *  3.2045252    3.6568805    4.3896448  
   9 C       0.9785722 *  2.0152906 *  3.2045252    4.7299868  
  10 C       2.0152906 *  0.9785722 *  2.0152906 *  4.3896448  
  11 C       3.2045252    2.0152906 *  0.9785722 *  3.6140554  
  12 C       4.7299868    4.3896448    3.6140554    0.9785722 *
  13 H       5.0115433    5.5215416    5.0115433    2.3177263 *
  14 H       3.7910230    5.0115433    5.5215416    4.0144198  
  15 H       3.0000000 *  3.7910230    5.0115433    4.6354527  
  16 H       3.7910230    3.0000000 *  3.7910230    4.0144198  
  17 H       5.0115433    3.7910230    3.0000000 *  2.3177263 *
  18 H       4.6354527    4.0144198    2.3177263 *  3.0000000 *
  19 H       4.0144198    4.6354527    4.0144198    3.7910230  
  20 H       2.3177263 *  4.0144198    4.6354527    5.0115433  
  21 H       0.0000000    2.3177263 *  4.0144198    5.5215416  
  22 H       2.3177263 *  0.0000000    2.3177263 *  5.0115433  
  23 H       4.0144198    2.3177263 *  0.0000000    3.7910230  
  24 H       5.5215416    5.0115433    3.7910230    0.0000000  

  * ... LESS THAN  3.000


     ATOMIC BASIS SET
     ----------------
 THE CONTRACTED PRIMITIVE FUNCTIONS HAVE BEEN UNNORMALIZED
 THE CONTRACTED BASIS FUNCTIONS ARE NOW NORMALIZED TO UNITY

  SHELL TYPE  PRIMITIVE        EXPONENT          CONTRACTION COEFFICIENT(S)

 C         

     67   S       1          6665.0000000    0.000691583963
     67   S       2          1000.0000000    0.005325796153
     67   S       3           228.0000000    0.027060721042
     67   S       4            64.7100000    0.101656846141
     67   S       5            21.0600000    0.274574823617
     67   S       6             7.4950000    0.448294318924
     67   S       7             2.7970000    0.284902610715
     67   S       8             0.5215000    0.015194859206

     68   S       9          6665.0000000   -0.000293269653
     68   S      10          1000.0000000   -0.002318035474
     68   S      11           228.0000000   -0.011499786039
     68   S      12            64.7100000   -0.046826727010
     68   S      13            21.0600000   -0.128466168750
     68   S      14             7.4950000   -0.301266272463
     68   S      15             2.7970000   -0.255630702330
     68   S      16             0.5215000    1.093793361012

     69   S      17             0.1596000    1.000000000000

     70   P      18             9.4390000    0.056979251590
     70   P      19             2.0020000    0.313207211501
     70   P      20             0.5456000    0.760376741738

     71   P      21             0.1517000    1.000000000000

     72   D      22             0.5500000    1.000000000000

 H         

    106   S      23            13.0100000    0.033498726390
    106   S      24             1.9620000    0.234800801174
    106   S      25             0.4446000    0.813682957883

    107   S      26             0.1220000    1.000000000000

    108   P      27             0.7270000    1.000000000000

 TOTAL NUMBER OF BASIS SET SHELLS             =  108
 NUMBER OF CARTESIAN GAUSSIAN BASIS FUNCTIONS =  240
 NOTE: THIS RUN WILL RESTRICT THE MO VARIATION SPACE TO SPHERICAL HARMONICS.
 THE NUMBER OF ORBITALS KEPT IN THE VARIATIONAL SPACE WILL BE PRINTED LATER.
 NUMBER OF ELECTRONS                          =   84
 CHARGE OF MOLECULE                           =    0
 SPIN MULTIPLICITY                            =    1
 NUMBER OF OCCUPIED ORBITALS (ALPHA)          =   42
 NUMBER OF OCCUPIED ORBITALS (BETA )          =   42
 TOTAL NUMBER OF ATOMS                        =   24
 THE NUCLEAR REPULSION ENERGY IS      687.4351220591

     LEBEDEV GRID-BASED DFT OPTIONS
     ------------------------------
     DFTTYP=B3LYP   
     NRAD  =      96     NLEB  =     302
     NRAD0 =      24     NLEB0 =     110
     SWOFF =    5.00E-03 (PURE SCF -> DFT)
     SWITCH=    3.00E-04 (COARSE -> TIGHT GRID)
     THRESH=    0.00E+00 GTHRE=    1.00E+00

 GRIMME'S EMPIRICAL DISPERSION CORRECTION= T
  ________________________________

           DFTD3 V1.2             
   S.GRIMME, UNIVERSITY MUENSTER  
   WED MAR 10 08:38:00 CET 2010   
  ________________________________

 PLEASE CITE DFT-D3 WORK DONE WITH THIS CODE AS:
 S. GRIMME, J. ANTONY, S. EHRLICH AND H. KRIEG,
 J. CHEM. PHYS, 132 (2010), 154104.
 IF USED WITH BJ-DAMPING CITE ALSO
 S. GRIMME, S. EHRLICH AND L. GOERIGK,
 J. COMPUT. CHEM. 32 (2011), 1456-1465

 DFT-D3 PARAMETERS WILL BE LOADED AND PRINTED
 BEFORE THE RESULTS

 IMPLEMENTATION OF DFT-D IN GAMESS BY:
 R.PEVERATI AND K.K.BALDRIDGE, 
 J.CHEM.THEORY COMPUT. 4,(2008), 2030-2048


     $CONTRL OPTIONS
     ---------------
 SCFTYP=RHF          RUNTYP=GRADIENT     EXETYP=RUN     
 MPLEVL=       0     CITYP =NONE         CCTYP =NONE         VBTYP =NONE    
 DFTTYP=B3LYP        TDDFT =NONE    
 MULT  =       1     ICHARG=       0     NZVAR =       0     COORD =UNIQUE  
 PP    =NONE         RELWFN=NONE         LOCAL =NONE         NUMGRD=       F
 ISPHER=       1     NOSYM =       0     MAXIT =      30     UNITS =ANGS    
 PLTORB=       F     MOLPLT=       F     AIMPAC=       F     FRIEND=        
 NPRINT=       7     IREST =       0     GEOM  =INPUT   
 NORMF =       0     NORMP =       0     ITOL  =      20     ICUT  =       9
 INTTYP=BEST         GRDTYP=BEST         QMTTOL= 1.0E-06

     $SYSTEM OPTIONS
     ---------------
  REPLICATED MEMORY=     2000000 WORDS (ON EVERY NODE).
 DISTRIBUTED MEMDDI=           0 MILLION WORDS IN AGGREGATE,
 MEMDDI DISTRIBUTED OVER   1 PROCESSORS IS           0 WORDS/PROCESSOR.
 TOTAL MEMORY REQUESTED ON EACH PROCESSOR=     2000000 WORDS.
 TIMLIM=      525600.00 MINUTES, OR     365.0 DAYS.
 PARALL= F  BALTYP=  DLB     KDIAG=    0  COREFL= F
 MXSEQ2=     300 MXSEQ3=     150  mem10=         0

          ----------------
          PROPERTIES INPUT
          ----------------

     MOMENTS            FIELD           POTENTIAL          DENSITY
 IEMOM =       1   IEFLD =       0   IEPOT =       0   IEDEN =       0
 WHERE =COMASS     WHERE =NUCLEI     WHERE =NUCLEI     WHERE =NUCLEI  
 OUTPUT=BOTH       OUTPUT=BOTH       OUTPUT=BOTH       OUTPUT=BOTH    
 IEMINT=       0   IEFINT=       0                     IEDINT=       0
                                                       MORB  =       0
          EXTRAPOLATION IN EFFECT
          DIIS IN EFFECT
 ORBITAL PRINTING OPTION: NPREO=     1   240     2     1

     -------------------------------
     INTEGRAL TRANSFORMATION OPTIONS
     -------------------------------
     NWORD  =            0
     CUTOFF = 1.0E-09     MPTRAN =       0
     DIRTRF =       F     AOINTS =DUP     

          ----------------------
          INTEGRAL INPUT OPTIONS
          ----------------------
 NOPK  =       1 NORDER=       0 SCHWRZ=       T

     ------------------------------------------
     THE POINT GROUP IS DNH, NAXIS= 6, ORDER=24
     ------------------------------------------

 -- VARIATIONAL SPACE WILL BE RESTRICTED TO PURE SPHERICAL HARMONICS ONLY --
 AFTER EXCLUDING CONTAMINANT COMBINATIONS FROM THE CARTESIAN GAUSSIAN BASIS
 SET, THE NUMBER OF SPHERICAL HARMONICS KEPT IN THE VARIATION SPACE IS  228

     DIMENSIONS OF THE SYMMETRY SUBSPACES ARE
 A1G =   14     A1U =    5     B1U =   14     B1G =    5     A2G =    5
 A2U =   14     B2U =    5     B2G =   14     E1G =   19     E1U =   19
 E2U =   19     E2G =   19

 ..... DONE SETTING UP THE RUN .....
 STEP CPU TIME =     0.03 TOTAL CPU TIME =        0.0 (    0.0 MIN)
 TOTAL WALL CLOCK TIME=        0.0 SECONDS, CPU UTILIZATION IS  75.00%

                    --------------------------------
                    SINGLE POINT ENERGY AND GRADIENT
                    --------------------------------

          ********************
          1 ELECTRON INTEGRALS
          ********************
 ...... END OF ONE-ELECTRON INTEGRALS ......
 STEP CPU TIME =     0.07 TOTAL CPU TIME =        0.1 (    0.0 MIN)
 TOTAL WALL CLOCK TIME=        0.1 SECONDS, CPU UTILIZATION IS 100.00%

          -------------
          GUESS OPTIONS
          -------------
          GUESS =HUCKEL            NORB  =       0          NORDER=       0
          MIX   =       F          PRTMO =       F          PUNMO =       F
          TOLZ  = 1.0E-08          TOLE  = 1.0E-05
          SYMDEN=       F          PURIFY=       F

 INITIAL GUESS ORBITALS GENERATED BY HUCKEL   ROUTINE.
 HUCKEL GUESS REQUIRES    455448 WORDS.

 STATISTICS FOR GENERATION OF SYMMETRY ORBITAL -Q- MATRIX
 NUMBER OF CARTESIAN ATOMIC ORBITALS=        240
 NUMBER OF SPHERICAL CONTAMINANTS DROPPED=    12
 NUMBER OF LINEARLY DEPENDENT MOS DROPPED=     0
 TOTAL NUMBER OF MOS IN VARIATION SPACE=     228

 SYMMETRIES FOR INITIAL GUESS ORBITALS FOLLOW.   BOTH SET(S).
    42 ORBITALS ARE OCCUPIED (   12 CORE ORBITALS).
    13=?A1G    14=?A2U    15=?E1U    16=?E1U    17=?E1G    18=?E1G    19=?E2G
    20=?E2G    21=?E2U    22=?E2U    23=?A1G    24=?A2U    25=?A1G    26=?B1U
    27=?B2G    28=?A2U    29=?B2U    30=?E1U    31=?E1U    32=?B1G    33=?E1G
    34=?E1G    35=?E1U    36=?E1U    37=?E1G    38=?E1G    39=?E2G    40=?E2G
    41=?E2U    42=?E2U    43=?E2G    44=?E2G    45=?E2U    46=?E2U    47=?B1U
    48=?A1G    49=?A1G    50=?A1G    51=?A1G    52=?A1G
 ...... END OF INITIAL ORBITAL SELECTION ......
 STEP CPU TIME =     0.13 TOTAL CPU TIME =        0.2 (    0.0 MIN)
 TOTAL WALL CLOCK TIME=        0.2 SECONDS, CPU UTILIZATION IS  95.83%

                    ----------------------
                    AO INTEGRAL TECHNOLOGY
                    ----------------------
     S,P,L SHELL ROTATED AXIS INTEGRALS, REPROGRAMMED BY
        KAZUYA ISHIMURA (IMS) AND JOSE SIERRA (SYNSTAR).
     S,P,D,L SHELL ROTATED AXIS INTEGRALS PROGRAMMED BY
        KAZUYA ISHIMURA (INSTITUTE FOR MOLECULAR SCIENCE).
     S,P,D,F,G SHELL TO TOTAL QUARTET ANGULAR MOMENTUM SUM 5,
        ERIC PROGRAM BY GRAHAM FLETCHER (ELORET AND NASA ADVANCED
        SUPERCOMPUTING DIVISION, AMES RESEARCH CENTER).
     S,P,D,F,G,L SHELL GENERAL RYS QUADRATURE PROGRAMMED BY
        MICHEL DUPUIS (PACIFIC NORTHWEST NATIONAL LABORATORY).

          --------------------
          2 ELECTRON INTEGRALS
          --------------------

 THE -PK- OPTION IS OFF, THE INTEGRALS ARE NOT IN SUPERMATRIX FORM.
 STORING   15000 INTEGRALS/RECORD ON DISK, USING 12 BYTES/INTEGRAL.
 TWO ELECTRON INTEGRAL EVALUATION REQUIRES   96282 WORDS OF MEMORY.
 SCHWARZ INEQUALITY OVERHEAD:     28866 INTEGRALS, T=        0.02
 II,JST,KST,LST =  1  1  1  1 NREC =         1 INTLOC =    1
 II,JST,KST,LST =  2  1  1  1 NREC =         1 INTLOC =    1
 II,JST,KST,LST =  3  1  1  1 NREC =         1 INTLOC =    1
 II,JST,KST,LST =  4  1  1  1 NREC =         1 INTLOC =    1
 II,JST,KST,LST =  5  1  1  1 NREC =         1 INTLOC =    1
 II,JST,KST,LST =  6  1  1  1 NREC =         1 INTLOC =    1
 II,JST,KST,LST =  7  1  1  1 NREC =         1 INTLOC =    1
 II,JST,KST,LST =  8  1  1  1 NREC =         1 INTLOC =    1
 II,JST,KST,LST =  9  1  1  1 NREC =         1 INTLOC =    1
 II,JST,KST,LST = 10  1  1  1 NREC =         1 INTLOC =    1
 II,JST,KST,LST = 11  1  1  1 NREC =         1 INTLOC =    1
 II,JST,KST,LST = 12  1  1  1 NREC =         1 INTLOC =    1
 II,JST,KST,LST = 13  1  1  1 NREC =         1 INTLOC =    1
 II,JST,KST,LST = 14  1  1  1 NREC =         1 INTLOC =    1
 II,JST,KST,LST = 15  1  1  1 NREC =         1 INTLOC =    1
 II,JST,KST,LST = 16  1  1  1 NREC =         1 INTLOC =    1
 II,JST,KST,LST = 17  1  1  1 NREC =         1 INTLOC =    1
 II,JST,KST,LST = 18  1  1  1 NREC =         1 INTLOC =    1
 II,JST,KST,LST = 19  1  1  1 NREC =         1 INTLOC =    1
 II,JST,KST,LST = 20  1  1  1 NREC =         1 INTLOC =    1
 II,JST,KST,LST = 21  1  1  1 NREC =         1 INTLOC =    1
 II,JST,KST,LST = 22  1  1  1 NREC =         1 INTLOC =    1
 II,JST,KST,LST = 23  1  1  1 NREC =         1 INTLOC =    1
 II,JST,KST,LST = 24  1  1  1 NREC =         1 INTLOC =    1
 II,JST,KST,LST = 25  1  1  1 NREC =         1 INTLOC =    1
 II,JST,KST,LST = 26  1  1  1 NREC =         1 INTLOC =    1
 II,JST,KST,LST = 27  1  1  1 NREC =         1 INTLOC =    1
 II,JST,KST,LST = 28  1  1  1 NREC =         1 INTLOC =    1
 II,JST,KST,LST = 29  1  1  1 NREC =         1 INTLOC =    1
 II,JST,KST,LST = 30  1  1  1 NREC =         1 INTLOC =    1
 II,JST,KST,LST = 31  1  1  1 NREC =         1 INTLOC =    1
 II,JST,KST,LST = 32  1  1  1 NREC =         1 INTLOC =    1
 II,JST,KST,LST = 33  1  1  1 NREC =         1 INTLOC =    1
 II,JST,KST,LST = 34  1  1  1 NREC =         1 INTLOC =    1
 II,JST,KST,LST = 35  1  1  1 NREC =         1 INTLOC =    1
 II,JST,KST,LST = 36  1  1  1 NREC =         1 INTLOC =    1
 II,JST,KST,LST = 37  1  1  1 NREC =         1 INTLOC =    1
 II,JST,KST,LST = 38  1  1  1 NREC =         1 INTLOC =    1
 II,JST,KST,LST = 39  1  1  1 NREC =         1 INTLOC =    1
 II,JST,KST,LST = 40  1  1  1 NREC =         1 INTLOC =    1
 II,JST,KST,LST = 41  1  1  1 NREC =         1 INTLOC =    1
 II,JST,KST,LST = 42  1  1  1 NREC =         1 INTLOC =    1
 II,JST,KST,LST = 43  1  1  1 NREC =         1 INTLOC =    1
 II,JST,KST,LST = 44  1  1  1 NREC =         1 INTLOC =    1
 II,JST,KST,LST = 45  1  1  1 NREC =         1 INTLOC =    1
 II,JST,KST,LST = 46  1  1  1 NREC =         1 INTLOC =    1
 II,JST,KST,LST = 47  1  1  1 NREC =         1 INTLOC =    1
 II,JST,KST,LST = 48  1  1  1 NREC =         1 INTLOC =    1
 II,JST,KST,LST = 49  1  1  1 NREC =         1 INTLOC =    1
 II,JST,KST,LST = 50  1  1  1 NREC =         1 INTLOC =    1
 II,JST,KST,LST = 51  1  1  1 NREC =         1 INTLOC =    1
 II,JST,KST,LST = 52  1  1  1 NREC =         1 INTLOC =    1
 II,JST,KST,LST = 53  1  1  1 NREC =         1 INTLOC =    1
 II,JST,KST,LST = 54  1  1  1 NREC =         1 INTLOC =    1
 II,JST,KST,LST = 55  1  1  1 NREC =         1 INTLOC =    1
 II,JST,KST,LST = 56  1  1  1 NREC =         1 INTLOC =    1
 II,JST,KST,LST = 57  1  1  1 NREC =         1 INTLOC =    1
 II,JST,KST,LST = 58  1  1  1 NREC =         1 INTLOC =    1
 II,JST,KST,LST = 59  1  1  1 NREC =         1 INTLOC =    1
 II,JST,KST,LST = 60  1  1  1 NREC =         1 INTLOC =    1
 II,JST,KST,LST = 61  1  1  1 NREC =         1 INTLOC =    1
 II,JST,KST,LST = 62  1  1  1 NREC =         1 INTLOC =    1
 II,JST,KST,LST = 63  1  1  1 NREC =         1 INTLOC =    1
 II,JST,KST,LST = 64  1  1  1 NREC =         1 INTLOC =    1
 II,JST,KST,LST = 65  1  1  1 NREC =         1 INTLOC =    1
 II,JST,KST,LST = 66  1  1  1 NREC =         1 INTLOC =    1
 II,JST,KST,LST = 67  1  1  1 NREC =         1 INTLOC =    1
 II,JST,KST,LST = 68  1  1  1 NREC =         1 INTLOC =   59
 II,JST,KST,LST = 69  1  1  1 NREC =         1 INTLOC = 1191
 II,JST,KST,LST = 70  1  1  1 NREC =         1 INTLOC = 8400
 II,JST,KST,LST = 71  1  1  1 NREC =         8 INTLOC =10397
 II,JST,KST,LST = 72  1  1  1 NREC =        44 INTLOC = 9787
 II,JST,KST,LST = 73  1  1  1 NREC =       331 INTLOC = 7579
 II,JST,KST,LST = 74  1  1  1 NREC =       331 INTLOC = 7579
 II,JST,KST,LST = 75  1  1  1 NREC =       331 INTLOC = 7579
 II,JST,KST,LST = 76  1  1  1 NREC =       331 INTLOC = 7579
 II,JST,KST,LST = 77  1  1  1 NREC =       331 INTLOC = 7579
 II,JST,KST,LST = 78  1  1  1 NREC =       331 INTLOC = 7579
 II,JST,KST,LST = 79  1  1  1 NREC =       331 INTLOC = 7579
 II,JST,KST,LST = 80  1  1  1 NREC =       331 INTLOC = 7579
 II,JST,KST,LST = 81  1  1  1 NREC =       331 INTLOC = 7579
 II,JST,KST,LST = 82  1  1  1 NREC =       331 INTLOC = 7579
 II,JST,KST,LST = 83  1  1  1 NREC =       331 INTLOC = 7579
 II,JST,KST,LST = 84  1  1  1 NREC =       331 INTLOC = 7579
 II,JST,KST,LST = 85  1  1  1 NREC =       331 INTLOC = 7579
 II,JST,KST,LST = 86  1  1  1 NREC =       331 INTLOC = 7579
 II,JST,KST,LST = 87  1  1  1 NREC =       331 INTLOC = 7579
 II,JST,KST,LST = 88  1  1  1 NREC =       331 INTLOC = 7579
 II,JST,KST,LST = 89  1  1  1 NREC =       331 INTLOC = 7579
 II,JST,KST,LST = 90  1  1  1 NREC =       331 INTLOC = 7579
 II,JST,KST,LST = 91  1  1  1 NREC =       331 INTLOC = 7579
 II,JST,KST,LST = 92  1  1  1 NREC =       331 INTLOC = 7579
 II,JST,KST,LST = 93  1  1  1 NREC =       331 INTLOC = 7579
 II,JST,KST,LST = 94  1  1  1 NREC =       331 INTLOC = 7579
 II,JST,KST,LST = 95  1  1  1 NREC =       331 INTLOC = 7579
 II,JST,KST,LST = 96  1  1  1 NREC =       331 INTLOC = 7579
 II,JST,KST,LST = 97  1  1  1 NREC =       331 INTLOC = 7579
 II,JST,KST,LST = 98  1  1  1 NREC =       331 INTLOC = 7579
 II,JST,KST,LST = 99  1  1  1 NREC =       331 INTLOC = 7579
 II,JST,KST,LST =100  1  1  1 NREC =       331 INTLOC = 7579
 II,JST,KST,LST =101  1  1  1 NREC =       331 INTLOC = 7579
 II,JST,KST,LST =102  1  1  1 NREC =       331 INTLOC = 7579
 II,JST,KST,LST =103  1  1  1 NREC =       331 INTLOC = 7579
 II,JST,KST,LST =104  1  1  1 NREC =       331 INTLOC = 7579
 II,JST,KST,LST =105  1  1  1 NREC =       331 INTLOC = 7579
 II,JST,KST,LST =106  1  1  1 NREC =       331 INTLOC = 7579
 II,JST,KST,LST =107  1  1  1 NREC =       416 INTLOC = 3825
 II,JST,KST,LST =108  1  1  1 NREC =       537 INTLOC =12800
 SCHWARZ INEQUALITY TEST SKIPPED       89697 INTEGRAL BLOCKS.
 TOTAL NUMBER OF NONZERO TWO-ELECTRON INTEGRALS =            13332318
        889 INTEGRAL RECORDS WERE STORED ON DISK FILE  8.
  ...... END OF TWO-ELECTRON INTEGRALS .....
 STEP CPU TIME =     1.63 TOTAL CPU TIME =        1.9 (    0.0 MIN)
 TOTAL WALL CLOCK TIME=        1.9 SECONDS, CPU UTILIZATION IS  98.94%

          --------------------------
             R-B3LYP SCF CALCULATION
          --------------------------

     NUCLEAR ENERGY =       687.4351220591
     MAXIT =   30     NPUNCH=    2
     EXTRAP=T  DAMP=F  SHIFT=F  RSTRCT=F  DIIS=T  DEM=F  SOSCF=F
         DENSITY MATRIX CONVERGENCE THRESHOLD=  1.00E-05
     COARSE -> FINE DFT GRID SWITCH THRESHOLD=  3.00E-04 (SWITCH IN $DFT)
                   HF -> DFT SWITCH THRESHOLD=  5.00E-03 (SWOFF IN $DFT)
     MEMORY REQUIRED FOR RHF ITERS=   1240764 WORDS.

 DFT CODE IS SWITCHING FROM THE FINE GRID NRAD= 96,  NLEB=  302
                      TO THE COARSE GRID NRAD0= 24, NLEB0=  110

     EXCHANGE FUNCTIONAL   =B88&HFX   
     CORRELATION FUNCTIONAL=LYP88&VWN5
     DFT THRESHOLD         =.575E-08
     GRID CHANGE THRESHOLD =.300E-03
 FOR AN EULER-MACLAURIN QUADRATURE USING  96 RADIAL POINTS:
 SMALLEST GAUSSIAN PRIMITIVE EXPONENT=        0.1220000000 OF TYPE -S-
 ON ATOM NUMBER  13 HAS RADIAL NORMALIZATION=  1.000000
  LARGEST GAUSSIAN PRIMITIVE EXPONENT=     6665.0000000000 OF TYPE -S-
 ON ATOM NUMBER   1 HAS RADIAL NORMALIZATION=  1.000000
 DFT IS SWITCHED OFF, PERFORMING PURE SCF UNTIL SWOFF THRESHOLD IS REACHED.

 ITER EX DEM     TOTAL ENERGY        E CHANGE  DENSITY CHANGE    DIIS ERROR
   1  0  0     -460.1721110282  -460.1721110282   0.248722910   0.567544068
          * * *   INITIATING DIIS PROCEDURE   * * *
   2  1  0     -461.1849750379    -1.0128640098   0.055963702   0.098821994
   3  2  0     -461.2454595135    -0.0604844755   0.012995098   0.053654958
   4  3  0     -461.2579517984    -0.0124922849   0.006117442   0.010135926
   5  4  0     -461.2587789946    -0.0008271962   0.000682262   0.001377240
 CONVERGED TO SWOFF, SO DFT CALCULATION IS NOW SWITCHED ON.
          * * *   INITIATING DIIS PROCEDURE   * * *
   6  5  0     -463.9827697532    -2.7239907586   0.084170879   0.099349682
   7  6  0     -464.0233039455    -0.0405341923   0.018398461   0.018960308
   8  7  0     -464.0238059592    -0.0005020137   0.007908428   0.018054075
   9  8  0     -464.0266874677    -0.0028815085   0.000501640   0.001684687
  10  9  0     -464.0267118524    -0.0000243847   0.000076246   0.000199363
 DFT CODE IS SWITCHING BACK TO THE FINE GRID
          * * *   INITIATING DIIS PROCEDURE   * * *
  11 10  0     -464.0156679123     0.0110439402   0.002510805   0.003085184
  12 11  0     -464.0157425351    -0.0000746228   0.000218465   0.000613803
  13 12  0     -464.0157428326    -0.0000002975   0.000122270   0.000467444
  14 13  0     -464.0157444895    -0.0000016570   0.000012635   0.000037879
  15 14  0     -464.0157444993    -0.0000000097   0.000005510   0.000011682
  16 15  0     -464.0157445004    -0.0000000011   0.000000632   0.000001272

          -----------------
          DENSITY CONVERGED
          -----------------
     TIME TO FORM FOCK OPERATORS=      13.9 SECONDS (       0.9 SEC/ITER)
     TIME TO SOLVE SCF EQUATIONS=       1.1 SECONDS (       0.1 SEC/ITER)

          ----------------------------
          DFT-D PARAMETERS AND RESULTS
          ----------------------------
 C6 COEFFICIENTS USED:
       2 C6 FOR ELEMENT   1
  Z=  1 CN= 0.912     C6(AA)=    3.03
  Z=  1 CN= 0.000     C6(AA)=    7.59
       5 C6 FOR ELEMENT   6
  Z=  6 CN= 0.000     C6(AA)=   49.11
  Z=  6 CN= 0.987     C6(AA)=   43.25
  Z=  6 CN= 1.998     C6(AA)=   29.36
  Z=  6 CN= 2.999     C6(AA)=   25.78
  Z=  6 CN= 3.984     C6(AA)=   18.21

 #          XYZ [AU]             R0(AA) [ANG.]  CN         C6(AA)     C8(AA)   C10(AA) [AU]
  1   1.26532   2.19159   2.83459    6  1.455  3.244        24.8       715.9     25362.9
  2  -1.26532   2.19159   2.83459    6  1.455  3.244        24.8       715.9     25362.9
  3  -2.53063   0.00000   2.83459    6  1.455  3.244        24.8       715.9     25362.9
  4  -1.26532  -2.19159   2.83459    6  1.455  3.244        24.8       715.9     25362.9
  5   1.26532  -2.19159   2.83459    6  1.455  3.244        24.8       715.9     25362.9
  6   2.53063   0.00000  -2.83459    6  1.455  3.244        24.8       715.9     25362.9
  7   1.26532   2.19159  -2.83459    6  1.455  3.244        24.8       715.9     25362.9
  8  -1.26532   2.19159  -2.83459    6  1.455  3.244        24.8       715.9     25362.9
  9  -2.53063   0.00000  -2.83459    6  1.455  3.244        24.8       715.9     25362.9
 10  -1.26532  -2.19159  -2.83459    6  1.455  3.244        24.8       715.9     25362.9
 11   1.26532  -2.19159  -2.83459    6  1.455  3.244        24.8       715.9     25362.9
 12   2.53063   0.00000   2.83459    6  1.455  3.244        24.8       715.9     25362.9
 13   2.18993   3.79308   2.83459    1  1.091  1.019         3.1        37.3       551.8
 14  -2.18993   3.79308   2.83459    1  1.091  1.019         3.1        37.3       551.8
 15  -4.37987   0.00000   2.83459    1  1.091  1.019         3.1        37.3       551.8
 16  -2.18993  -3.79308   2.83459    1  1.091  1.019         3.1        37.3       551.8
 17   2.18993  -3.79308   2.83459    1  1.091  1.019         3.1        37.3       551.8
 18   4.37987   0.00000  -2.83459    1  1.091  1.019         3.1        37.3       551.8
 19   2.18993   3.79308  -2.83459    1  1.091  1.019         3.1        37.3       551.8
 20  -2.18993   3.79308  -2.83459    1  1.091  1.019         3.1        37.3       551.8
 21  -4.37987   0.00000  -2.83459    1  1.091  1.019         3.1        37.3       551.8
 22  -2.18993  -3.79308  -2.83459    1  1.091  1.019         3.1        37.3       551.8
 23   2.18993  -3.79308  -2.83459    1  1.091  1.019         3.1        37.3       551.8
 24   4.37987   0.00000   2.83459    1  1.091  1.019         3.1        37.3       551.8

     MOLECULAR C6(AA) [AU] =      6519.86

           DFT-D V3(BJ)

 FUNCTIONAL: B3LYP   

 PARAMETERS
 S6       :    1.0000
 RS6      :    1.2610
 S18      :    1.7030
 RS18     :    1.0000
 ALPHA6   :   14.0000
 ALPHA8   :   16.0000
 K1-K3    :   16.0000    1.3333    4.0000

 EDISP /KCAL,AU:   -16.1449 -0.02572852

 E6    /KCAL :    -3.6901
 E8    /KCAL :   -12.4548
 % E8        : 77.14

 FINAL R-B3LYP ENERGY IS     -464.0414730210 AFTER  16 ITERATIONS
 DFT EXCHANGE + CORRELATION ENERGY =       -56.7746019020
 TOTAL ELECTRON NUMBER             =        84.0003093683
 GRIMME'S DISPERSION ENERGY                     =       -0.0257285207
 ENERGY WITHOUT GRIMME'S DISPERSION CORRECTION IS     -464.0157445004

          ------------
          EIGENVECTORS
          ------------

                      1          2          3          4          5
                  -10.1497   -10.1496   -10.1494   -10.1494   -10.1493
                     A2U        A1G        E1G        E1G        E1U 
    1  C  1  S    0.290567   0.290130  -0.356930  -0.206074  -0.205548
    2  C  1  S    0.004864   0.004001  -0.007867  -0.004542  -0.003554
    3  C  1  S   -0.003343  -0.002669   0.009349   0.005398   0.003513
    4  C  1  X    0.000318   0.000367  -0.000322   0.000370   0.000517
    5  C  1  Y    0.000551   0.000635  -0.000002  -0.000322  -0.000614
    6  C  1  Z   -0.000266   0.000047   0.000323   0.000186  -0.000023
    7  C  1  X    0.000000  -0.000107   0.000378  -0.003543  -0.001961
    8  C  1  Y    0.000001  -0.000186  -0.003107   0.000378   0.000549
    9  C  1  Z    0.000524  -0.000106  -0.001164  -0.000672   0.000112
   10  C  1 XX   -0.000221  -0.000192   0.000650  -0.000428  -0.000473
   11  C  1 YY    0.000292   0.000182  -0.000544   0.000489   0.000462
   12  C  1 ZZ   -0.000071   0.000010  -0.000105  -0.000061   0.000011
   13  C  1 XY    0.000514   0.000375  -0.000267  -0.000689  -0.000637
   14  C  1 XZ    0.000040  -0.000005  -0.000117   0.000237  -0.000037
   15  C  1 YZ    0.000069  -0.000009   0.000103  -0.000117   0.000012
   16  C  2  S    0.290567   0.290130  -0.356930   0.206074   0.205548
   17  C  2  S    0.004864   0.004001  -0.007867   0.004542   0.003554
   18  C  2  S   -0.003343  -0.002669   0.009349  -0.005398  -0.003513
   19  C  2  X   -0.000318  -0.000367   0.000322   0.000370   0.000517
   20  C  2  Y    0.000551   0.000635  -0.000002   0.000322   0.000614
   21  C  2  Z   -0.000266   0.000047   0.000323  -0.000186   0.000023
   22  C  2  X   -0.000000   0.000107  -0.000378  -0.003543  -0.001961
   23  C  2  Y    0.000001  -0.000186  -0.003107  -0.000378  -0.000549
   24  C  2  Z    0.000524  -0.000106  -0.001164   0.000672  -0.000112
   25  C  2 XX   -0.000221  -0.000192   0.000650   0.000428   0.000473
   26  C  2 YY    0.000292   0.000182  -0.000544  -0.000489  -0.000462
   27  C  2 ZZ   -0.000071   0.000010  -0.000105   0.000061  -0.000011
   28  C  2 XY   -0.000514  -0.000375   0.000267  -0.000689  -0.000637
   29  C  2 XZ   -0.000040   0.000005   0.000117   0.000237  -0.000037
   30  C  2 YZ    0.000069  -0.000009   0.000103   0.000117  -0.000012
   31  C  3  S    0.290567   0.290130  -0.000000   0.412147   0.411096
   32  C  3  S    0.004864   0.004001  -0.000000   0.009084   0.007108
   33  C  3  S   -0.003343  -0.002669  -0.000000  -0.010796  -0.007027
   34  C  3  X   -0.000636  -0.000733  -0.000000  -0.000188  -0.000547
   35  C  3  Y    0.000000  -0.000000   0.000556   0.000000   0.000000
   36  C  3  Z   -0.000266   0.000047  -0.000000  -0.000373   0.000046
   37  C  3  X   -0.000001   0.000214  -0.000000  -0.002888  -0.001010
   38  C  3  Y    0.000000  -0.000000  -0.003761   0.000000   0.000000
   39  C  3  Z    0.000524  -0.000106  -0.000000   0.001344  -0.000223
   40  C  3 XX    0.000549   0.000370  -0.000000   0.000515   0.000499
   41  C  3 YY   -0.000478  -0.000380  -0.000000  -0.000636  -0.000477
   42  C  3 ZZ   -0.000071   0.000010  -0.000000   0.000122  -0.000021
   43  C  3 XY    0.000000  -0.000000   0.000927   0.000000   0.000000
   44  C  3 XZ   -0.000080   0.000011  -0.000000   0.000035  -0.000017
   45  C  3 YZ    0.000000  -0.000000   0.000305   0.000000   0.000000
   46  C  4  S    0.290567   0.290130   0.356930   0.206074   0.205548
   47  C  4  S    0.004864   0.004001   0.007867   0.004542   0.003554
   48  C  4  S   -0.003343  -0.002669  -0.009349  -0.005398  -0.003513
   49  C  4  X   -0.000318  -0.000367  -0.000322   0.000370   0.000517
   50  C  4  Y   -0.000551  -0.000635  -0.000002  -0.000322  -0.000614
   51  C  4  Z   -0.000266   0.000047  -0.000323  -0.000186   0.000023
   52  C  4  X   -0.000000   0.000107   0.000378  -0.003543  -0.001961
   53  C  4  Y   -0.000001   0.000186  -0.003107   0.000378   0.000549
   54  C  4  Z    0.000524  -0.000106   0.001164   0.000672  -0.000112
   55  C  4 XX   -0.000221  -0.000192  -0.000650   0.000428   0.000473
   56  C  4 YY    0.000292   0.000182   0.000544  -0.000489  -0.000462
   57  C  4 ZZ   -0.000071   0.000010   0.000105   0.000061  -0.000011
   58  C  4 XY    0.000514   0.000375   0.000267   0.000689   0.000637
   59  C  4 XZ   -0.000040   0.000005  -0.000117   0.000237  -0.000037
   60  C  4 YZ   -0.000069   0.000009   0.000103  -0.000117   0.000012
   61  C  5  S    0.290567   0.290130   0.356930  -0.206074  -0.205548
   62  C  5  S    0.004864   0.004001   0.007867  -0.004542  -0.003554
   63  C  5  S   -0.003343  -0.002669  -0.009349   0.005398   0.003513
   64  C  5  X    0.000318   0.000367   0.000322   0.000370   0.000517
   65  C  5  Y   -0.000551  -0.000635  -0.000002   0.000322   0.000614
   66  C  5  Z   -0.000266   0.000047  -0.000323   0.000186  -0.000023
   67  C  5  X    0.000000  -0.000107  -0.000378  -0.003543  -0.001961
   68  C  5  Y   -0.000001   0.000186  -0.003107  -0.000378  -0.000549
   69  C  5  Z    0.000524  -0.000106   0.001164  -0.000672   0.000112
   70  C  5 XX   -0.000221  -0.000192  -0.000650  -0.000428  -0.000473
   71  C  5 YY    0.000292   0.000182   0.000544   0.000489   0.000462
   72  C  5 ZZ   -0.000071   0.000010   0.000105  -0.000061   0.000011
   73  C  5 XY   -0.000514  -0.000375  -0.000267   0.000689   0.000637
   74  C  5 XZ    0.000040  -0.000005   0.000117   0.000237  -0.000037
   75  C  5 YZ   -0.000069   0.000009   0.000103   0.000117  -0.000012
   76  C  6  S   -0.290567   0.290130  -0.000000   0.412147  -0.411096
   77  C  6  S   -0.004864   0.004001  -0.000000   0.009084  -0.007108
   78  C  6  S    0.003343  -0.002669  -0.000000  -0.010796   0.007027
   79  C  6  X   -0.000636   0.000733  -0.000000   0.000188  -0.000547
   80  C  6  Y    0.000000  -0.000000  -0.000556   0.000000   0.000000
   81  C  6  Z   -0.000266  -0.000047  -0.000000   0.000373   0.000046
   82  C  6  X   -0.000001  -0.000214  -0.000000   0.002888  -0.001010
   83  C  6  Y    0.000000  -0.000000   0.003761   0.000000   0.000000
   84  C  6  Z    0.000524   0.000106  -0.000000  -0.001344  -0.000223
   85  C  6 XX   -0.000549   0.000370  -0.000000   0.000515  -0.000499
   86  C  6 YY    0.000478  -0.000380  -0.000000  -0.000636   0.000477
   87  C  6 ZZ    0.000071   0.000010  -0.000000   0.000122   0.000021
   88  C  6 XY    0.000000  -0.000000   0.000927   0.000000   0.000000
   89  C  6 XZ    0.000080   0.000011  -0.000000   0.000035   0.000017
   90  C  6 YZ    0.000000  -0.000000   0.000305   0.000000   0.000000
   91  C  7  S   -0.290567   0.290130   0.356930   0.206074  -0.205548
   92  C  7  S   -0.004864   0.004001   0.007867   0.004542  -0.003554
   93  C  7  S    0.003343  -0.002669  -0.009349  -0.005398   0.003513
   94  C  7  X   -0.000318   0.000367   0.000322  -0.000370   0.000517
   95  C  7  Y   -0.000551   0.000635   0.000002   0.000322  -0.000614
   96  C  7  Z   -0.000266  -0.000047   0.000323   0.000186   0.000023
   97  C  7  X   -0.000000  -0.000107  -0.000378   0.003543  -0.001961
   98  C  7  Y   -0.000001  -0.000186   0.003107  -0.000378   0.000549
   99  C  7  Z    0.000524   0.000106  -0.001164  -0.000672  -0.000112
  100  C  7 XX    0.000221  -0.000192  -0.000650   0.000428  -0.000473
  101  C  7 YY   -0.000292   0.000182   0.000544  -0.000489   0.000462
  102  C  7 ZZ    0.000071   0.000010   0.000105   0.000061   0.000011
  103  C  7 XY   -0.000514   0.000375   0.000267   0.000689  -0.000637
  104  C  7 XZ    0.000040   0.000005  -0.000117   0.000237   0.000037
  105  C  7 YZ    0.000069   0.000009   0.000103  -0.000117  -0.000012
  106  C  8  S   -0.290567   0.290130   0.356930  -0.206074   0.205548
  107  C  8  S   -0.004864   0.004001   0.007867  -0.004542   0.003554
  108  C  8  S    0.003343  -0.002669  -0.009349   0.005398  -0.003513
  109  C  8  X    0.000318  -0.000367  -0.000322  -0.000370   0.000517
  110  C  8  Y   -0.000551   0.000635   0.000002  -0.000322   0.000614
  111  C  8  Z   -0.000266  -0.000047   0.000323  -0.000186  -0.000023
  112  C  8  X    0.000000   0.000107   0.000378   0.003543  -0.001961
  113  C  8  Y   -0.000001  -0.000186   0.003107   0.000378  -0.000549
  114  C  8  Z    0.000524   0.000106  -0.001164   0.000672   0.000112
  115  C  8 XX    0.000221  -0.000192  -0.000650  -0.000428   0.000473
  116  C  8 YY   -0.000292   0.000182   0.000544   0.000489  -0.000462
  117  C  8 ZZ    0.000071   0.000010   0.000105  -0.000061  -0.000011
  118  C  8 XY    0.000514  -0.000375  -0.000267   0.000689  -0.000637
  119  C  8 XZ   -0.000040  -0.000005   0.000117   0.000237   0.000037
  120  C  8 YZ    0.000069   0.000009   0.000103   0.000117   0.000012
  121  C  9  S   -0.290567   0.290130  -0.000000  -0.412147   0.411096
  122  C  9  S   -0.004864   0.004001  -0.000000  -0.009084   0.007108
  123  C  9  S    0.003343  -0.002669  -0.000000   0.010796  -0.007027
  124  C  9  X    0.000636  -0.000733  -0.000000   0.000188  -0.000547
  125  C  9  Y    0.000000  -0.000000  -0.000556   0.000000   0.000000
  126  C  9  Z   -0.000266  -0.000047  -0.000000  -0.000373  -0.000046
  127  C  9  X    0.000001   0.000214  -0.000000   0.002888  -0.001010
  128  C  9  Y    0.000000  -0.000000   0.003761   0.000000   0.000000
  129  C  9  Z    0.000524   0.000106  -0.000000   0.001344   0.000223
  130  C  9 XX   -0.000549   0.000370  -0.000000  -0.000515   0.000499
  131  C  9 YY    0.000478  -0.000380  -0.000000   0.000636  -0.000477
  132  C  9 ZZ    0.000071   0.000010  -0.000000  -0.000122  -0.000021
  133  C  9 XY    0.000000  -0.000000  -0.000927   0.000000   0.000000
  134  C  9 XZ   -0.000080  -0.000011  -0.000000   0.000035   0.000017
  135  C  9 YZ    0.000000  -0.000000   0.000305   0.000000   0.000000
  136  C 10  S   -0.290567   0.290130  -0.356930  -0.206074   0.205548
  137  C 10  S   -0.004864   0.004001  -0.007867  -0.004542   0.003554
  138  C 10  S    0.003343  -0.002669   0.009349   0.005398  -0.003513
  139  C 10  X    0.000318  -0.000367   0.000322  -0.000370   0.000517
  140  C 10  Y    0.000551  -0.000635   0.000002   0.000322  -0.000614
  141  C 10  Z   -0.000266  -0.000047  -0.000323  -0.000186  -0.000023
  142  C 10  X    0.000000   0.000107  -0.000378   0.003543  -0.001961
  143  C 10  Y    0.000001   0.000186   0.003107  -0.000378   0.000549
  144  C 10  Z    0.000524   0.000106   0.001164   0.000672   0.000112
  145  C 10 XX    0.000221  -0.000192   0.000650  -0.000428   0.000473
  146  C 10 YY   -0.000292   0.000182  -0.000544   0.000489  -0.000462
  147  C 10 ZZ    0.000071   0.000010  -0.000105  -0.000061  -0.000011
  148  C 10 XY   -0.000514   0.000375  -0.000267  -0.000689   0.000637
  149  C 10 XZ   -0.000040  -0.000005  -0.000117   0.000237   0.000037
  150  C 10 YZ   -0.000069  -0.000009   0.000103  -0.000117  -0.000012
  151  C 11  S   -0.290567   0.290130  -0.356930   0.206074  -0.205548
  152  C 11  S   -0.004864   0.004001  -0.007867   0.004542  -0.003554
  153  C 11  S    0.003343  -0.002669   0.009349  -0.005398   0.003513
  154  C 11  X   -0.000318   0.000367  -0.000322  -0.000370   0.000517
  155  C 11  Y    0.000551  -0.000635   0.000002  -0.000322   0.000614
  156  C 11  Z   -0.000266  -0.000047  -0.000323   0.000186   0.000023
  157  C 11  X   -0.000000  -0.000107   0.000378   0.003543  -0.001961
  158  C 11  Y    0.000001   0.000186   0.003107   0.000378  -0.000549
  159  C 11  Z    0.000524   0.000106   0.001164  -0.000672  -0.000112
  160  C 11 XX    0.000221  -0.000192   0.000650   0.000428  -0.000473
  161  C 11 YY   -0.000292   0.000182  -0.000544  -0.000489   0.000462
  162  C 11 ZZ    0.000071   0.000010  -0.000105   0.000061   0.000011
  163  C 11 XY    0.000514  -0.000375   0.000267  -0.000689   0.000637
  164  C 11 XZ    0.000040   0.000005   0.000117   0.000237   0.000037
  165  C 11 YZ   -0.000069  -0.000009   0.000103   0.000117   0.000012
  166  C 12  S    0.290567   0.290130  -0.000000  -0.412147  -0.411096
  167  C 12  S    0.004864   0.004001  -0.000000  -0.009084  -0.007108
  168  C 12  S   -0.003343  -0.002669  -0.000000   0.010796   0.007027
  169  C 12  X    0.000636   0.000733  -0.000000  -0.000188  -0.000547
  170  C 12  Y    0.000000  -0.000000   0.000556   0.000000   0.000000
  171  C 12  Z   -0.000266   0.000047  -0.000000   0.000373  -0.000046
  172  C 12  X    0.000001  -0.000214  -0.000000  -0.002888  -0.001010
  173  C 12  Y    0.000000  -0.000000  -0.003761   0.000000   0.000000
  174  C 12  Z    0.000524  -0.000106  -0.000000  -0.001344   0.000223
  175  C 12 XX    0.000549   0.000370  -0.000000  -0.000515  -0.000499
  176  C 12 YY   -0.000478  -0.000380  -0.000000   0.000636   0.000477
  177  C 12 ZZ   -0.000071   0.000010  -0.000000  -0.000122   0.000021
  178  C 12 XY    0.000000  -0.000000  -0.000927   0.000000   0.000000
  179  C 12 XZ    0.000080  -0.000011  -0.000000   0.000035  -0.000017
  180  C 12 YZ    0.000000  -0.000000   0.000305   0.000000   0.000000
  181  H 13  S   -0.001003  -0.000995   0.001086   0.000627   0.000739
  182  H 13  S    0.001022   0.001049   0.000073   0.000042  -0.000392
  183  H 13  X    0.000317   0.000275  -0.000558  -0.000003  -0.000019
  184  H 13  Y    0.000550   0.000476  -0.000648  -0.000558  -0.000526
  185  H 13  Z   -0.000156   0.000038   0.000216   0.000124  -0.000024
  186  H 14  S   -0.001003  -0.000995   0.001086  -0.000627  -0.000739
  187  H 14  S    0.001022   0.001049   0.000073  -0.000042   0.000392
  188  H 14  X   -0.000317  -0.000275   0.000558  -0.000003  -0.000019
  189  H 14  Y    0.000550   0.000476  -0.000648   0.000558   0.000526
  190  H 14  Z   -0.000156   0.000038   0.000216  -0.000124   0.000024
  191  H 15  S   -0.001003  -0.000995  -0.000000  -0.001254  -0.001478
  192  H 15  S    0.001022   0.001049  -0.000000  -0.000084   0.000784
  193  H 15  X   -0.000635  -0.000549  -0.000000  -0.000970  -0.000930
  194  H 15  Y    0.000000  -0.000000   0.000319   0.000000   0.000000
  195  H 15  Z   -0.000156   0.000038  -0.000000  -0.000249   0.000049
  196  H 16  S   -0.001003  -0.000995  -0.001086  -0.000627  -0.000739
  197  H 16  S    0.001022   0.001049  -0.000073  -0.000042   0.000392
  198  H 16  X   -0.000317  -0.000275  -0.000558  -0.000003  -0.000019
  199  H 16  Y   -0.000550  -0.000476  -0.000648  -0.000558  -0.000526
  200  H 16  Z   -0.000156   0.000038  -0.000216  -0.000124   0.000024
  201  H 17  S   -0.001003  -0.000995  -0.001086   0.000627   0.000739
  202  H 17  S    0.001022   0.001049  -0.000073   0.000042  -0.000392
  203  H 17  X    0.000317   0.000275   0.000558  -0.000003  -0.000019
  204  H 17  Y   -0.000550  -0.000476  -0.000648   0.000558   0.000526
  205  H 17  Z   -0.000156   0.000038  -0.000216   0.000124  -0.000024
  206  H 18  S    0.001003  -0.000995  -0.000000  -0.001254   0.001478
  207  H 18  S   -0.001022   0.001049  -0.000000  -0.000084  -0.000784
  208  H 18  X   -0.000635   0.000549  -0.000000   0.000970  -0.000930
  209  H 18  Y    0.000000  -0.000000  -0.000319   0.000000   0.000000
  210  H 18  Z   -0.000156  -0.000038  -0.000000   0.000249   0.000049
  211  H 19  S    0.001003  -0.000995  -0.001086  -0.000627   0.000739
  212  H 19  S   -0.001022   0.001049  -0.000073  -0.000042  -0.000392
  213  H 19  X   -0.000317   0.000275   0.000558   0.000003  -0.000019
  214  H 19  Y   -0.000550   0.000476   0.000648   0.000558  -0.000526
  215  H 19  Z   -0.000156  -0.000038   0.000216   0.000124   0.000024
  216  H 20  S    0.001003  -0.000995  -0.001086   0.000627  -0.000739
  217  H 20  S   -0.001022   0.001049  -0.000073   0.000042   0.000392
  218  H 20  X    0.000317  -0.000275  -0.000558   0.000003  -0.000019
  219  H 20  Y   -0.000550   0.000476   0.000648  -0.000558   0.000526
  220  H 20  Z   -0.000156  -0.000038   0.000216  -0.000124  -0.000024
  221  H 21  S    0.001003  -0.000995  -0.000000   0.001254  -0.001478
  222  H 21  S   -0.001022   0.001049  -0.000000   0.000084   0.000784
  223  H 21  X    0.000635  -0.000549  -0.000000   0.000970  -0.000930
  224  H 21  Y    0.000000  -0.000000  -0.000319   0.000000   0.000000
  225  H 21  Z   -0.000156  -0.000038  -0.000000  -0.000249  -0.000049
  226  H 22  S    0.001003  -0.000995   0.001086   0.000627  -0.000739
  227  H 22  S   -0.001022   0.001049   0.000073   0.000042   0.000392
  228  H 22  X    0.000317  -0.000275   0.000558   0.000003  -0.000019
  229  H 22  Y    0.000550  -0.000476   0.000648   0.000558  -0.000526
  230  H 22  Z   -0.000156  -0.000038  -0.000216  -0.000124  -0.000024
  231  H 23  S    0.001003  -0.000995   0.001086  -0.000627   0.000739
  232  H 23  S   -0.001022   0.001049   0.000073  -0.000042  -0.000392
  233  H 23  X   -0.000317   0.000275  -0.000558   0.000003  -0.000019
  234  H 23  Y    0.000550  -0.000476   0.000648  -0.000558   0.000526
  235  H 23  Z   -0.000156  -0.000038  -0.000216   0.000124   0.000024
  236  H 24  S   -0.001003  -0.000995  -0.000000   0.001254   0.001478
  237  H 24  S    0.001022   0.001049  -0.000000   0.000084  -0.000784
  238  H 24  X    0.000635   0.000549  -0.000000  -0.000970  -0.000930
  239  H 24  Y    0.000000  -0.000000   0.000319   0.000000   0.000000
  240  H 24  Z   -0.000156   0.000038  -0.000000   0.000249  -0.000049

                      6          7          8          9         10
                  -10.1493   -10.1486   -10.1486   -10.1485   -10.1485
                     E1U        E2U        E2U        E2G        E2G 
    1  C  1  S   -0.356020  -0.357062   0.206150  -0.205758  -0.356384
    2  C  1  S   -0.006155  -0.008162   0.004712  -0.004013  -0.006950
    3  C  1  S    0.006086   0.015370  -0.008874   0.004521   0.007830
    4  C  1  X   -0.000614   0.000159   0.000319  -0.000659   0.000278
    5  C  1  Y   -0.000192  -0.000135  -0.000159   0.000278  -0.000337
    6  C  1  Z   -0.000040   0.000168  -0.000097  -0.000012  -0.000022
    7  C  1  X    0.000549  -0.003513   0.000209  -0.000091  -0.001453
    8  C  1  Y   -0.001327  -0.004265   0.003513  -0.001453  -0.001769
    9  C  1  Z    0.000193  -0.001680   0.000970   0.000163   0.000282
   10  C  1 XX    0.000543  -0.000558  -0.000355   0.000339  -0.000596
   11  C  1 YY   -0.000561  -0.000141   0.000759  -0.000878  -0.000338
   12  C  1 ZZ    0.000019   0.000699  -0.000404   0.000539   0.000934
   13  C  1 XY   -0.000196  -0.000365  -0.000241   0.000149  -0.000530
   14  C  1 XZ    0.000012   0.000139   0.000112   0.000014  -0.000021
   15  C  1 YZ   -0.000023   0.000049  -0.000139  -0.000021  -0.000010
   16  C  2  S   -0.356020   0.357062   0.206150  -0.205758   0.356384
   17  C  2  S   -0.006155   0.008162   0.004712  -0.004013   0.006950
   18  C  2  S    0.006086  -0.015370  -0.008874   0.004521  -0.007830
   19  C  2  X    0.000614   0.000159  -0.000319   0.000659   0.000278
   20  C  2  Y   -0.000192   0.000135  -0.000159   0.000278   0.000337
   21  C  2  Z   -0.000040  -0.000168  -0.000097  -0.000012   0.000022
   22  C  2  X   -0.000549  -0.003513  -0.000209   0.000091  -0.001453
   23  C  2  Y   -0.001327   0.004265   0.003513  -0.001453   0.001769
   24  C  2  Z    0.000193   0.001680   0.000970   0.000163  -0.000282
   25  C  2 XX    0.000543   0.000558  -0.000355   0.000339   0.000596
   26  C  2 YY   -0.000561   0.000141   0.000759  -0.000878   0.000338
   27  C  2 ZZ    0.000019  -0.000699  -0.000404   0.000539  -0.000934
   28  C  2 XY    0.000196  -0.000365   0.000241  -0.000149  -0.000530
   29  C  2 XZ   -0.000012   0.000139  -0.000112  -0.000014  -0.000021
   30  C  2 YZ   -0.000023  -0.000049  -0.000139  -0.000021   0.000010
   31  C  3  S    0.000000   0.000000  -0.412300   0.411516  -0.000000
   32  C  3  S    0.000000   0.000000  -0.009424   0.008025  -0.000000
   33  C  3  S    0.000000   0.000000   0.017748  -0.009041  -0.000000
   34  C  3  X    0.000000   0.000000   0.000043  -0.000177  -0.000000
   35  C  3  Y    0.000872  -0.000410  -0.000000   0.000000  -0.000819
   36  C  3  Z    0.000000   0.000000   0.000194   0.000025  -0.000000
   37  C  3  X    0.000000   0.000000   0.006293  -0.002607  -0.000000
   38  C  3  Y   -0.002277   0.001819  -0.000000   0.000000   0.000748
   39  C  3  Z    0.000000   0.000000  -0.001940  -0.000326  -0.000000
   40  C  3 XX    0.000000   0.000000  -0.000600   0.000924  -0.000000
   41  C  3 YY    0.000000   0.000000  -0.000208   0.000154  -0.000000
   42  C  3 ZZ    0.000000   0.000000   0.000807  -0.001078  -0.000000
   43  C  3 XY    0.000908  -0.000782  -0.000000   0.000000  -0.000788
   44  C  3 XZ    0.000000   0.000000  -0.000130  -0.000021  -0.000000
   45  C  3 YZ   -0.000044  -0.000192  -0.000000   0.000000   0.000026
   46  C  4  S    0.356020  -0.357062   0.206150  -0.205758  -0.356384
   47  C  4  S    0.006155  -0.008162   0.004712  -0.004013  -0.006950
   48  C  4  S   -0.006086   0.015370  -0.008874   0.004521   0.007830
   49  C  4  X   -0.000614  -0.000159  -0.000319   0.000659  -0.000278
   50  C  4  Y   -0.000192   0.000135   0.000159  -0.000278   0.000337
   51  C  4  Z    0.000040   0.000168  -0.000097  -0.000012  -0.000022
   52  C  4  X    0.000549   0.003513  -0.000209   0.000091   0.001453
   53  C  4  Y   -0.001327   0.004265  -0.003513   0.001453   0.001769
   54  C  4  Z   -0.000193  -0.001680   0.000970   0.000163   0.000282
   55  C  4 XX   -0.000543  -0.000558  -0.000355   0.000339  -0.000596
   56  C  4 YY    0.000561  -0.000141   0.000759  -0.000878  -0.000338
   57  C  4 ZZ   -0.000019   0.000699  -0.000404   0.000539   0.000934
   58  C  4 XY    0.000196  -0.000365  -0.000241   0.000149  -0.000530
   59  C  4 XZ    0.000012  -0.000139  -0.000112  -0.000014   0.000021
   60  C  4 YZ   -0.000023  -0.000049   0.000139   0.000021   0.000010
   61  C  5  S    0.356020   0.357062   0.206150  -0.205758   0.356384
   62  C  5  S    0.006155   0.008162   0.004712  -0.004013   0.006950
   63  C  5  S   -0.006086  -0.015370  -0.008874   0.004521  -0.007830
   64  C  5  X    0.000614  -0.000159   0.000319  -0.000659  -0.000278
   65  C  5  Y   -0.000192  -0.000135   0.000159  -0.000278  -0.000337
   66  C  5  Z    0.000040  -0.000168  -0.000097  -0.000012   0.000022
   67  C  5  X   -0.000549   0.003513   0.000209  -0.000091   0.001453
   68  C  5  Y   -0.001327  -0.004265  -0.003513   0.001453  -0.001769
   69  C  5  Z   -0.000193   0.001680   0.000970   0.000163  -0.000282
   70  C  5 XX   -0.000543   0.000558  -0.000355   0.000339   0.000596
   71  C  5 YY    0.000561   0.000141   0.000759  -0.000878   0.000338
   72  C  5 ZZ   -0.000019  -0.000699  -0.000404   0.000539  -0.000934
   73  C  5 XY   -0.000196  -0.000365   0.000241  -0.000149  -0.000530
   74  C  5 XZ   -0.000012  -0.000139   0.000112   0.000014   0.000021
   75  C  5 YZ   -0.000023   0.000049   0.000139   0.000021  -0.000010
   76  C  6  S    0.000000   0.000000   0.412300   0.411516  -0.000000
   77  C  6  S    0.000000   0.000000   0.009424   0.008025  -0.000000
   78  C  6  S    0.000000   0.000000  -0.017748  -0.009041  -0.000000
   79  C  6  X    0.000000   0.000000   0.000043   0.000177  -0.000000
   80  C  6  Y    0.000872  -0.000410  -0.000000   0.000000   0.000819
   81  C  6  Z    0.000000   0.000000   0.000194  -0.000025  -0.000000
   82  C  6  X    0.000000   0.000000   0.006293   0.002607  -0.000000
   83  C  6  Y   -0.002277   0.001819  -0.000000   0.000000  -0.000748
   84  C  6  Z    0.000000   0.000000  -0.001940   0.000326  -0.000000
   85  C  6 XX    0.000000   0.000000   0.000600   0.000924  -0.000000
   86  C  6 YY    0.000000   0.000000   0.000208   0.000154  -0.000000
   87  C  6 ZZ    0.000000   0.000000  -0.000807  -0.001078  -0.000000
   88  C  6 XY   -0.000908   0.000782  -0.000000   0.000000  -0.000788
   89  C  6 XZ    0.000000   0.000000   0.000130  -0.000021  -0.000000
   90  C  6 YZ    0.000044   0.000192  -0.000000   0.000000   0.000026
   91  C  7  S   -0.356020   0.357062  -0.206150  -0.205758  -0.356384
   92  C  7  S   -0.006155   0.008162  -0.004712  -0.004013  -0.006950
   93  C  7  S    0.006086  -0.015370   0.008874   0.004521   0.007830
   94  C  7  X   -0.000614  -0.000159  -0.000319  -0.000659   0.000278
   95  C  7  Y   -0.000192   0.000135   0.000159   0.000278  -0.000337
   96  C  7  Z    0.000040   0.000168  -0.000097   0.000012   0.000022
   97  C  7  X    0.000549   0.003513  -0.000209  -0.000091  -0.001453
   98  C  7  Y   -0.001327   0.004265  -0.003513  -0.001453  -0.001769
   99  C  7  Z   -0.000193  -0.001680   0.000970  -0.000163  -0.000282
  100  C  7 XX    0.000543   0.000558   0.000355   0.000339  -0.000596
  101  C  7 YY   -0.000561   0.000141  -0.000759  -0.000878  -0.000338
  102  C  7 ZZ    0.000019  -0.000699   0.000404   0.000539   0.000934
  103  C  7 XY   -0.000196   0.000365   0.000241   0.000149  -0.000530
  104  C  7 XZ   -0.000012   0.000139   0.000112  -0.000014   0.000021
  105  C  7 YZ    0.000023   0.000049  -0.000139   0.000021   0.000010
  106  C  8  S   -0.356020  -0.357062  -0.206150  -0.205758   0.356384
  107  C  8  S   -0.006155  -0.008162  -0.004712  -0.004013   0.006950
  108  C  8  S    0.006086   0.015370   0.008874   0.004521  -0.007830
  109  C  8  X    0.000614  -0.000159   0.000319   0.000659   0.000278
  110  C  8  Y   -0.000192  -0.000135   0.000159   0.000278   0.000337
  111  C  8  Z    0.000040  -0.000168  -0.000097   0.000012  -0.000022
  112  C  8  X   -0.000549   0.003513   0.000209   0.000091  -0.001453
  113  C  8  Y   -0.001327  -0.004265  -0.003513  -0.001453   0.001769
  114  C  8  Z   -0.000193   0.001680   0.000970  -0.000163   0.000282
  115  C  8 XX    0.000543  -0.000558   0.000355   0.000339   0.000596
  116  C  8 YY   -0.000561  -0.000141  -0.000759  -0.000878   0.000338
  117  C  8 ZZ    0.000019   0.000699   0.000404   0.000539  -0.000934
  118  C  8 XY    0.000196   0.000365  -0.000241  -0.000149  -0.000530
  119  C  8 XZ    0.000012   0.000139  -0.000112   0.000014   0.000021
  120  C  8 YZ    0.000023  -0.000049  -0.000139   0.000021  -0.000010
  121  C  9  S    0.000000   0.000000   0.412300   0.411516  -0.000000
  122  C  9  S    0.000000   0.000000   0.009424   0.008025  -0.000000
  123  C  9  S    0.000000   0.000000  -0.017748  -0.009041  -0.000000
  124  C  9  X    0.000000   0.000000  -0.000043  -0.000177  -0.000000
  125  C  9  Y    0.000872   0.000410  -0.000000   0.000000  -0.000819
  126  C  9  Z    0.000000   0.000000   0.000194  -0.000025  -0.000000
  127  C  9  X    0.000000   0.000000  -0.006293  -0.002607  -0.000000
  128  C  9  Y   -0.002277  -0.001819  -0.000000   0.000000   0.000748
  129  C  9  Z    0.000000   0.000000  -0.001940   0.000326  -0.000000
  130  C  9 XX    0.000000   0.000000   0.000600   0.000924  -0.000000
  131  C  9 YY    0.000000   0.000000   0.000208   0.000154  -0.000000
  132  C  9 ZZ    0.000000   0.000000  -0.000807  -0.001078  -0.000000
  133  C  9 XY    0.000908   0.000782  -0.000000   0.000000  -0.000788
  134  C  9 XZ    0.000000   0.000000  -0.000130   0.000021  -0.000000
  135  C  9 YZ    0.000044  -0.000192  -0.000000   0.000000  -0.000026
  136  C 10  S    0.356020   0.357062  -0.206150  -0.205758  -0.356384
  137  C 10  S    0.006155   0.008162  -0.004712  -0.004013  -0.006950
  138  C 10  S   -0.006086  -0.015370   0.008874   0.004521   0.007830
  139  C 10  X   -0.000614   0.000159   0.000319   0.000659  -0.000278
  140  C 10  Y   -0.000192  -0.000135  -0.000159  -0.000278   0.000337
  141  C 10  Z   -0.000040   0.000168  -0.000097   0.000012   0.000022
  142  C 10  X    0.000549  -0.003513   0.000209   0.000091   0.001453
  143  C 10  Y   -0.001327  -0.004265   0.003513   0.001453   0.001769
  144  C 10  Z    0.000193  -0.001680   0.000970  -0.000163  -0.000282
  145  C 10 XX   -0.000543   0.000558   0.000355   0.000339  -0.000596
  146  C 10 YY    0.000561   0.000141  -0.000759  -0.000878  -0.000338
  147  C 10 ZZ   -0.000019  -0.000699   0.000404   0.000539   0.000934
  148  C 10 XY    0.000196   0.000365   0.000241   0.000149  -0.000530
  149  C 10 XZ   -0.000012  -0.000139  -0.000112   0.000014  -0.000021
  150  C 10 YZ    0.000023  -0.000049   0.000139  -0.000021  -0.000010
  151  C 11  S    0.356020  -0.357062  -0.206150  -0.205758   0.356384
  152  C 11  S    0.006155  -0.008162  -0.004712  -0.004013   0.006950
  153  C 11  S   -0.006086   0.015370   0.008874   0.004521  -0.007830
  154  C 11  X    0.000614   0.000159  -0.000319  -0.000659  -0.000278
  155  C 11  Y   -0.000192   0.000135  -0.000159  -0.000278  -0.000337
  156  C 11  Z   -0.000040  -0.000168  -0.000097   0.000012  -0.000022
  157  C 11  X   -0.000549  -0.003513  -0.000209  -0.000091   0.001453
  158  C 11  Y   -0.001327   0.004265   0.003513   0.001453  -0.001769
  159  C 11  Z    0.000193   0.001680   0.000970  -0.000163   0.000282
  160  C 11 XX   -0.000543  -0.000558   0.000355   0.000339   0.000596
  161  C 11 YY    0.000561  -0.000141  -0.000759  -0.000878   0.000338
  162  C 11 ZZ   -0.000019   0.000699   0.000404   0.000539  -0.000934
  163  C 11 XY   -0.000196   0.000365  -0.000241  -0.000149  -0.000530
  164  C 11 XZ    0.000012  -0.000139   0.000112  -0.000014  -0.000021
  165  C 11 YZ    0.000023   0.000049   0.000139  -0.000021   0.000010
  166  C 12  S    0.000000   0.000000  -0.412300   0.411516  -0.000000
  167  C 12  S    0.000000   0.000000  -0.009424   0.008025  -0.000000
  168  C 12  S    0.000000   0.000000   0.017748  -0.009041  -0.000000
  169  C 12  X    0.000000   0.000000  -0.000043   0.000177  -0.000000
  170  C 12  Y    0.000872   0.000410  -0.000000   0.000000   0.000819
  171  C 12  Z    0.000000   0.000000   0.000194   0.000025  -0.000000
  172  C 12  X    0.000000   0.000000  -0.006293   0.002607  -0.000000
  173  C 12  Y   -0.002277  -0.001819  -0.000000   0.000000  -0.000748
  174  C 12  Z    0.000000   0.000000  -0.001940  -0.000326  -0.000000
  175  C 12 XX    0.000000   0.000000  -0.000600   0.000924  -0.000000
  176  C 12 YY    0.000000   0.000000  -0.000208   0.000154  -0.000000
  177  C 12 ZZ    0.000000   0.000000   0.000807  -0.001078  -0.000000
  178  C 12 XY   -0.000908  -0.000782  -0.000000   0.000000  -0.000788
  179  C 12 XZ    0.000000   0.000000   0.000130   0.000021  -0.000000
  180  C 12 YZ   -0.000044   0.000192  -0.000000   0.000000  -0.000026
  181  H 13  S    0.001280   0.001236  -0.000714   0.001025   0.001776
  182  H 13  S   -0.000679   0.000829  -0.000479  -0.000118  -0.000204
  183  H 13  X   -0.000526  -0.000408   0.000404  -0.000436  -0.000475
  184  H 13  Y   -0.000626  -0.000875   0.000408  -0.000475  -0.000984
  185  H 13  Z   -0.000042   0.000180  -0.000104  -0.000023  -0.000039
  186  H 14  S    0.001280  -0.001236  -0.000714   0.001025  -0.001776
  187  H 14  S   -0.000679  -0.000829  -0.000479  -0.000118   0.000204
  188  H 14  X    0.000526  -0.000408  -0.000404   0.000436  -0.000475
  189  H 14  Y   -0.000626   0.000875   0.000408  -0.000475   0.000984
  190  H 14  Z   -0.000042  -0.000180  -0.000104  -0.000023   0.000039
  191  H 15  S    0.000000   0.000000   0.001428  -0.002050  -0.000000
  192  H 15  S    0.000000   0.000000   0.000958   0.000236  -0.000000
  193  H 15  X    0.000000   0.000000   0.001110  -0.001258  -0.000000
  194  H 15  Y    0.000285  -0.000168  -0.000000   0.000000  -0.000162
  195  H 15  Z    0.000000   0.000000   0.000208   0.000045  -0.000000
  196  H 16  S   -0.001280   0.001236  -0.000714   0.001025   0.001776
  197  H 16  S    0.000679   0.000829  -0.000479  -0.000118  -0.000204
  198  H 16  X   -0.000526   0.000408  -0.000404   0.000436   0.000475
  199  H 16  Y   -0.000626   0.000875  -0.000408   0.000475   0.000984
  200  H 16  Z    0.000042   0.000180  -0.000104  -0.000023  -0.000039
  201  H 17  S   -0.001280  -0.001236  -0.000714   0.001025  -0.001776
  202  H 17  S    0.000679  -0.000829  -0.000479  -0.000118   0.000204
  203  H 17  X    0.000526   0.000408   0.000404  -0.000436   0.000475
  204  H 17  Y   -0.000626  -0.000875  -0.000408   0.000475  -0.000984
  205  H 17  Z    0.000042  -0.000180  -0.000104  -0.000023   0.000039
  206  H 18  S    0.000000   0.000000  -0.001428  -0.002050  -0.000000
  207  H 18  S    0.000000   0.000000  -0.000958   0.000236  -0.000000
  208  H 18  X    0.000000   0.000000   0.001110   0.001258  -0.000000
  209  H 18  Y    0.000285  -0.000168  -0.000000   0.000000   0.000162
  210  H 18  Z    0.000000   0.000000   0.000208  -0.000045  -0.000000
  211  H 19  S    0.001280  -0.001236   0.000714   0.001025   0.001776
  212  H 19  S   -0.000679  -0.000829   0.000479  -0.000118  -0.000204
  213  H 19  X   -0.000526   0.000408  -0.000404  -0.000436  -0.000475
  214  H 19  Y   -0.000626   0.000875  -0.000408  -0.000475  -0.000984
  215  H 19  Z    0.000042   0.000180  -0.000104   0.000023   0.000039
  216  H 20  S    0.001280   0.001236   0.000714   0.001025  -0.001776
  217  H 20  S   -0.000679   0.000829   0.000479  -0.000118   0.000204
  218  H 20  X    0.000526   0.000408   0.000404   0.000436  -0.000475
  219  H 20  Y   -0.000626  -0.000875  -0.000408  -0.000475   0.000984
  220  H 20  Z    0.000042  -0.000180  -0.000104   0.000023  -0.000039
  221  H 21  S    0.000000   0.000000  -0.001428  -0.002050  -0.000000
  222  H 21  S    0.000000   0.000000  -0.000958   0.000236  -0.000000
  223  H 21  X    0.000000   0.000000  -0.001110  -0.001258  -0.000000
  224  H 21  Y    0.000285   0.000168  -0.000000   0.000000  -0.000162
  225  H 21  Z    0.000000   0.000000   0.000208  -0.000045  -0.000000
  226  H 22  S   -0.001280  -0.001236   0.000714   0.001025   0.001776
  227  H 22  S    0.000679  -0.000829   0.000479  -0.000118  -0.000204
  228  H 22  X   -0.000526  -0.000408   0.000404   0.000436   0.000475
  229  H 22  Y   -0.000626  -0.000875   0.000408   0.000475   0.000984
  230  H 22  Z   -0.000042   0.000180  -0.000104   0.000023   0.000039
  231  H 23  S   -0.001280   0.001236   0.000714   0.001025  -0.001776
  232  H 23  S    0.000679   0.000829   0.000479  -0.000118   0.000204
  233  H 23  X    0.000526  -0.000408  -0.000404  -0.000436   0.000475
  234  H 23  Y   -0.000626   0.000875   0.000408   0.000475  -0.000984
  235  H 23  Z   -0.000042  -0.000180  -0.000104   0.000023  -0.000039
  236  H 24  S    0.000000   0.000000   0.001428  -0.002050  -0.000000
  237  H 24  S    0.000000   0.000000   0.000958   0.000236  -0.000000
  238  H 24  X    0.000000   0.000000  -0.001110   0.001258  -0.000000
  239  H 24  Y    0.000285   0.000168  -0.000000   0.000000   0.000162
  240  H 24  Z    0.000000   0.000000   0.000208   0.000045  -0.000000

                     11         12         13         14         15
                  -10.1482   -10.1482    -0.8769    -0.8657    -0.7619
                     B2G        B1U        A1G        A2U        E1U 
    1  C  1  S    0.291707   0.291190  -0.012264  -0.013002   0.008630
    2  C  1  S    0.007029   0.006166   0.123667   0.124516  -0.085458
    3  C  1  S   -0.021041  -0.007351   0.062827   0.064563  -0.036246
    4  C  1  X   -0.000026  -0.000057  -0.023696  -0.024196  -0.059715
    5  C  1  Y   -0.000046  -0.000099  -0.041043  -0.041908   0.041661
    6  C  1  Z   -0.000098   0.000015  -0.002312   0.002090   0.001420
    7  C  1  X    0.004247   0.001206  -0.004303  -0.005086  -0.027589
    8  C  1  Y    0.007356   0.002089  -0.007453  -0.008809   0.025742
[...]
            240  H 24  Z      0.00828     0.02734

          ----- MULLIKEN ATOMIC OVERLAP POPULATIONS -----
          (OFF-DIAGONAL ELEMENTS NEED TO BE MULTIPLIED BY 2)

             1           2           3           4           5

    1    4.5758708
    2    0.5681393   4.5758708
    3   -0.0063968   0.5681393   4.5758708
    4   -0.0739653  -0.0063968   0.5681393   4.5758708
    5   -0.0063968  -0.0739653  -0.0063968   0.5681393   4.5758708
    6   -0.0090648   0.0019589  -0.0007612   0.0019589  -0.0090648
    7   -0.0113917  -0.0090648   0.0019589  -0.0007612   0.0019589
    8   -0.0090648  -0.0113917  -0.0090648   0.0019589  -0.0007612
    9    0.0019589  -0.0090648  -0.0113917  -0.0090648   0.0019589
   10   -0.0007612   0.0019589  -0.0090648  -0.0113917  -0.0090648
   11    0.0019589  -0.0007612   0.0019589  -0.0090648  -0.0113917
   12    0.5681393  -0.0063968  -0.0739653  -0.0063968   0.5681393
   13    0.3658565  -0.0531096   0.0124279   0.0031065   0.0124279
   14   -0.0531096   0.3658565  -0.0531096   0.0124279   0.0031065
   15    0.0124279  -0.0531096   0.3658565  -0.0531096   0.0124279
   16    0.0031065   0.0124279  -0.0531096   0.3658565  -0.0531096
   17    0.0124279   0.0031065   0.0124279  -0.0531096   0.3658565
   18   -0.0007113   0.0002310  -0.0002655   0.0002310  -0.0007113
   19    0.0040491  -0.0007113   0.0002310  -0.0002655   0.0002310
   20   -0.0007113   0.0040491  -0.0007113   0.0002310  -0.0002655
   21    0.0002310  -0.0007113   0.0040491  -0.0007113   0.0002310
   22   -0.0002655   0.0002310  -0.0007113   0.0040491  -0.0007113
   23    0.0002310  -0.0002655   0.0002310  -0.0007113   0.0040491
   24   -0.0531096   0.0124279   0.0031065   0.0124279  -0.0531096

             6           7           8           9          10

    6    4.5758708
    7    0.5681393   4.5758708
    8   -0.0063968   0.5681393   4.5758708
    9   -0.0739653  -0.0063968   0.5681393   4.5758708
   10   -0.0063968  -0.0739653  -0.0063968   0.5681393   4.5758708
   11    0.5681393  -0.0063968  -0.0739653  -0.0063968   0.5681393
   12   -0.0113917  -0.0090648   0.0019589  -0.0007612   0.0019589
   13   -0.0007113   0.0040491  -0.0007113   0.0002310  -0.0002655
   14    0.0002310  -0.0007113   0.0040491  -0.0007113   0.0002310
   15   -0.0002655   0.0002310  -0.0007113   0.0040491  -0.0007113
   16    0.0002310  -0.0002655   0.0002310  -0.0007113   0.0040491
   17   -0.0007113   0.0002310  -0.0002655   0.0002310  -0.0007113
   18    0.3658565  -0.0531096   0.0124279   0.0031065   0.0124279
   19   -0.0531096   0.3658565  -0.0531096   0.0124279   0.0031065
   20    0.0124279  -0.0531096   0.3658565  -0.0531096   0.0124279
   21    0.0031065   0.0124279  -0.0531096   0.3658565  -0.0531096
   22    0.0124279   0.0031065   0.0124279  -0.0531096   0.3658565
   23   -0.0531096   0.0124279   0.0031065   0.0124279  -0.0531096
   24    0.0040491  -0.0007113   0.0002310  -0.0002655   0.0002310

            11          12          13          14          15

   11    4.5758708
   12   -0.0090648   4.5758708
   13    0.0002310  -0.0531096   0.8766498
   14   -0.0002655   0.0124279  -0.0271422   0.8766498
   15    0.0002310   0.0031065  -0.0009014  -0.0271422   0.8766498
   16   -0.0007113   0.0124279   0.0002851  -0.0009014  -0.0271422
   17    0.0040491  -0.0531096  -0.0009014   0.0002851  -0.0009014
   18   -0.0531096   0.0040491  -0.0000505   0.0000250  -0.0000073
   19    0.0124279  -0.0007113  -0.0006603  -0.0000505   0.0000250
   20    0.0031065   0.0002310  -0.0000505  -0.0006603  -0.0000505
   21    0.0124279  -0.0002655   0.0000250  -0.0000505  -0.0006603
   22   -0.0531096   0.0002310  -0.0000073   0.0000250  -0.0000505
   23    0.3658565  -0.0007113   0.0000250  -0.0000073   0.0000250
   24   -0.0007113   0.3658565  -0.0271422  -0.0009014   0.0002851

            16          17          18          19          20

   16    0.8766498
   17   -0.0271422   0.8766498
   18    0.0000250  -0.0000505   0.8766498
   19   -0.0000073   0.0000250  -0.0271422   0.8766498
   20    0.0000250  -0.0000073  -0.0009014  -0.0271422   0.8766498
   21   -0.0000505   0.0000250   0.0002851  -0.0009014  -0.0271422
   22   -0.0006603  -0.0000505  -0.0009014   0.0002851  -0.0009014
   23   -0.0000505  -0.0006603  -0.0271422  -0.0009014   0.0002851
   24   -0.0009014  -0.0271422  -0.0006603  -0.0000505   0.0000250

            21          22          23          24

   21    0.8766498
   22   -0.0271422   0.8766498
   23   -0.0009014  -0.0271422   0.8766498
   24   -0.0000073   0.0000250  -0.0000505   0.8766498

          TOTAL MULLIKEN AND LOWDIN ATOMIC POPULATIONS
       ATOM         MULL.POP.    CHARGE          LOW.POP.     CHARGE
    1 C             5.889448    0.110552         6.059298   -0.059298
    2 C             5.889448    0.110552         6.059298   -0.059298
    3 C             5.889448    0.110552         6.047205   -0.047205
    4 C             5.889448    0.110552         6.059298   -0.059298
    5 C             5.889448    0.110552         6.059298   -0.059298
    6 C             5.889448    0.110552         6.047205   -0.047205
    7 C             5.889448    0.110552         6.059298   -0.059298
    8 C             5.889448    0.110552         6.059298   -0.059298
    9 C             5.889448    0.110552         6.047205   -0.047205
   10 C             5.889448    0.110552         6.059298   -0.059298
   11 C             5.889448    0.110552         6.059298   -0.059298
   12 C             5.889448    0.110552         6.047205   -0.047205
   13 H             1.110552   -0.110552         0.942079    0.057921
   14 H             1.110552   -0.110552         0.942079    0.057921
   15 H             1.110552   -0.110552         0.950043    0.049957
   16 H             1.110552   -0.110552         0.942079    0.057921
   17 H             1.110552   -0.110552         0.942079    0.057921
   18 H             1.110552   -0.110552         0.950043    0.049957
   19 H             1.110552   -0.110552         0.942079    0.057921
   20 H             1.110552   -0.110552         0.942079    0.057921
   21 H             1.110552   -0.110552         0.950043    0.049957
   22 H             1.110552   -0.110552         0.942079    0.057921
   23 H             1.110552   -0.110552         0.942079    0.057921
   24 H             1.110552   -0.110552         0.950043    0.049957

          MULLIKEN SPHERICAL HARMONIC POPULATIONS
       ATOM           S       P       D      F      G      H      I    TOTAL
    1 C             2.98    2.83    0.08   0.00   0.00   0.00   0.00    5.89
    2 C             2.98    2.83    0.08   0.00   0.00   0.00   0.00    5.89
    3 C             2.98    2.83    0.08   0.00   0.00   0.00   0.00    5.89
    4 C             2.98    2.83    0.08   0.00   0.00   0.00   0.00    5.89
    5 C             2.98    2.83    0.08   0.00   0.00   0.00   0.00    5.89
    6 C             2.98    2.83    0.08   0.00   0.00   0.00   0.00    5.89
    7 C             2.98    2.83    0.08   0.00   0.00   0.00   0.00    5.89
    8 C             2.98    2.83    0.08   0.00   0.00   0.00   0.00    5.89
    9 C             2.98    2.83    0.08   0.00   0.00   0.00   0.00    5.89
   10 C             2.98    2.83    0.08   0.00   0.00   0.00   0.00    5.89
   11 C             2.98    2.83    0.08   0.00   0.00   0.00   0.00    5.89
   12 C             2.98    2.83    0.08   0.00   0.00   0.00   0.00    5.89
   13 H             1.08    0.03    0.00   0.00   0.00   0.00   0.00    1.11
   14 H             1.08    0.03    0.00   0.00   0.00   0.00   0.00    1.11
   15 H             1.08    0.03    0.00   0.00   0.00   0.00   0.00    1.11
   16 H             1.08    0.03    0.00   0.00   0.00   0.00   0.00    1.11
   17 H             1.08    0.03    0.00   0.00   0.00   0.00   0.00    1.11
   18 H             1.08    0.03    0.00   0.00   0.00   0.00   0.00    1.11
   19 H             1.08    0.03    0.00   0.00   0.00   0.00   0.00    1.11
   20 H             1.08    0.03    0.00   0.00   0.00   0.00   0.00    1.11
   21 H             1.08    0.03    0.00   0.00   0.00   0.00   0.00    1.11
   22 H             1.08    0.03    0.00   0.00   0.00   0.00   0.00    1.11
   23 H             1.08    0.03    0.00   0.00   0.00   0.00   0.00    1.11
   24 H             1.08    0.03    0.00   0.00   0.00   0.00   0.00    1.11

          -------------------------------
          BOND ORDER AND VALENCE ANALYSIS     BOND ORDER THRESHOLD=0.050
          -------------------------------

                   BOND                       BOND                       BOND
  ATOM PAIR DIST  ORDER      ATOM PAIR DIST  ORDER      ATOM PAIR DIST  ORDER
    1   2  1.339  1.499        1   4  2.678  0.075        1  12  1.339  1.499
    1  13  0.979  0.914        2   3  1.339  1.499        2   5  2.678  0.075
    2  14  0.979  0.914        3   4  1.339  1.499        3  12  2.678  0.075
    3  15  0.979  0.914        4   5  1.339  1.499        4  16  0.979  0.914
    5  12  1.339  1.499        5  17  0.979  0.914        6   7  1.339  1.499
    6   9  2.678  0.075        6  11  1.339  1.499        6  18  0.979  0.914
    7   8  1.339  1.499        7  10  2.678  0.075        7  19  0.979  0.914
    8   9  1.339  1.499        8  11  2.678  0.075        8  20  0.979  0.914
    9  10  1.339  1.499        9  21  0.979  0.914       10  11  1.339  1.499
   10  22  0.979  0.914       11  23  0.979  0.914       12  24  0.979  0.914

                       TOTAL       BONDED        FREE
      ATOM            VALENCE     VALENCE     VALENCE
    1 C                 4.107       4.107      -0.000
    2 C                 4.107       4.107      -0.000
    3 C                 4.107       4.107       0.000
    4 C                 4.107       4.107       0.000
    5 C                 4.107       4.107      -0.000
    6 C                 4.107       4.107      -0.000
    7 C                 4.107       4.107      -0.000
    8 C                 4.107       4.107       0.000
    9 C                 4.107       4.107       0.000
   10 C                 4.107       4.107       0.000
   11 C                 4.107       4.107      -0.000
   12 C                 4.107       4.107      -0.000
   13 H                 0.953       0.953       0.000
   14 H                 0.953       0.953       0.000
   15 H                 0.953       0.953       0.000
   16 H                 0.953       0.953       0.000
   17 H                 0.953       0.953       0.000
   18 H                 0.953       0.953       0.000
   19 H                 0.953       0.953       0.000
   20 H                 0.953       0.953       0.000
   21 H                 0.953       0.953       0.000
   22 H                 0.953       0.953       0.000
   23 H                 0.953       0.953       0.000
   24 H                 0.953       0.953       0.000

          ---------------------
          ELECTROSTATIC MOMENTS
          ---------------------

 POINT   1           X           Y           Z (BOHR)    CHARGE
                -0.000000    0.000000    0.000000        0.00 (A.U.)
         DX          DY          DZ         /D/  (DEBYE)
     0.000000    0.000000   -0.000000    0.000000
 ...... END OF PROPERTY EVALUATION ......
 STEP CPU TIME =     0.14 TOTAL CPU TIME =       17.4 (    0.3 MIN)
 TOTAL WALL CLOCK TIME=       17.5 SECONDS, CPU UTILIZATION IS  99.60%

 BEGINNING ONE ELECTRON GRADIENT...

          ----------------------------
          DFT-D PARAMETERS AND RESULTS
          ----------------------------
 C6 COEFFICIENTS USED:
       2 C6 FOR ELEMENT   1
  Z=  1 CN= 0.912     C6(AA)=    3.03
  Z=  1 CN= 0.000     C6(AA)=    7.59
       5 C6 FOR ELEMENT   6
  Z=  6 CN= 0.000     C6(AA)=   49.11
  Z=  6 CN= 0.987     C6(AA)=   43.25
  Z=  6 CN= 1.998     C6(AA)=   29.36
  Z=  6 CN= 2.999     C6(AA)=   25.78
  Z=  6 CN= 3.984     C6(AA)=   18.21

 #          XYZ [AU]             R0(AA) [ANG.]  CN         C6(AA)     C8(AA)   C10(AA) [AU]
  1   1.26532   2.19159   2.83459    6  1.455  3.244        24.8       715.9     25362.9
  2  -1.26532   2.19159   2.83459    6  1.455  3.244        24.8       715.9     25362.9
  3  -2.53063   0.00000   2.83459    6  1.455  3.244        24.8       715.9     25362.9
  4  -1.26532  -2.19159   2.83459    6  1.455  3.244        24.8       715.9     25362.9
  5   1.26532  -2.19159   2.83459    6  1.455  3.244        24.8       715.9     25362.9
  6   2.53063   0.00000  -2.83459    6  1.455  3.244        24.8       715.9     25362.9
  7   1.26532   2.19159  -2.83459    6  1.455  3.244        24.8       715.9     25362.9
  8  -1.26532   2.19159  -2.83459    6  1.455  3.244        24.8       715.9     25362.9
  9  -2.53063   0.00000  -2.83459    6  1.455  3.244        24.8       715.9     25362.9
 10  -1.26532  -2.19159  -2.83459    6  1.455  3.244        24.8       715.9     25362.9
 11   1.26532  -2.19159  -2.83459    6  1.455  3.244        24.8       715.9     25362.9
 12   2.53063   0.00000   2.83459    6  1.455  3.244        24.8       715.9     25362.9
 13   2.18993   3.79308   2.83459    1  1.091  1.019         3.1        37.3       551.8
 14  -2.18993   3.79308   2.83459    1  1.091  1.019         3.1        37.3       551.8
 15  -4.37987   0.00000   2.83459    1  1.091  1.019         3.1        37.3       551.8
 16  -2.18993  -3.79308   2.83459    1  1.091  1.019         3.1        37.3       551.8
 17   2.18993  -3.79308   2.83459    1  1.091  1.019         3.1        37.3       551.8
 18   4.37987   0.00000  -2.83459    1  1.091  1.019         3.1        37.3       551.8
 19   2.18993   3.79308  -2.83459    1  1.091  1.019         3.1        37.3       551.8
 20  -2.18993   3.79308  -2.83459    1  1.091  1.019         3.1        37.3       551.8
 21  -4.37987   0.00000  -2.83459    1  1.091  1.019         3.1        37.3       551.8
 22  -2.18993  -3.79308  -2.83459    1  1.091  1.019         3.1        37.3       551.8
 23   2.18993  -3.79308  -2.83459    1  1.091  1.019         3.1        37.3       551.8
 24   4.37987   0.00000   2.83459    1  1.091  1.019         3.1        37.3       551.8

     MOLECULAR C6(AA) [AU] =      6519.86

           DFT-D V3(BJ)

 FUNCTIONAL: B3LYP   

 PARAMETERS
 S6       :    1.0000
 RS6      :    1.2610
 S18      :    1.7030
 RS18     :    1.0000
 ALPHA6   :   14.0000
 ALPHA8   :   16.0000
 K1-K3    :   16.0000    1.3333    4.0000

 EDISP /KCAL,AU:   -16.1449 -0.02572852

 E6    /KCAL :    -3.6901
 E8    /KCAL :   -12.4548
 % E8        : 77.14
 ..... END OF 1-ELECTRON GRADIENT ......
 STEP CPU TIME =     0.62 TOTAL CPU TIME =       18.0 (    0.3 MIN)
 TOTAL WALL CLOCK TIME=       18.1 SECONDS, CPU UTILIZATION IS  99.61%

          ----------------------
          GRADIENT OF THE ENERGY
          ----------------------
 MEMORY FOR GRID POINT CONTRIBUTIONS TO THE DFT GRADIENT=   1066315 WORDS.
 STEP CPU TIME =     4.74 TOTAL CPU TIME =       22.8 (    0.4 MIN)
 TOTAL WALL CLOCK TIME=       22.9 SECONDS, CPU UTILIZATION IS  99.56%

 THE MINIMUM MEMORY REQUIRED FOR THIS RUN IS     914939 WORDS.
 USING    1890459 WORDS FOR 2E- DERIVATIVE INTEGRAL CONTRIBUTIONS.
 THE COARSE/FINE SCHWARZ SCREENINGS SKIPPED       138293/      161357 BLOCKS.
 THE NUMBER OF GRADIENT INTEGRAL BLOCKS COMPUTED WAS    455360
 ...... END OF 2-ELECTRON GRADIENT ......
 STEP CPU TIME =     2.84 TOTAL CPU TIME =       25.6 (    0.4 MIN)
 TOTAL WALL CLOCK TIME=       25.7 SECONDS, CPU UTILIZATION IS  99.57%

                         ----------------------
                         GRADIENT OF THE ENERGY
                         ----------------------

 UNITS ARE HARTREE/BOHR    E'X               E'Y               E'Z 
    1 C                0.020528920       0.035557133      -0.007919950
    2 C               -0.020528920       0.035557133      -0.007919950
    3 C               -0.041057841       0.000000000      -0.007919950
    4 C               -0.020528920      -0.035557133      -0.007919950
    5 C                0.020528920      -0.035557133      -0.007919950
    6 C                0.041057841       0.000000000       0.007919950
    7 C                0.020528920       0.035557133       0.007919950
    8 C               -0.020528920       0.035557133       0.007919950
    9 C               -0.041057841       0.000000000       0.007919950
   10 C               -0.020528920      -0.035557133       0.007919950
   11 C                0.020528920      -0.035557133       0.007919950
   12 C                0.041057841       0.000000000      -0.007919950
   13 H               -0.054505447      -0.094406204       0.000963549
   14 H                0.054505447      -0.094406204       0.000963549
   15 H                0.109010895       0.000000000       0.000963549
   16 H                0.054505447       0.094406204       0.000963549
   17 H               -0.054505447       0.094406204       0.000963549
   18 H               -0.109010895       0.000000000      -0.000963549
   19 H               -0.054505447      -0.094406204      -0.000963549
   20 H                0.054505447      -0.094406204      -0.000963549
   21 H                0.109010895       0.000000000      -0.000963549
   22 H                0.054505447       0.094406204      -0.000963549
   23 H               -0.054505447       0.094406204      -0.000963549
   24 H               -0.109010895       0.000000000       0.000963549

                   MAXIMUM GRADIENT =    0.109010895
                       RMS GRADIENT =    0.047666857
  $VIB   
          IVIB=   0 IATOM=   0 ICOORD=   0 E=     -464.0414730210
  2.052892047E-02 3.555713327E-02-7.919949699E-03-2.052892047E-02 3.555713327E-02
 -7.919949699E-03-4.105784093E-02 0.000000000E+00-7.919949699E-03-2.052892047E-02
 -3.555713327E-02-7.919949699E-03 2.052892047E-02-3.555713327E-02-7.919949699E-03
  4.105784093E-02 0.000000000E+00 7.919949699E-03 2.052892047E-02 3.555713327E-02
  7.919949699E-03-2.052892047E-02 3.555713327E-02 7.919949699E-03-4.105784093E-02
  0.000000000E+00 7.919949699E-03-2.052892047E-02-3.555713327E-02 7.919949699E-03
  2.052892047E-02-3.555713327E-02 7.919949699E-03 4.105784093E-02 0.000000000E+00
 -7.919949699E-03-5.450544740E-02-9.440620418E-02 9.635487619E-04 5.450544740E-02
 -9.440620418E-02 9.635487619E-04 1.090108948E-01 0.000000000E+00 9.635487619E-04
  5.450544740E-02 9.440620418E-02 9.635487619E-04-5.450544740E-02 9.440620418E-02
  9.635487619E-04-1.090108948E-01 0.000000000E+00-9.635487619E-04-5.450544740E-02
 -9.440620418E-02-9.635487619E-04 5.450544740E-02-9.440620418E-02-9.635487619E-04
  1.090108948E-01 0.000000000E+00-9.635487619E-04 5.450544740E-02 9.440620418E-02
 -9.635487619E-04-5.450544740E-02 9.440620418E-02-9.635487619E-04-1.090108948E-01
  0.000000000E+00 9.635487619E-04
  1.964061287E-13 5.901085221E-13-9.730004766E-13

..... END OF SINGLE POINT GRADIENT .....
 STEP CPU TIME =     0.00 TOTAL CPU TIME =       25.6 (    0.4 MIN)
 TOTAL WALL CLOCK TIME=       25.7 SECONDS, CPU UTILIZATION IS  99.57%
              1906104  WORDS OF DYNAMIC MEMORY USED
 EXECUTION OF GAMESS TERMINATED NORMALLY Wed Aug  9 19:23:52 2017
 DDI: 263640 bytes (0.3 MB / 0 MWords) used by master data server.

 ----------------------------------------
 CPU timing information for all processes
 ========================================
 0: 25.230 + 0.384 = 25.615
 ----------------------------------------
 ddikick.x: exited gracefully.
unset echo
----- accounting info -----
Files used on the master node compute-1-0.local were:
-rw-rw-r-- 1 sarom sarom 2.3K Aug  9 19:23 /scratch/bibenz-dc.F05
-rw-rw-r-- 1 sarom sarom 153M Aug  9 19:23 /scratch/bibenz-dc.F08
-rw-rw-r-- 1 sarom sarom 5.9M Aug  9 19:23 /scratch/bibenz-dc.F10
-rw-rw-r-- 1 sarom sarom 6.0M Aug  9 19:23 /scratch/bibenz-dc.F22
rm: cannot remove `/scratch/tmp': Is a directory
ls: No match.
ls: No match.
ls: No match.
Wed Aug  9 19:23:55 CDT 2017
0.253u 0.178s 0:29.22 1.4%	0+0k 0+360io 0pf+0w
/opt/gridengine/default/spool/compute-1-0/active_jobs/35636.1/pe_hostfile compute-1-0.local
