-catch_rsh /opt/gridengine/default/spool/compute-1-0/active_jobs/36233.1/pe_hostfile
compute-1-0
The primary node assigned by SGE to this run is compute-1-0
Warning: no access to tty (Bad file descriptor).
Thus no job control in this shell.
source /home/sarom/dir.git.branch.saromleang-travis-ci/install.info
setenv GMS_PATH /home/sarom/dir.git.branch.saromleang-travis-ci
setenv GMS_BUILD_DIR /home/sarom/dir.git.branch.saromleang-travis-ci
setenv GMS_TARGET linux64
setenv GMS_FORTRAN gfortran
setenv GMS_GFORTRAN_VERNO 4.4
setenv GMS_MATHLIB mkl-so
setenv GMS_MATHLIB none
setenv GMS_MATHLIB_PATH /share/apps/intel/compilers_and_libraries_2017.1.132/linux/mkl/lib/intel64
setenv GMS_MKL_VERNO 12
setenv GMS_DDI_COMM sockets
setenv GMS_LIBCCHEM false
setenv GMS_EIGEN_PATH
setenv GMS_PHI false
setenv GMS_SHMTYPE sysv
setenv GMS_OPENMP false
unset echo
cis-sf-uhf
/home/sarom/dir.git.branch.saromleang-travis-ci/tests/ci
----- GAMESS execution script 'rungms' -----
This job is running on host compute-1-0.local
under operating system Linux at Wed Aug 9 22:24:11 CDT 2017
Available scratch disk space (Kbyte units) at beginning of the job is
Filesystem           1K-blocks      Used Available Use% Mounted on
/dev/sda1             16126920   9111844   6195876  60% /
GAMESS temporary binary files will be written to /scratch
GAMESS supplementary output files will be written to /home/sarom/restart
Copying input file cis-sf-uhf.inp to your run's scratch directory...
cp /home/sarom/dir.git.branch.saromleang-travis-ci/tests/ci/cis-sf-uhf.inp /scratch/cis-sf-uhf.F05
unset echo
The generated host list is
compute-1-0.local
/home/sarom/dir.git.branch.saromleang-travis-ci/ddikick.x /home/sarom/dir.git.branch.saromleang-travis-ci/gamess.00.x cis-sf-uhf -ddi 1 1 compute-1-0.local -scr /scratch

 Distributed Data Interface kickoff program.
 Initiating 1 compute processes on 1 nodes to run the following command:
 /home/sarom/dir.git.branch.saromleang-travis-ci/gamess.00.x cis-sf-uhf 

          ******************************************************
          *         GAMESS VERSION = 20 APR 2017 (R1)          *
          *             FROM IOWA STATE UNIVERSITY             *
          * M.W.SCHMIDT, K.K.BALDRIDGE, J.A.BOATZ, S.T.ELBERT, *
          *   M.S.GORDON, J.H.JENSEN, S.KOSEKI, N.MATSUNAGA,   *
          *          K.A.NGUYEN, S.J.SU, T.L.WINDUS,           *
          *       TOGETHER WITH M.DUPUIS, J.A.MONTGOMERY       *
          *         J.COMPUT.CHEM.  14, 1347-1363(1993)        *
          **************** 64 BIT LINUX VERSION ****************

  SINCE 1993, STUDENTS AND POSTDOCS WORKING AT IOWA STATE UNIVERSITY
  AND ALSO IN THEIR VARIOUS JOBS AFTER LEAVING ISU HAVE MADE IMPORTANT
  CONTRIBUTIONS TO THE CODE:
     IVANA ADAMOVIC, CHRISTINE AIKENS, YURI ALEXEEV, POOJA ARORA,
     ANDREY ASADCHEV, ROB BELL, PRADIPTA BANDYOPADHYAY, JONATHAN BENTZ,
     BRETT BODE, KURT BRORSEN, CALEB CARLIN, GALINA CHABAN, WEI CHEN,
     CHEOL HO CHOI, PAUL DAY, ALBERT DEFUSCO, NUWAN DESILVA, TIM DUDLEY,
     DMITRI FEDOROV, GRAHAM FLETCHER, MARK FREITAG, KURT GLAESEMANN,
     DAN KEMP, GRANT MERRILL, NORIYUKI MINEZAWA, JONATHAN MULLIN,
     TAKESHI NAGATA, SEAN NEDD, HEATHER NETZLOFF, BOSILJKA NJEGIC, RYAN OLSON,
     MIKE PAK, SPENCER PRUITT, LUKE ROSKOP, JIM SHOEMAKER, LYUDMILA SLIPCHENKO,
     TONY SMITH, SAROM SOK LEANG, JIE SONG, TETSUYA TAKETSUGU, SIMON WEBB,
     PENG XU, SOOHAENG YOO, FEDERICO ZAHARIEV

  ADDITIONAL CODE HAS BEEN PROVIDED BY COLLABORATORS IN OTHER GROUPS:
     IOWA STATE UNIVERSITY:
          JOE IVANIC, AARON WEST, LAIMUTIS BYTAUTAS, KLAUS RUEDENBERG
     UNIVERSITY OF TOKYO: KIMIHIKO HIRAO, TAKAHITO NAKAJIMA,
          TAKAO TSUNEDA, MUNEAKI KAMIYA, SUSUMU YANAGISAWA,
          KIYOSHI YAGI, MAHITO CHIBA, SEIKEN TOKURA, NAOAKI KAWAKAMI
     UNIVERSITY OF AARHUS: FRANK JENSEN
     UNIVERSITY OF IOWA: VISVALDAS KAIRYS, HUI LI
     NATIONAL INST. OF STANDARDS AND TECHNOLOGY: WALT STEVENS, DAVID GARMER
     UNIVERSITY OF PISA: BENEDETTA MENNUCCI, JACOPO TOMASI
     UNIVERSITY OF MEMPHIS: HENRY KURTZ, PRAKASHAN KORAMBATH
     UNIVERSITY OF ALBERTA: TOBY ZENG, MARIUSZ KLOBUKOWSKI
     UNIVERSITY OF NEW ENGLAND: MARK SPACKMAN
     MIE UNIVERSITY: HIROAKI UMEDA
     NAT. INST. OF ADVANCED INDUSTRIAL SCIENCE AND TECHNOLOGY: KAZUO KITAURA
     MICHIGAN STATE UNIVERSITY:
          KAROL KOWALSKI, MARTA WLOCH, JEFFREY GOUR, JESSE LUTZ,
          WEI LI, PIOTR PIECUCH
     UNIVERSITY OF SILESIA: MONIKA MUSIAL, STANISLAW KUCHARSKI
     FACULTES UNIVERSITAIRES NOTRE-DAME DE LA PAIX:
          OLIVIER QUINET, BENOIT CHAMPAGNE
     UNIVERSITY OF CALIFORNIA - SANTA BARBARA: BERNARD KIRTMAN
     INSTITUTE FOR MOLECULAR SCIENCE:
          KAZUYA ISHIMURA, MICHIO KATOUDA, AND SHIGERU NAGASE
     UNIVERSITY OF NOTRE DAME: ANNA POMOGAEVA, DAN CHIPMAN
     KYUSHU UNIVERSITY:
          HARUYUKI NAKANO,
          FENG LONG GU, JACEK KORCHOWIEC, MARCIN MAKOWSKI, AND YURIKO AOKI,
          HIROTOSHI MORI AND EISAKU MIYOSHI
     PENNSYLVANIA STATE UNIVERSITY:
          TZVETELIN IORDANOV, CHET SWALINA, JONATHAN SKONE,
          SHARON HAMMES-SCHIFFER
     WASEDA UNIVERSITY:
          MASATO KOBAYASHI, TOMOKO AKAMA, TSUGUKI TOUMA,
          TAKESHI YOSHIKAWA, YASUHIRO IKABATA, JUNJI SEINO,
          YUYA NAKAJIMA, HIROMI NAKAI
     NANJING UNIVERSITY: SHUHUA LI
     UNIVERSITY OF NEBRASKA:
          PEIFENG SU, DEJUN SI, NANDUN THELLAMUREGE, YALI WANG, HUI LI
     UNIVERSITY OF ZURICH: ROBERTO PEVERATI, KIM BALDRIDGE
     N. COPERNICUS UNIVERSITY AND JACKSON STATE UNIVERSITY:
          MARIA BARYSZ
     UNIVERSITY OF COPENHAGEN: Jimmy Kromann, CASPER STEINMANN
     TOKYO INSTITUTE OF TECHNOLOGY: HIROYA NAKATA
     NAGOYA UNIVERSITY: YOSHIO NISHIMOTO, STEPHAN IRLE
     MOSCOW STATE UNIVERSITY: VLADIMIR MIRONOV

 EXECUTION OF GAMESS BEGUN Wed Aug  9 22:24:11 2017

            ECHO OF THE FIRST FEW INPUT CARDS -
 INPUT CARD>!   Difluoroethene...spin-flip CIS test...test from Noriyuki 4/2011             
 INPUT CARD>!   the reference state is UHF type, target state is the ground state.          
 INPUT CARD>!                                                                               
 INPUT CARD>!   reference triplet state FINAL E= -273.7253221160, 15 iters, s**2=2.067      
 INPUT CARD>!   the spin-flip CIS states are                                                
 INPUT CARD>!      STATE             ENERGY     EXCITATION     S-SQUARED                    
 INPUT CARD>!            1 NEGATIVE ROOT(S) FOUND.                                          
 INPUT CARD>!      1  A         -273.8941634857   -4.594        0.0779                      
 INPUT CARD>!      0  A         -273.7253221160    0.000               (REFERENCE STATE)    
 INPUT CARD>!      2  A         -273.7144528166    0.296        2.1511                      
 INPUT CARD>!      3  A         -273.6577470498    1.839        1.0435                      
 INPUT CARD>!      4  A         -273.6090067634    3.165        1.0349                      
 INPUT CARD>!      5  A         -273.5219849937    5.533        1.0541                      
 INPUT CARD>!   and the target state 1's RMS gradient=  0.322903102, mu= 0.473612 Debye     
 INPUT CARD>!                                                                               
 INPUT CARD>!   since TD-DFT with no functional is equivalent to CIS (w/o frozen core),     
 INPUT CARD>!   the SF-TD-DFT run gives r.m.s. gradient 0.322903091                         
 INPUT CARD>!                                                                               
 INPUT CARD>!   This run takes 0 seconds on 2.66 GHz Cloverton (13 Apr 2015)                
 INPUT CARD>!   results have not changed since 2011                                         
 INPUT CARD>!                                                                               
 INPUT CARD> $CONTRL SCFTYP=UHF MULT=3 RUNTYP=GRADIENT CITYP=SFCIS              $END        
 INPUT CARD>x$CONTRL SCFTYP=UHF MULT=3 RUNTYP=GRADIENT DFTTYP=NONE TDDFT=SPNFLP $END        
 INPUT CARD> $SYSTEM MWORDS=1 $END                                                          
 INPUT CARD>!-----------------------------------------------------------------------        
 INPUT CARD>! Wave function                                                                 
 INPUT CARD>!-----------------------------------------------------------------------        
 INPUT CARD> $GUESS GUESS=HUCKEL $END                                                       
 INPUT CARD> $BASIS GBASIS=N21 NGAUSS=3 $END                                                
 INPUT CARD> $CIS   NSTATE=5 IROOT=1 MULT=1 $END                                            
 INPUT CARD> $TDDFT NSTATE=5 IROOT=1 MULT=1 $END                                            
 INPUT CARD>!-----------------------------------------------------------------------        
 INPUT CARD>! Geometry                                                                      
 INPUT CARD>!-----------------------------------------------------------------------        
 INPUT CARD> $DATA                                                                          
 INPUT CARD>cis-DFE Gas RO-SF-CIS/3-21G S0                                                  
 INPUT CARD>C1                                                                              
 INPUT CARD>C     6.0  -0.0000000000   0.6505243427  -0.0165521420                          
 INPUT CARD>C     6.0   0.0000000000  -0.6505243428  -0.0165521421                          
 INPUT CARD>F     9.0  -0.0000000000   1.2156446665  -0.9192030778                          
 INPUT CARD>F     9.0   0.0000000000  -1.2156446664  -0.9192030780                          
 INPUT CARD>H     1.0  -0.0000000000  -1.3965430797   1.1178852200                          
 INPUT CARD>H     1.0   0.0000000000   1.3965430798   1.1178852199                          
 INPUT CARD> $END                                                                           
    1000000 WORDS OF MEMORY AVAILABLE

     BASIS OPTIONS
     -------------
     GBASIS=N21          IGAUSS=       3      POLAR=NONE    
     NDFUNC=       0     NFFUNC=       0     DIFFSP=       F
     NPFUNC=       0      DIFFS=       F     BASNAM=        


     RUN TITLE
     ---------
 cis-DFE Gas RO-SF-CIS/3-21G S0                                                  

 THE POINT GROUP OF THE MOLECULE IS C1      
 THE ORDER OF THE PRINCIPAL AXIS IS     0

 ATOM      ATOMIC                      COORDINATES (BOHR)
           CHARGE         X                   Y                   Z
 C           6.0    -0.0000000000        1.2293127560       -0.0312790129
 C           6.0     0.0000000000       -1.2293127562       -0.0312790131
 F           9.0    -0.0000000000        2.2972353181       -1.7370419441
 F           9.0     0.0000000000       -2.2972353179       -1.7370419445
 H           1.0    -0.0000000000       -2.6390837507        2.1124967515
 H           1.0     0.0000000000        2.6390837509        2.1124967513

          INTERNUCLEAR DISTANCES (ANGS.)
          ------------------------------

                1 C          2 C          3 F          4 F          5 H     

   1 C       0.0000000    1.3010487 *  1.0649599 *  2.0730088 *  2.3403917 *
   2 C       1.3010487 *  0.0000000    2.0730088 *  1.0649599 *  1.3577526 *
   3 F       1.0649599 *  2.0730088 *  0.0000000    2.4312893 *  3.3125902  
   4 F       2.0730088 *  1.0649599 *  2.4312893 *  0.0000000    2.0451046 *
   5 H       2.3403917 *  1.3577526 *  3.3125902    2.0451046 *  0.0000000  
   6 H       1.3577526 *  2.3403917 *  2.0451046 *  3.3125902    2.7930862 *

                6 H     

   1 C       1.3577526 *
   2 C       2.3403917 *
   3 F       2.0451046 *
   4 F       3.3125902  
   5 H       2.7930862 *
   6 H       0.0000000  

  * ... LESS THAN  3.000


     ATOMIC BASIS SET
     ----------------
 THE CONTRACTED PRIMITIVE FUNCTIONS HAVE BEEN UNNORMALIZED
 THE CONTRACTED BASIS FUNCTIONS ARE NOW NORMALIZED TO UNITY

  SHELL TYPE  PRIMITIVE        EXPONENT          CONTRACTION COEFFICIENT(S)

 C         

      1   S       1           172.2560000    0.061766907377
      1   S       2            25.9109000    0.358794042852
      1   S       3             5.5333500    0.700713083689

      2   L       4             3.6649800   -0.395895162119    0.236459946619
      2   L       5             0.7705450    1.215834355681    0.860618805716

      3   L       6             0.1958570    1.000000000000    1.000000000000

 C         

      4   S       7           172.2560000    0.061766907377
      4   S       8            25.9109000    0.358794042852
      4   S       9             5.5333500    0.700713083689

      5   L      10             3.6649800   -0.395895162119    0.236459946619
      5   L      11             0.7705450    1.215834355681    0.860618805716

      6   L      12             0.1958570    1.000000000000    1.000000000000

 F         

      7   S      13           413.8010000    0.058548302929
      7   S      14            62.2446000    0.349308017477
      7   S      15            13.4340000    0.709632035505

      8   L      16             9.7775900   -0.407326277682    0.246680003198
      8   L      17             2.0861700    1.223137830990    0.852321011049

      9   L      18             0.4823830    1.000000000000    1.000000000000

 F         

     10   S      19           413.8010000    0.058548302929
     10   S      20            62.2446000    0.349308017477
     10   S      21            13.4340000    0.709632035505

     11   L      22             9.7775900   -0.407326277682    0.246680003198
     11   L      23             2.0861700    1.223137830990    0.852321011049

     12   L      24             0.4823830    1.000000000000    1.000000000000

 H         

     13   S      25             5.4471780    0.156284978695
     13   S      26             0.8245472    0.904690876670

     14   S      27             0.1831916    1.000000000000

 H         

     15   S      28             5.4471780    0.156284978695
     15   S      29             0.8245472    0.904690876670

     16   S      30             0.1831916    1.000000000000

 TOTAL NUMBER OF BASIS SET SHELLS             =   16
 NUMBER OF CARTESIAN GAUSSIAN BASIS FUNCTIONS =   40
 NUMBER OF ELECTRONS                          =   32
 CHARGE OF MOLECULE                           =    0
 SPIN MULTIPLICITY                            =    3
 NUMBER OF OCCUPIED ORBITALS (ALPHA)          =   17
 NUMBER OF OCCUPIED ORBITALS (BETA )          =   15
 TOTAL NUMBER OF ATOMS                        =    6
 THE NUCLEAR REPULSION ENERGY IS      128.6191355931

     $CONTRL OPTIONS
     ---------------
 SCFTYP=UHF          RUNTYP=GRADIENT     EXETYP=RUN     
 MPLEVL=       0     CITYP =SFCIS        CCTYP =NONE         VBTYP =NONE    
 DFTTYP=NONE         TDDFT =NONE    
 MULT  =       3     ICHARG=       0     NZVAR =       0     COORD =UNIQUE  
 PP    =NONE         RELWFN=NONE         LOCAL =NONE         NUMGRD=       F
 ISPHER=      -1     NOSYM =       0     MAXIT =      30     UNITS =ANGS    
 PLTORB=       F     MOLPLT=       F     AIMPAC=       F     FRIEND=        
 NPRINT=       7     IREST =       0     GEOM  =INPUT   
 NORMF =       0     NORMP =       0     ITOL  =      20     ICUT  =       9
 INTTYP=BEST         GRDTYP=BEST         QMTTOL= 1.0E-06

     $SYSTEM OPTIONS
     ---------------
  REPLICATED MEMORY=     1000000 WORDS (ON EVERY NODE).
 DISTRIBUTED MEMDDI=           0 MILLION WORDS IN AGGREGATE,
 MEMDDI DISTRIBUTED OVER   1 PROCESSORS IS           0 WORDS/PROCESSOR.
 TOTAL MEMORY REQUESTED ON EACH PROCESSOR=     1000000 WORDS.
 TIMLIM=      525600.00 MINUTES, OR     365.0 DAYS.
 PARALL= F  BALTYP=  DLB     KDIAG=    0  COREFL= F
 MXSEQ2=     300 MXSEQ3=     150  mem10=         0

          ----------------
          PROPERTIES INPUT
          ----------------

     MOMENTS            FIELD           POTENTIAL          DENSITY
 IEMOM =       1   IEFLD =       0   IEPOT =       0   IEDEN =       0
 WHERE =COMASS     WHERE =NUCLEI     WHERE =NUCLEI     WHERE =NUCLEI  
 OUTPUT=BOTH       OUTPUT=BOTH       OUTPUT=BOTH       OUTPUT=BOTH    
 IEMINT=       0   IEFINT=       0                     IEDINT=       0
                                                       MORB  =       0
          EXTRAPOLATION IN EFFECT
          SOSCF IN EFFECT
          DIIS or SOSCF will be reset if energy rises
 ORBITAL PRINTING OPTION: NPREO=     1    40     2     1

     -------------------------------
     INTEGRAL TRANSFORMATION OPTIONS
     -------------------------------
     NWORD  =            0
     CUTOFF = 1.0E-09     MPTRAN =       0
     DIRTRF =       F     AOINTS =DUP     

          ----------------------
          INTEGRAL INPUT OPTIONS
          ----------------------
 NOPK  =       1 NORDER=       0 SCHWRZ=       T

     ------------------------------
     CI-SINGLES CONTROL INFORMATION
     ------------------------------
     NACORE =        4  NBCORE   =        4
     NSTATE =        5  IROOT    =        1
     HAMTYP = SAPS      SAP MULT =        1
     DIAGZN = DAVID     MXVEC    =       40
     NDAVIT =       50  DAVCVG   = 5.00E-06
     CISPRP =        F  NGSVEC   =       10
     MNMEDG =        F  MNMEOP   =        F
     CHFSLV = CONJG     RDCISV   =        F
     DGAPRX =        T

     NUMBER OF CORE -A-  ORBITALS =     4
     NUMBER OF CORE -B-  ORBITALS =     4
     NUMBER OF OCC. -A-  ORBITALS =    17
     NUMBER OF OCC. -B-  ORBITALS =    15
     NUMBER OF MOLECULAR ORBITALS =    40
     NUMBER OF   BASIS  FUNCTIONS =    40


     ------------------------------------------
     THE POINT GROUP IS C1 , NAXIS= 0, ORDER= 1
     ------------------------------------------

     DIMENSIONS OF THE SYMMETRY SUBSPACES ARE
 A   =   40

 ..... DONE SETTING UP THE RUN .....
 STEP CPU TIME =     0.02 TOTAL CPU TIME =        0.0 (    0.0 MIN)
 TOTAL WALL CLOCK TIME=        0.0 SECONDS, CPU UTILIZATION IS  66.67%

                    --------------------------------
                    SINGLE POINT ENERGY AND GRADIENT
                    --------------------------------

          ********************
          1 ELECTRON INTEGRALS
          ********************
 ...... END OF ONE-ELECTRON INTEGRALS ......
 STEP CPU TIME =     0.00 TOTAL CPU TIME =        0.0 (    0.0 MIN)
 TOTAL WALL CLOCK TIME=        0.0 SECONDS, CPU UTILIZATION IS  50.00%

          -------------
          GUESS OPTIONS
          -------------
          GUESS =HUCKEL            NORB  =       0          NORDER=       0
          MIX   =       F          PRTMO =       F          PUNMO =       F
          TOLZ  = 1.0E-08          TOLE  = 1.0E-05
          SYMDEN=       F          PURIFY=       F

 INITIAL GUESS ORBITALS GENERATED BY HUCKEL   ROUTINE.
 HUCKEL GUESS REQUIRES     18154 WORDS.

 SYMMETRIES FOR INITIAL GUESS ORBITALS FOLLOW.  ALPHA SET(S).
    17 ORBITALS ARE OCCUPIED (    4 CORE ORBITALS).
     5=A        6=A        7=A        8=A        9=A       10=A       11=A   
    12=A       13=A       14=A       15=A       16=A       17=A       18=A   
    19=A       20=A       21=A       22=A       23=A       24=A       25=A   
    26=A       27=A   

 SYMMETRIES FOR INITIAL GUESS ORBITALS FOLLOW.   BETA SET(S).
    15 ORBITALS ARE OCCUPIED (    4 CORE ORBITALS).
     5=A        6=A        7=A        8=A        9=A       10=A       11=A   
    12=A       13=A       14=A       15=A       16=A       17=A       18=A   
    19=A       20=A       21=A       22=A       23=A       24=A       25=A   
 ...... END OF INITIAL ORBITAL SELECTION ......
 STEP CPU TIME =     0.00 TOTAL CPU TIME =        0.0 (    0.0 MIN)
 TOTAL WALL CLOCK TIME=        0.0 SECONDS, CPU UTILIZATION IS  50.00%

                    ----------------------
                    AO INTEGRAL TECHNOLOGY
                    ----------------------
     S,P,L SHELL ROTATED AXIS INTEGRALS, REPROGRAMMED BY
        KAZUYA ISHIMURA (IMS) AND JOSE SIERRA (SYNSTAR).
     S,P,D,L SHELL ROTATED AXIS INTEGRALS PROGRAMMED BY
        KAZUYA ISHIMURA (INSTITUTE FOR MOLECULAR SCIENCE).
     S,P,D,F,G SHELL TO TOTAL QUARTET ANGULAR MOMENTUM SUM 5,
        ERIC PROGRAM BY GRAHAM FLETCHER (ELORET AND NASA ADVANCED
        SUPERCOMPUTING DIVISION, AMES RESEARCH CENTER).
     S,P,D,F,G,L SHELL GENERAL RYS QUADRATURE PROGRAMMED BY
        MICHEL DUPUIS (PACIFIC NORTHWEST NATIONAL LABORATORY).

          --------------------
          2 ELECTRON INTEGRALS
          --------------------

 THE -PK- OPTION IS OFF, THE INTEGRALS ARE NOT IN SUPERMATRIX FORM.
 STORING   15000 INTEGRALS/RECORD ON DISK, USING 12 BYTES/INTEGRAL.
 TWO ELECTRON INTEGRAL EVALUATION REQUIRES   89492 WORDS OF MEMORY.
 SCHWARZ INEQUALITY OVERHEAD:       817 INTEGRALS, T=        0.00
 II,JST,KST,LST =  1  1  1  1 NREC =         1 INTLOC =    1
 II,JST,KST,LST =  2  1  1  1 NREC =         1 INTLOC =    2
 II,JST,KST,LST =  3  1  1  1 NREC =         1 INTLOC =   34
 II,JST,KST,LST =  4  1  1  1 NREC =         1 INTLOC =  214
 II,JST,KST,LST =  5  1  1  1 NREC =         1 INTLOC =  403
 II,JST,KST,LST =  6  1  1  1 NREC =         1 INTLOC = 1662
 II,JST,KST,LST =  7  1  1  1 NREC =         1 INTLOC = 4344
 II,JST,KST,LST =  8  1  1  1 NREC =         1 INTLOC = 6208
 II,JST,KST,LST =  9  1  1  1 NREC =         2 INTLOC = 1545
 II,JST,KST,LST = 10  1  1  1 NREC =         3 INTLOC = 4234
 II,JST,KST,LST = 11  1  1  1 NREC =         3 INTLOC = 8686
 II,JST,KST,LST = 12  1  1  1 NREC =         5 INTLOC = 1725
 II,JST,KST,LST = 13  1  1  1 NREC =         7 INTLOC =11514
 II,JST,KST,LST = 14  1  1  1 NREC =         8 INTLOC = 8243
 II,JST,KST,LST = 15  1  1  1 NREC =         9 INTLOC = 8623
 II,JST,KST,LST = 16  1  1  1 NREC =        10 INTLOC = 7669
 SCHWARZ INEQUALITY TEST SKIPPED        1700 INTEGRAL BLOCKS.
 TOTAL NUMBER OF NONZERO TWO-ELECTRON INTEGRALS =              160916
         11 INTEGRAL RECORDS WERE STORED ON DISK FILE  8.
  ...... END OF TWO-ELECTRON INTEGRALS .....
 STEP CPU TIME =     0.03 TOTAL CPU TIME =        0.0 (    0.0 MIN)
 TOTAL WALL CLOCK TIME=        0.1 SECONDS, CPU UTILIZATION IS  71.43%

          ---------------------------
                  UHF SCF CALCULATION
          ---------------------------

     NUCLEAR ENERGY =       128.6191355931
     MAXIT = 30     NPUNCH=  2     MULT=  3
     EXTRAP=T  DAMP=F  SHIFT=F  RSTRCT=F  DIIS=F  SOSCF=T
     DENSITY MATRIX CONV=  1.00E-06
     SOSCF WILL OPTIMIZE     391 ALPHA AND     375 BETA ROTATION ANGLES.
     SOGTOL= 2.500E-01
     MEMORY REQUIRED FOR UHF/ROHF ITERS=     52002 WORDS.

 ITER EX      TOTAL ENERGY        E CHANGE  DENSITY CHANGE    ORB. GRAD 
   1  0     -272.7756012120  -272.7756012120   0.636113508   0.000000000
          ---------------START SECOND ORDER SCF---------------
   2  1     -273.6650313365    -0.8894301245   0.151958510   0.074297410
   3  2     -273.7128757432    -0.0478444066   0.064529858   0.047902889
   4  3     -273.7227994875    -0.0099237444   0.040016770   0.013686856
   5  4     -273.7243920432    -0.0015925557   0.029433949   0.006088889
   6  5     -273.7250021364    -0.0006100932   0.015052190   0.003512083
   7  6     -273.7252092624    -0.0002071260   0.010246702   0.002985331
   8  7     -273.7253000420    -0.0000907796   0.003337925   0.001420618
   9  8     -273.7253193543    -0.0000193123   0.000873487   0.000578526
  10  9     -273.7253218714    -0.0000025171   0.000550735   0.000208246
  11 10     -273.7253220893    -0.0000002179   0.000225673   0.000067255
  12 11     -273.7253221141    -0.0000000249   0.000036475   0.000012529
  13 12     -273.7253221159    -0.0000000018   0.000006372   0.000002276
  14 13     -273.7253221160    -0.0000000001   0.000001959   0.000000584
  15 14     -273.7253221160    -0.0000000000   0.000000551   0.000000232

          -----------------
          DENSITY CONVERGED
          -----------------
     TIME TO FORM FOCK OPERATORS=       0.0 SECONDS (       0.0 SEC/ITER)
     TIME TO SOLVE SCF EQUATIONS=       0.0 SECONDS (       0.0 SEC/ITER)

 FINAL UHF ENERGY IS     -273.7253221160 AFTER  15 ITERATIONS

          --------------------
          SPIN SZ   =    1.000
          S-SQUARED =    2.067
          --------------------

  ----- ALPHA SET ----- 

          ------------
          EIGENVECTORS
          ------------

                      1          2          3          4          5
                  -26.2515   -26.2509   -11.2613   -11.2610    -1.8687
                     A          A          A          A          A   
    1  C  1  S   -0.000271   0.000470  -0.697291   0.696959  -0.083816
    2  C  1  S   -0.001459   0.001335  -0.073920   0.066967   0.083846
    3  C  1  X    0.000000   0.000000   0.000000   0.000000   0.000000
    4  C  1  Y   -0.001524   0.001846   0.000519   0.003691   0.032320
    5  C  1  Z    0.001980  -0.001821   0.004147  -0.004054  -0.092937
    6  C  1  S   -0.020876   0.010237   0.057352  -0.017793   0.024999
    7  C  1  X    0.000000   0.000000   0.000000   0.000000   0.000000
    8  C  1  Y    0.000493   0.003788  -0.020966   0.000213  -0.019187
    9  C  1  Z    0.020407  -0.006117   0.005038  -0.001903   0.021993
   10  C  2  S    0.000271   0.000470   0.697292   0.696959  -0.083816
   11  C  2  S    0.001459   0.001335   0.073920   0.066967   0.083846
   12  C  2  X    0.000000   0.000000   0.000000   0.000000   0.000000
   13  C  2  Y   -0.001524  -0.001846   0.000519  -0.003691  -0.032320
   14  C  2  Z   -0.001980  -0.001821  -0.004147  -0.004054  -0.092937
   15  C  2  S    0.020876   0.010237  -0.057352  -0.017793   0.024999
   16  C  2  X    0.000000   0.000000   0.000000   0.000000   0.000000
   17  C  2  Y    0.000493  -0.003788  -0.020966  -0.000213   0.019187
   18  C  2  Z   -0.020407  -0.006117  -0.005038  -0.001903   0.021993
   19  F  3  S   -0.694672   0.694469   0.000096  -0.000190  -0.161837
   20  F  3  S   -0.072631   0.070998  -0.001340   0.000311   0.156466
   21  F  3  X    0.000000   0.000000   0.000000   0.000000   0.000000
   22  F  3  Y    0.001485  -0.001649  -0.000251   0.000488  -0.053292
   23  F  3  Z   -0.002210   0.002266   0.000202  -0.000253   0.073781
   24  F  3  S    0.039932  -0.031756   0.004968  -0.003237   0.492747
   25  F  3  X    0.000000   0.000000   0.000000   0.000000   0.000000
   26  F  3  Y   -0.005196   0.004495  -0.002300   0.002353  -0.053206
   27  F  3  Z    0.006857  -0.006108   0.005776  -0.005715   0.068176
   28  F  4  S    0.694672   0.694469  -0.000096  -0.000190  -0.161837
   29  F  4  S    0.072631   0.070998   0.001340   0.000311   0.156466
   30  F  4  X    0.000000   0.000000   0.000000   0.000000   0.000000
   31  F  4  Y    0.001485   0.001649  -0.000251  -0.000488   0.053292
   32  F  4  Z    0.002210   0.002266  -0.000202  -0.000253   0.073781
   33  F  4  S   -0.039932  -0.031756  -0.004968  -0.003237   0.492747
   34  F  4  X    0.000000   0.000000   0.000000   0.000000   0.000000
   35  F  4  Y   -0.005196  -0.004495  -0.002300  -0.002353   0.053206
   36  F  4  Z   -0.006857  -0.006108  -0.005776  -0.005715   0.068176
   37  H  5  S    0.000984  -0.000552   0.001031  -0.000634   0.005712
   38  H  5  S    0.002953   0.000294   0.004046   0.004963  -0.005037
   39  H  6  S   -0.000984  -0.000552  -0.001031  -0.000634   0.005712
   40  H  6  S   -0.002953   0.000294  -0.004046   0.004963  -0.005037

                      6          7          8          9         10
                   -1.8408    -1.0954    -0.9386    -0.8994    -0.8985
                     A          A          A          A          A   
    1  C  1  S   -0.071807   0.140000   0.090114  -0.029404  -0.000000
    2  C  1  S    0.068538  -0.179209  -0.108885   0.045077  -0.000000
    3  C  1  X    0.000000  -0.000000  -0.000000  -0.000000   0.201667
    4  C  1  Y    0.062898   0.176676  -0.113103   0.204366  -0.000000
    5  C  1  Z   -0.089205   0.022613   0.086849  -0.028142  -0.000000
    6  C  1  S    0.001322  -0.260703  -0.220799   0.029147  -0.000000
    7  C  1  X    0.000000  -0.000000  -0.000000  -0.000000   0.115450
    8  C  1  Y   -0.008090   0.064708   0.036666   0.081477  -0.000000
    9  C  1  Z    0.088969  -0.010974  -0.086497   0.065071  -0.000000
   10  C  2  S    0.071807   0.140000  -0.090114  -0.029404  -0.000000
   11  C  2  S   -0.068538  -0.179209   0.108885   0.045077  -0.000000
   12  C  2  X    0.000000  -0.000000  -0.000000  -0.000000   0.201667
   13  C  2  Y    0.062898  -0.176676  -0.113103  -0.204366  -0.000000
   14  C  2  Z    0.089205   0.022613  -0.086849  -0.028142  -0.000000
   15  C  2  S   -0.001322  -0.260703   0.220799   0.029147  -0.000000
   16  C  2  X    0.000000  -0.000000  -0.000000  -0.000000   0.115450
   17  C  2  Y   -0.008090  -0.064708   0.036666  -0.081477  -0.000000
   18  C  2  Z   -0.088969  -0.010974   0.086497   0.065071  -0.000000
   19  F  3  S   -0.168349  -0.071367  -0.069899   0.034671  -0.000000
   20  F  3  S    0.158488   0.065017   0.068362  -0.032033  -0.000000
   21  F  3  X    0.000000  -0.000000  -0.000000  -0.000000   0.328229
   22  F  3  Y   -0.048047   0.137465   0.116839   0.090090  -0.000000
   23  F  3  Z    0.076389  -0.068442  -0.292487   0.311864  -0.000000
   24  F  3  S    0.544375   0.293888   0.273779  -0.140853  -0.000000
   25  F  3  X    0.000000  -0.000000  -0.000000  -0.000000   0.318074
   26  F  3  Y   -0.051009   0.113018   0.103069   0.093983  -0.000000
   27  F  3  Z    0.072120  -0.058593  -0.268607   0.296063  -0.000000
   28  F  4  S    0.168349  -0.071367   0.069899   0.034671  -0.000000
   29  F  4  S   -0.158488   0.065017  -0.068362  -0.032033  -0.000000
   30  F  4  X    0.000000  -0.000000  -0.000000  -0.000000   0.328229
   31  F  4  Y   -0.048047  -0.137465   0.116839  -0.090090  -0.000000
   32  F  4  Z   -0.076389  -0.068442   0.292487   0.311864  -0.000000
   33  F  4  S   -0.544375   0.293888  -0.273779  -0.140853  -0.000000
   34  F  4  X    0.000000  -0.000000  -0.000000  -0.000000   0.318074
   35  F  4  Y   -0.051009  -0.113018   0.103069  -0.093983  -0.000000
   36  F  4  Z   -0.072120  -0.058593   0.268607   0.296063  -0.000000
   37  H  5  S    0.000452  -0.024773   0.025211   0.030403  -0.000000
   38  H  5  S    0.017325   0.003130  -0.003416  -0.000777  -0.000000
   39  H  6  S   -0.000452  -0.024773  -0.025211   0.030403  -0.000000
   40  H  6  S   -0.017325   0.003130   0.003416  -0.000777  -0.000000

                     11         12         13         14         15
                   -0.8507    -0.8337    -0.7968    -0.5285    -0.4650
                     A          A          A          A          A   
    1  C  1  S   -0.000000   0.050714  -0.004081   0.075289   0.006507
    2  C  1  S   -0.000000  -0.049049   0.001833  -0.056577  -0.042503
    3  C  1  X    0.140977   0.000000  -0.000000  -0.000000  -0.000000
    4  C  1  Y   -0.000000   0.100239   0.068962  -0.038405   0.263271
    5  C  1  Z   -0.000000  -0.219092   0.123005  -0.189891   0.139550
    6  C  1  S   -0.000000  -0.236858  -0.034121  -0.544229   0.049963
    7  C  1  X    0.105646   0.000000  -0.000000  -0.000000  -0.000000
    8  C  1  Y   -0.000000  -0.025899   0.142005   0.029007   0.142172
    9  C  1  Z   -0.000000  -0.082670   0.043320  -0.167261   0.107145
   10  C  2  S   -0.000000   0.050714   0.004081  -0.075289   0.006507
   11  C  2  S   -0.000000  -0.049049  -0.001833   0.056577  -0.042503
   12  C  2  X   -0.140977   0.000000  -0.000000  -0.000000  -0.000000
   13  C  2  Y   -0.000000  -0.100239   0.068962  -0.038405  -0.263271
   14  C  2  Z   -0.000000  -0.219092  -0.123005   0.189891   0.139550
   15  C  2  S   -0.000000  -0.236858   0.034121   0.544229   0.049963
   16  C  2  X   -0.105646   0.000000  -0.000000  -0.000000  -0.000000
   17  C  2  Y   -0.000000   0.025899   0.142005   0.029007  -0.142172
   18  C  2  Z   -0.000000  -0.082670  -0.043320   0.167261   0.107145
   19  F  3  S   -0.000000   0.023012  -0.005738  -0.011958   0.000923
   20  F  3  S   -0.000000  -0.024876   0.007987   0.009438  -0.003291
   21  F  3  X    0.369700   0.000000  -0.000000  -0.000000  -0.000000
   22  F  3  Y   -0.000000  -0.262044   0.347871   0.084314  -0.202014
   23  F  3  Z   -0.000000   0.087800   0.108241   0.170392  -0.109923
   24  F  3  S   -0.000000  -0.083344   0.006654   0.077040   0.001051
   25  F  3  X    0.365388   0.000000  -0.000000  -0.000000  -0.000000
   26  F  3  Y   -0.000000  -0.265697   0.347756   0.099691  -0.266265
   27  F  3  Z   -0.000000   0.080064   0.108234   0.207216  -0.150363
   28  F  4  S   -0.000000   0.023012   0.005738   0.011958   0.000923
   29  F  4  S   -0.000000  -0.024876  -0.007987  -0.009438  -0.003291
   30  F  4  X   -0.369700   0.000000  -0.000000  -0.000000  -0.000000
   31  F  4  Y   -0.000000   0.262044   0.347871   0.084314   0.202014
   32  F  4  Z   -0.000000   0.087800  -0.108241  -0.170392  -0.109923
   33  F  4  S   -0.000000  -0.083344  -0.006654  -0.077040   0.001051
   34  F  4  X   -0.365388   0.000000  -0.000000  -0.000000  -0.000000
   35  F  4  Y   -0.000000   0.265697   0.347756   0.099691   0.266265
   36  F  4  Z   -0.000000   0.080064  -0.108234  -0.207216  -0.150363
   37  H  5  S   -0.000000  -0.057053  -0.037755   0.155605   0.145462
   38  H  5  S   -0.000000  -0.027716  -0.019784   0.177225   0.220208
   39  H  6  S   -0.000000  -0.057053   0.037755  -0.155605   0.145462
   40  H  6  S   -0.000000  -0.027716   0.019784  -0.177225   0.220208

                     16         17         18         19         20
                   -0.4552    -0.1702     0.2357     0.2657     0.4029
                     A          A          A          A          A   
    1  C  1  S   -0.000000   0.000000   0.048910   0.107755  -0.039457
    2  C  1  S   -0.000000   0.000000  -0.011063  -0.055591  -0.050114
    3  C  1  X    0.353670   0.440565  -0.000000  -0.000000   0.000000
    4  C  1  Y   -0.000000   0.000000  -0.175494  -0.042910   0.117300
    5  C  1  Z   -0.000000   0.000000  -0.217242  -0.157561  -0.032050
    6  C  1  S   -0.000000   0.000000  -0.474057  -1.215855   0.980504
    7  C  1  X    0.319832   0.650601  -0.000000  -0.000000   0.000000
    8  C  1  Y   -0.000000   0.000000  -0.227045  -0.029024   0.629288
    9  C  1  Z   -0.000000   0.000000  -0.462582  -0.450320  -0.554554
   10  C  2  S   -0.000000   0.000000   0.048910  -0.107755  -0.039457
   11  C  2  S   -0.000000   0.000000  -0.011063   0.055591  -0.050114
   12  C  2  X    0.353670  -0.440565  -0.000000  -0.000000   0.000000
   13  C  2  Y   -0.000000   0.000000   0.175494  -0.042910  -0.117300
   14  C  2  Z   -0.000000   0.000000  -0.217242   0.157561  -0.032050
   15  C  2  S   -0.000000   0.000000  -0.474056   1.215855   0.980504
   16  C  2  X    0.319832  -0.650601  -0.000000  -0.000000   0.000000
   17  C  2  Y   -0.000000   0.000000   0.227045  -0.029024  -0.629288
   18  C  2  Z   -0.000000   0.000000  -0.462582   0.450320  -0.554554
   19  F  3  S   -0.000000   0.000000   0.013515  -0.018748   0.081523
   20  F  3  S   -0.000000   0.000000  -0.006409   0.016617  -0.032962
   21  F  3  X   -0.243473  -0.188703  -0.000000  -0.000000   0.000000
   22  F  3  Y   -0.000000   0.000000   0.094547  -0.009704   0.054884
   23  F  3  Z   -0.000000   0.000000   0.036675   0.071928  -0.090037
   24  F  3  S   -0.000000   0.000000  -0.128235   0.137784  -0.907968
   25  F  3  X   -0.320193  -0.293412  -0.000000  -0.000000   0.000000
   26  F  3  Y   -0.000000   0.000000   0.175716  -0.008441   0.131868
   27  F  3  Z   -0.000000   0.000000   0.063923   0.140606  -0.289369
   28  F  4  S   -0.000000   0.000000   0.013515   0.018748   0.081523
   29  F  4  S   -0.000000   0.000000  -0.006409  -0.016617  -0.032962
   30  F  4  X   -0.243473   0.188703  -0.000000  -0.000000   0.000000
   31  F  4  Y   -0.000000   0.000000  -0.094547  -0.009704  -0.054884
   32  F  4  Z   -0.000000   0.000000   0.036675  -0.071928  -0.090037
   33  F  4  S   -0.000000   0.000000  -0.128235  -0.137784  -0.907968
   34  F  4  X   -0.320193   0.293412  -0.000000  -0.000000   0.000000
   35  F  4  Y   -0.000000   0.000000  -0.175716  -0.008441  -0.131868
   36  F  4  Z   -0.000000   0.000000   0.063923  -0.140606  -0.289369
   37  H  5  S   -0.000000   0.000000   0.079979  -0.087951   0.014518
   38  H  5  S   -0.000000   0.000000   0.923900  -0.995612  -0.235157
   39  H  6  S   -0.000000   0.000000   0.079979   0.087951   0.014518
   40  H  6  S   -0.000000   0.000000   0.923900   0.995612  -0.235157

                     21         22         23         24         25
                    0.5968     0.7166     0.8371     0.9175     0.9403
                     A          A          A          A          A   
    1  C  1  S    0.038447  -0.126681   0.000000  -0.000000   0.021638
    2  C  1  S   -0.019407  -0.026606   0.000000  -0.000000   0.304363
    3  C  1  X   -0.000000  -0.000000   0.720032  -0.716709   0.000000
    4  C  1  Y    0.060006  -0.260320   0.000000  -0.000000  -0.602709
    5  C  1  Z   -0.076111  -0.131979   0.000000  -0.000000  -0.065382
    6  C  1  S   -1.904451   3.393436   0.000000  -0.000000   0.136646
    7  C  1  X   -0.000000  -0.000000  -0.636804   1.180891   0.000000
    8  C  1  Y    2.261208  -2.012884   0.000000  -0.000000   0.996234
    9  C  1  Z   -0.876381  -1.630266   0.000000  -0.000000   0.320107
   10  C  2  S   -0.038447   0.126681   0.000000  -0.000000   0.021638
   11  C  2  S    0.019407   0.026606   0.000000  -0.000000   0.304363
   12  C  2  X   -0.000000  -0.000000   0.720032   0.716709   0.000000
   13  C  2  Y    0.060006  -0.260320   0.000000  -0.000000   0.602709
   14  C  2  Z    0.076111   0.131979   0.000000  -0.000000  -0.065382
   15  C  2  S    1.904451  -3.393436   0.000000  -0.000000   0.136646
   16  C  2  X   -0.000000  -0.000000  -0.636804  -1.180891   0.000000
   17  C  2  Y    2.261208  -2.012884   0.000000  -0.000000  -0.996234
   18  C  2  Z    0.876381   1.630266   0.000000  -0.000000   0.320107
   19  F  3  S    0.065108   0.063165   0.000000  -0.000000  -0.017929
   20  F  3  S   -0.019215  -0.012026   0.000000  -0.000000   0.039550
   21  F  3  X   -0.000000  -0.000000   0.015498  -0.025181   0.000000
   22  F  3  Y   -0.076580   0.107272   0.000000  -0.000000  -0.132968
   23  F  3  Z   -0.065183   0.002250   0.000000  -0.000000  -0.022306
   24  F  3  S   -0.858317  -0.918378   0.000000  -0.000000   0.028774
   25  F  3  X   -0.000000  -0.000000   0.069738  -0.143038   0.000000
   26  F  3  Y   -0.119077   0.448024   0.000000  -0.000000  -0.219465
   27  F  3  Z   -0.246019  -0.091207   0.000000  -0.000000   0.000606
   28  F  4  S   -0.065108  -0.063165   0.000000  -0.000000  -0.017929
   29  F  4  S    0.019215   0.012026   0.000000  -0.000000   0.039550
   30  F  4  X   -0.000000  -0.000000   0.015498   0.025181   0.000000
   31  F  4  Y   -0.076580   0.107272   0.000000  -0.000000   0.132968
   32  F  4  Z    0.065183  -0.002250   0.000000  -0.000000  -0.022306
   33  F  4  S    0.858317   0.918378   0.000000  -0.000000   0.028774
   34  F  4  X   -0.000000  -0.000000   0.069738   0.143038   0.000000
   35  F  4  Y   -0.119077   0.448024   0.000000  -0.000000   0.219465
   36  F  4  Z    0.246019   0.091207   0.000000  -0.000000   0.000606
   37  H  5  S    0.088160   0.162494   0.000000  -0.000000   0.259568
   38  H  5  S    0.050227  -0.874725   0.000000  -0.000000  -0.564508
   39  H  6  S   -0.088160  -0.162494   0.000000  -0.000000   0.259568
   40  H  6  S   -0.050227   0.874725   0.000000  -0.000000  -0.564508

                     26         27         28         29         30
                    1.1355     1.1673     1.1767     1.2906     1.4574
                     A          A          A          A          A   
    1  C  1  S   -0.011760   0.011833  -0.000158   0.005995   0.015329
    2  C  1  S   -0.071200   0.120469   0.090191   0.024394  -0.307443
    3  C  1  X    0.000000  -0.000000   0.000000  -0.000000  -0.000000
    4  C  1  Y   -0.550977  -0.210479   0.147587  -0.751799  -0.089044
    5  C  1  Z   -0.506155   0.800891   0.285060   0.434275   0.621848
    6  C  1  S   -0.203362  -0.633726  -0.278920  -2.007112   1.010062
    7  C  1  X    0.000000  -0.000000   0.000000  -0.000000  -0.000000
    8  C  1  Y    0.954243  -0.059530  -0.441495   1.295616  -0.585577
    9  C  1  Z    1.014501  -0.588592  -0.267571   0.592265  -1.536091
   10  C  2  S    0.011760   0.011833  -0.000158  -0.005995  -0.015329
   11  C  2  S    0.071200   0.120469   0.090191  -0.024394   0.307443
   12  C  2  X    0.000000  -0.000000   0.000000  -0.000000  -0.000000
   13  C  2  Y   -0.550977   0.210479  -0.147587  -0.751799  -0.089044
   14  C  2  Z    0.506155   0.800891   0.285060  -0.434275  -0.621848
   15  C  2  S    0.203362  -0.633726  -0.278920   2.007112  -1.010062
   16  C  2  X    0.000000  -0.000000   0.000000  -0.000000  -0.000000
   17  C  2  Y    0.954243   0.059530   0.441495   1.295616  -0.585577
   18  C  2  Z   -1.014501  -0.588592  -0.267571  -0.592265   1.536091
   19  F  3  S    0.005245  -0.028763  -0.011645  -0.055524  -0.000563
   20  F  3  S   -0.020188   0.019631   0.016487   0.047141   0.020771
   21  F  3  X    0.000000  -0.000000   0.000000  -0.000000  -0.000000
   22  F  3  Y    0.074917  -0.077323   0.110932  -0.089929  -0.073550
   23  F  3  Z   -0.003921   0.130703   0.097084   0.090024   0.226767
   24  F  3  S    0.086552   0.180622   0.101365   0.568185  -0.401864
   25  F  3  X    0.000000  -0.000000   0.000000  -0.000000  -0.000000
   26  F  3  Y   -0.036206  -0.156028   0.012648  -0.333785   0.006190
   27  F  3  Z   -0.094986   0.331438   0.096986   0.347911   0.155660
   28  F  4  S   -0.005245  -0.028763  -0.011645   0.055524   0.000563
   29  F  4  S    0.020188   0.019631   0.016487  -0.047141  -0.020771
   30  F  4  X    0.000000  -0.000000   0.000000  -0.000000  -0.000000
   31  F  4  Y    0.074917   0.077323  -0.110932  -0.089929  -0.073550
   32  F  4  Z    0.003921   0.130703   0.097084  -0.090024  -0.226767
   33  F  4  S   -0.086552   0.180622   0.101365  -0.568185   0.401864
   34  F  4  X    0.000000  -0.000000   0.000000  -0.000000  -0.000000
   35  F  4  Y   -0.036206   0.156028  -0.012648  -0.333785   0.006190
   36  F  4  Z    0.094986   0.331438   0.096986  -0.347911  -0.155660
   37  H  5  S   -0.460871  -0.297245   0.809866   0.405900  -0.657029
   38  H  5  S    1.031034   0.684864  -0.383781  -0.052712   0.009678
   39  H  6  S    0.460871  -0.297245   0.809866  -0.405900   0.657029
   40  H  6  S   -1.031034   0.684864  -0.383781   0.052712  -0.009678

                     31         32         33         34         35
                    1.4649     1.8624     2.1904     2.2512     2.2703
                     A          A          A          A          A   
    1  C  1  S   -0.048677  -0.017419   0.000000  -0.046645  -0.000000
    2  C  1  S    1.132666   1.302893   0.000000  -0.339377  -0.000000
    3  C  1  X    0.000000  -0.000000  -0.013840   0.000000  -0.017982
    4  C  1  Y    0.275592  -0.083633   0.000000  -0.134151  -0.000000
    5  C  1  Z   -0.127066   0.126675   0.000000   0.159328  -0.000000
    6  C  1  S   -0.940567  -3.709698   0.000000  -0.094807  -0.000000
    7  C  1  X    0.000000  -0.000000  -0.178438   0.000000  -0.412151
    8  C  1  Y   -0.222422   1.486186   0.000000   0.021827  -0.000000
    9  C  1  Z   -0.165633  -0.416355   0.000000   0.077769  -0.000000
   10  C  2  S   -0.048677   0.017419   0.000000  -0.046645  -0.000000
   11  C  2  S    1.132666  -1.302893   0.000000  -0.339377  -0.000000
   12  C  2  X    0.000000  -0.000000  -0.013840   0.000000   0.017982
   13  C  2  Y   -0.275592  -0.083633   0.000000   0.134151  -0.000000
   14  C  2  Z   -0.127066  -0.126675   0.000000   0.159328  -0.000000
   15  C  2  S   -0.940567   3.709698   0.000000  -0.094807  -0.000000
   16  C  2  X    0.000000  -0.000000  -0.178438   0.000000   0.412151
   17  C  2  Y    0.222422   1.486186   0.000000  -0.021827  -0.000000
   18  C  2  Z   -0.165633   0.416355   0.000000   0.077769  -0.000000
   19  F  3  S    0.025358   0.012309   0.000000  -0.040114  -0.000000
   20  F  3  S   -0.024391  -0.037752   0.000000   0.115661  -0.000000
   21  F  3  X    0.000000  -0.000000  -0.709196   0.000000  -0.710575
   22  F  3  Y    0.074373   0.061424   0.000000   0.364757  -0.000000
   23  F  3  Z   -0.209206  -0.172280   0.000000  -0.577282  -0.000000
   24  F  3  S   -0.035260   0.107589   0.000000   0.166714  -0.000000
   25  F  3  X    0.000000  -0.000000   0.775605   0.000000   0.831262
   26  F  3  Y    0.154452  -0.095235   0.000000  -0.519843  -0.000000
   27  F  3  Z   -0.152586   0.063249   0.000000   0.796445  -0.000000
   28  F  4  S    0.025358  -0.012309   0.000000  -0.040114  -0.000000
   29  F  4  S   -0.024391   0.037752   0.000000   0.115661  -0.000000
   30  F  4  X    0.000000  -0.000000  -0.709196   0.000000   0.710575
   31  F  4  Y   -0.074373   0.061424   0.000000  -0.364757  -0.000000
   32  F  4  Z   -0.209206   0.172280   0.000000  -0.577282  -0.000000
   33  F  4  S   -0.035260  -0.107589   0.000000   0.166714  -0.000000
   34  F  4  X    0.000000  -0.000000   0.775605   0.000000  -0.831262
   35  F  4  Y   -0.154452  -0.095235   0.000000   0.519843  -0.000000
   36  F  4  Z   -0.152586  -0.063249   0.000000   0.796445  -0.000000
   37  H  5  S   -0.099713  -0.277191   0.000000   0.011084  -0.000000
   38  H  5  S    0.447829  -0.134834   0.000000  -0.039213  -0.000000
   39  H  6  S   -0.099713   0.277191   0.000000   0.011084  -0.000000
   40  H  6  S    0.447829   0.134834   0.000000  -0.039213  -0.000000

                     36         37         38         39         40
                    2.3152     2.4539     2.4703     4.2023     4.4891
                     A          A          A          A          A   
    1  C  1  S   -0.049287   0.007167   0.024949  -0.021622   0.005147
    2  C  1  S   -0.489504   0.140354   0.202768  -0.157179   0.185131
    3  C  1  X    0.000000  -0.000000   0.000000   0.000000   0.000000
    4  C  1  Y   -0.045410  -0.134029   0.038783  -0.170926   0.139851
    5  C  1  Z    0.234351  -0.093397   0.017580   0.178607  -0.193950
    6  C  1  S    0.384661   0.217634  -1.973957  -0.588343   1.143636
    7  C  1  X    0.000000  -0.000000   0.000000   0.000000   0.000000
    8  C  1  Y   -0.294866   0.642198   1.497480  -0.189106  -0.008589
    9  C  1  Z   -0.337571   0.364719   0.443376   0.360620  -1.179074
   10  C  2  S    0.049287   0.007167  -0.024949  -0.021622  -0.005147
   11  C  2  S    0.489504   0.140354  -0.202768  -0.157179  -0.185131
   12  C  2  X    0.000000  -0.000000   0.000000   0.000000   0.000000
   13  C  2  Y   -0.045410   0.134029   0.038783   0.170926   0.139851
   14  C  2  Z   -0.234351  -0.093397  -0.017580   0.178607   0.193950
   15  C  2  S   -0.384661   0.217634   1.973957  -0.588343  -1.143636
   16  C  2  X    0.000000  -0.000000   0.000000   0.000000   0.000000
   17  C  2  Y   -0.294866  -0.642198   1.497480   0.189106  -0.008589
   18  C  2  Z    0.337571   0.364719  -0.443376   0.360620   1.179074
   19  F  3  S   -0.029329  -0.001792   0.000788   0.052835  -0.039569
   20  F  3  S    0.082416   0.014793  -0.015497  -1.193617   1.255371
   21  F  3  X    0.000000  -0.000000   0.000000   0.000000   0.000000
   22  F  3  Y    0.383390   0.599926   0.600470   0.089216  -0.052028
   23  F  3  Z   -0.547714   0.366487   0.388757  -0.111254   0.088684
   24  F  3  S    0.020990  -0.020694   0.105639   1.689307  -2.123716
   25  F  3  X    0.000000  -0.000000   0.000000   0.000000   0.000000
   26  F  3  Y   -0.498150  -0.804289  -0.825890  -0.333415   0.334890
   27  F  3  Z    0.800229  -0.511074  -0.498053   0.444128  -0.466759
   28  F  4  S    0.029329  -0.001792  -0.000788   0.052835   0.039569
   29  F  4  S   -0.082416   0.014793   0.015497  -1.193617  -1.255371
   30  F  4  X    0.000000  -0.000000   0.000000   0.000000   0.000000
   31  F  4  Y    0.383390  -0.599926   0.600470  -0.089216  -0.052028
   32  F  4  Z    0.547714   0.366487  -0.388757  -0.111254  -0.088684
   33  F  4  S   -0.020990  -0.020694  -0.105639   1.689307   2.123716
   34  F  4  X    0.000000  -0.000000   0.000000   0.000000   0.000000
   35  F  4  Y   -0.498150   0.804289  -0.825890   0.333415   0.334890
   36  F  4  Z   -0.800229  -0.511074   0.498053   0.444128   0.466759
   37  H  5  S   -0.080222  -0.165929   0.118911   0.045707  -0.076951
   38  H  5  S   -0.080175  -0.221044   0.197658  -0.038451  -0.157899
   39  H  6  S    0.080222  -0.165929  -0.118911   0.045707   0.076951
   40  H  6  S    0.080175  -0.221044  -0.197658  -0.038451   0.157899

  ----- BETA SET ----- 

          ------------
          EIGENVECTORS
          ------------

                      1          2          3          4          5
                  -26.2381   -26.2375   -11.2341   -11.2339    -1.8330
                     A          A          A          A          A   
    1  C  1  S   -0.000269   0.000468  -0.697897   0.697495  -0.079844
    2  C  1  S   -0.001496   0.001373  -0.071979   0.065080   0.076037
    3  C  1  X   -0.000000   0.000000   0.000000  -0.000000   0.000000
    4  C  1  Y   -0.001549   0.001876   0.000459   0.003299   0.033427
    5  C  1  Z    0.002022  -0.001859   0.004013  -0.003877  -0.094340
    6  C  1  S   -0.020949   0.010270   0.061125  -0.018620   0.015115
    7  C  1  X   -0.000000   0.000000   0.000000  -0.000000   0.000000
    8  C  1  Y    0.000508   0.003789  -0.022402   0.000097  -0.019030
    9  C  1  Z    0.020404  -0.006120   0.004010  -0.001697   0.020557
   10  C  2  S    0.000269   0.000468   0.697898   0.697495  -0.079844
   11  C  2  S    0.001496   0.001373   0.071979   0.065080   0.076037
   12  C  2  X   -0.000000   0.000000   0.000000  -0.000000   0.000000
   13  C  2  Y   -0.001549  -0.001876   0.000459  -0.003299  -0.033427
   14  C  2  Z   -0.002022  -0.001859  -0.004013  -0.003877  -0.094340
   15  C  2  S    0.020949   0.010270  -0.061125  -0.018620   0.015115
   16  C  2  X   -0.000000   0.000000   0.000000  -0.000000   0.000000
   17  C  2  Y    0.000508  -0.003789  -0.022402  -0.000097   0.019030
   18  C  2  Z   -0.020404  -0.006120  -0.004010  -0.001697   0.020557
   19  F  3  S   -0.694786   0.694584   0.000182  -0.000267  -0.162169
   20  F  3  S   -0.072245   0.070613  -0.001020   0.000080   0.152812
   21  F  3  X   -0.000000   0.000000   0.000000  -0.000000   0.000000
   22  F  3  Y    0.001493  -0.001656  -0.000245   0.000448  -0.055968
   23  F  3  Z   -0.002218   0.002274   0.000141  -0.000199   0.076614
   24  F  3  S    0.039969  -0.031796   0.003305  -0.002063   0.502368
   25  F  3  X   -0.000000   0.000000   0.000000  -0.000000   0.000000
   26  F  3  Y   -0.005204   0.004505  -0.001753   0.002027  -0.056573
   27  F  3  Z    0.006868  -0.006118   0.005348  -0.005250   0.071762
   28  F  4  S    0.694786   0.694583  -0.000182  -0.000267  -0.162169
   29  F  4  S    0.072245   0.070613   0.001020   0.000080   0.152812
   30  F  4  X   -0.000000   0.000000   0.000000  -0.000000   0.000000
   31  F  4  Y    0.001493   0.001656  -0.000245  -0.000448   0.055968
   32  F  4  Z    0.002218   0.002274  -0.000141  -0.000199   0.076614
   33  F  4  S   -0.039969  -0.031796  -0.003305  -0.002063   0.502368
   34  F  4  X   -0.000000   0.000000   0.000000  -0.000000   0.000000
   35  F  4  Y   -0.005204  -0.004505  -0.001753  -0.002027   0.056573
   36  F  4  Z   -0.006868  -0.006118  -0.005348  -0.005250   0.071762
   37  H  5  S    0.000980  -0.000555   0.001075  -0.000559   0.005798
   38  H  5  S    0.002949   0.000291   0.003878   0.005064  -0.002576
   39  H  6  S   -0.000980  -0.000555  -0.001075  -0.000559   0.005798
   40  H  6  S   -0.002949   0.000291  -0.003878   0.005065  -0.002576

                      6          7          8          9         10
                   -1.8067    -1.0111    -0.9022    -0.8754    -0.7839
                     A          A          A          A          A   
    1  C  1  S   -0.069510   0.125366  -0.077641  -0.025739   0.071443
    2  C  1  S    0.064238  -0.161973   0.095733   0.039611  -0.078917
    3  C  1  X    0.000000  -0.000000  -0.000000  -0.000000   0.000000
    4  C  1  Y    0.062346   0.183975   0.103273   0.195385   0.132552
    5  C  1  Z   -0.091117   0.049881  -0.102120  -0.056257  -0.190434
    6  C  1  S   -0.021970  -0.185474   0.095112  -0.005178  -0.237572
    7  C  1  X    0.000000  -0.000000  -0.000000  -0.000000   0.000000
    8  C  1  Y    0.001551   0.080396  -0.015650   0.067075  -0.010254
    9  C  1  Z    0.087687  -0.003753   0.093763   0.056630  -0.080352
   10  C  2  S    0.069510   0.125366   0.077641  -0.025739   0.071443
   11  C  2  S   -0.064238  -0.161973  -0.095733   0.039611  -0.078917
   12  C  2  X    0.000000  -0.000000  -0.000000  -0.000000   0.000000
   13  C  2  Y    0.062346  -0.183975   0.103273  -0.195385  -0.132552
   14  C  2  Z    0.091117   0.049881   0.102120  -0.056257  -0.190434
   15  C  2  S    0.021970  -0.185474  -0.095112  -0.005178  -0.237572
   16  C  2  X    0.000000  -0.000000  -0.000000  -0.000000   0.000000
   17  C  2  Y    0.001551  -0.080396  -0.015650  -0.067075   0.010254
   18  C  2  Z   -0.087687  -0.003753  -0.093763   0.056630  -0.080352
   19  F  3  S   -0.167901  -0.067375   0.066937   0.038318   0.011333
   20  F  3  S    0.154345   0.064532  -0.067144  -0.035354  -0.010575
   21  F  3  X    0.000000  -0.000000  -0.000000  -0.000000   0.000000
   22  F  3  Y   -0.050771   0.183763  -0.134191   0.057285  -0.246235
   23  F  3  Z    0.079539  -0.072487   0.299107   0.323860   0.037444
   24  F  3  S    0.550546   0.260731  -0.240363  -0.149249  -0.044703
   25  F  3  X    0.000000  -0.000000  -0.000000  -0.000000   0.000000
   26  F  3  Y   -0.054559   0.170422  -0.127861   0.065107  -0.257059
   27  F  3  Z    0.075457  -0.071051   0.285887   0.314716   0.023715
   28  F  4  S    0.167901  -0.067375  -0.066937   0.038318   0.011333
   29  F  4  S   -0.154345   0.064532   0.067144  -0.035354  -0.010575
   30  F  4  X    0.000000  -0.000000  -0.000000  -0.000000   0.000000
   31  F  4  Y   -0.050771  -0.183763  -0.134191  -0.057285   0.246235
   32  F  4  Z   -0.079539  -0.072487  -0.299107   0.323860   0.037444
   33  F  4  S   -0.550546   0.260731   0.240363  -0.149249  -0.044703
   34  F  4  X    0.000000  -0.000000  -0.000000  -0.000000   0.000000
   35  F  4  Y   -0.054559  -0.170422  -0.127861  -0.065107   0.257059
   36  F  4  Z   -0.075457  -0.071051  -0.285887   0.314716   0.023715
   37  H  5  S   -0.000062  -0.021420  -0.022912   0.029222  -0.080656
   38  H  5  S    0.016307  -0.008584   0.000632   0.005153  -0.065740
   39  H  6  S    0.000062  -0.021420   0.022912   0.029222  -0.080656
   40  H  6  S   -0.016307  -0.008584  -0.000632   0.005153  -0.065740

                     11         12         13         14         15
                   -0.7747    -0.7641    -0.7281    -0.4953    -0.4556
                     A          A          A          A          A   
    1  C  1  S   -0.003603   0.000000  -0.000000  -0.056633   0.015748
    2  C  1  S    0.003825   0.000000  -0.000000   0.043540  -0.049493
    3  C  1  X    0.000000   0.135699   0.109692  -0.000000  -0.000000
    4  C  1  Y    0.070591   0.000000  -0.000000   0.035559   0.233152
    5  C  1  Z    0.103294   0.000000  -0.000000   0.149527   0.102391
    6  C  1  S   -0.086572   0.000000  -0.000000   0.282261  -0.024432
    7  C  1  X    0.000000   0.093548   0.107918  -0.000000  -0.000000
    8  C  1  Y    0.157919   0.000000  -0.000000   0.016750   0.104943
    9  C  1  Z    0.035776   0.000000  -0.000000   0.135422   0.063190
   10  C  2  S    0.003603   0.000000  -0.000000   0.056633   0.015748
   11  C  2  S   -0.003825   0.000000  -0.000000  -0.043540  -0.049493
   12  C  2  X    0.000000   0.135699  -0.109692  -0.000000  -0.000000
   13  C  2  Y    0.070591   0.000000  -0.000000   0.035559  -0.233152
   14  C  2  Z   -0.103294   0.000000  -0.000000  -0.149527   0.102391
   15  C  2  S    0.086572   0.000000  -0.000000  -0.282261  -0.024432
   16  C  2  X    0.000000   0.093548  -0.107918  -0.000000  -0.000000
   17  C  2  Y    0.157919   0.000000  -0.000000   0.016750  -0.104943
   18  C  2  Z   -0.035776   0.000000  -0.000000  -0.135422   0.063190
   19  F  3  S   -0.003182   0.000000  -0.000000   0.009953   0.000742
   20  F  3  S    0.004445   0.000000  -0.000000  -0.011344  -0.002675
   21  F  3  X    0.000000   0.334804   0.354891  -0.000000  -0.000000
   22  F  3  Y    0.339586   0.000000  -0.000000  -0.084770  -0.184830
   23  F  3  Z    0.128930   0.000000  -0.000000  -0.135054  -0.098363
   24  F  3  S   -0.000804   0.000000  -0.000000  -0.043439   0.002745
   25  F  3  X    0.000000   0.370675   0.391245  -0.000000  -0.000000
   26  F  3  Y    0.344500   0.000000  -0.000000  -0.110200  -0.241497
   27  F  3  Z    0.133400   0.000000  -0.000000  -0.161847  -0.133763
   28  F  4  S    0.003182   0.000000  -0.000000  -0.009953   0.000742
   29  F  4  S   -0.004445   0.000000  -0.000000   0.011344  -0.002675
   30  F  4  X    0.000000   0.334804  -0.354891  -0.000000  -0.000000
   31  F  4  Y    0.339586   0.000000  -0.000000  -0.084770   0.184830
   32  F  4  Z   -0.128930   0.000000  -0.000000   0.135054  -0.098363
   33  F  4  S    0.000804   0.000000  -0.000000   0.043439   0.002745
   34  F  4  X    0.000000   0.370675  -0.391245  -0.000000  -0.000000
   35  F  4  Y    0.344500   0.000000  -0.000000  -0.110200   0.241497
   36  F  4  Z   -0.133400   0.000000  -0.000000   0.161847  -0.133763
   37  H  5  S   -0.045069   0.000000  -0.000000  -0.204403   0.182480
   38  H  5  S   -0.033899   0.000000  -0.000000  -0.293784   0.318664
   39  H  6  S    0.045069   0.000000  -0.000000   0.204403   0.182480
   40  H  6  S    0.033899   0.000000  -0.000000   0.293784   0.318664

                     16         17         18         19         20
                    0.1093     0.2555     0.3111     0.3886     0.4383
                     A          A          A          A          A   
    1  C  1  S   -0.000000   0.051436  -0.110159  -0.000000  -0.045326
    2  C  1  S   -0.000000   0.001138   0.051842  -0.000000  -0.054905
    3  C  1  X    0.267355  -0.000000   0.000000  -0.289265   0.000000
    4  C  1  Y   -0.000000  -0.186809   0.067646  -0.000000   0.105271
    5  C  1  Z   -0.000000  -0.233756   0.188010  -0.000000  -0.001542
    6  C  1  S   -0.000000  -0.468433   0.968564  -0.000000   1.025414
    7  C  1  X    0.421906  -0.000000   0.000000  -0.885134   0.000000
    8  C  1  Y   -0.000000  -0.232787   0.281112  -0.000000   0.669240
    9  C  1  Z   -0.000000  -0.525714   0.608455  -0.000000  -0.521693
   10  C  2  S   -0.000000   0.051436   0.110159  -0.000000  -0.045326
   11  C  2  S   -0.000000   0.001138  -0.051842  -0.000000  -0.054905
   12  C  2  X    0.267355  -0.000000   0.000000   0.289265   0.000000
   13  C  2  Y   -0.000000   0.186809   0.067646  -0.000000  -0.105271
   14  C  2  Z   -0.000000  -0.233756  -0.188010  -0.000000  -0.001542
   15  C  2  S   -0.000000  -0.468433  -0.968564  -0.000000   1.025414
   16  C  2  X    0.421906  -0.000000   0.000000   0.885134   0.000000
   17  C  2  Y   -0.000000   0.232787   0.281112  -0.000000  -0.669240
   18  C  2  Z   -0.000000  -0.525714  -0.608455  -0.000000  -0.521693
   19  F  3  S   -0.000000   0.017235   0.018840  -0.000000   0.081311
   20  F  3  S   -0.000000  -0.006324  -0.022878  -0.000000  -0.034667
   21  F  3  X   -0.191060  -0.000000   0.000000   0.170507   0.000000
   22  F  3  Y   -0.000000   0.112292  -0.009206  -0.000000   0.041406
   23  F  3  Z   -0.000000   0.041709  -0.081843  -0.000000  -0.082270
   24  F  3  S   -0.000000  -0.172545  -0.100338  -0.000000  -0.900776
   25  F  3  X   -0.305486  -0.000000   0.000000   0.321579   0.000000
   26  F  3  Y   -0.000000   0.209047  -0.049206  -0.000000   0.105272
   27  F  3  Z   -0.000000   0.066415  -0.156908  -0.000000  -0.281989
   28  F  4  S   -0.000000   0.017235  -0.018840  -0.000000   0.081311
   29  F  4  S   -0.000000  -0.006324   0.022878  -0.000000  -0.034667
   30  F  4  X   -0.191060  -0.000000   0.000000  -0.170507   0.000000
   31  F  4  Y   -0.000000  -0.112292  -0.009206  -0.000000  -0.041406
   32  F  4  Z   -0.000000   0.041709   0.081843  -0.000000  -0.082270
   33  F  4  S   -0.000000  -0.172545   0.100338  -0.000000  -0.900776
   34  F  4  X   -0.305486  -0.000000   0.000000  -0.321579   0.000000
   35  F  4  Y   -0.000000  -0.209047  -0.049206  -0.000000  -0.105272
   36  F  4  Z   -0.000000   0.066415   0.156908  -0.000000  -0.281989
   37  H  5  S   -0.000000   0.062237   0.048268  -0.000000   0.026192
   38  H  5  S   -0.000000   0.880735   1.036141  -0.000000  -0.290208
   39  H  6  S   -0.000000   0.062237  -0.048268  -0.000000   0.026192
   40  H  6  S   -0.000000   0.880735  -1.036141  -0.000000  -0.290208

                     21         22         23         24         25
                    0.6113     0.7801     0.9574     0.9690     1.0581
                     A          A          A          A          A   
    1  C  1  S    0.038720  -0.138541   0.025539  -0.000000  -0.000000
    2  C  1  S   -0.012910  -0.031264   0.297416  -0.000000  -0.000000
    3  C  1  X    0.000000  -0.000000   0.000000   0.771027  -0.795082
    4  C  1  Y    0.037680  -0.223193  -0.583806  -0.000000  -0.000000
    5  C  1  Z   -0.069347  -0.066009  -0.094951  -0.000000  -0.000000
    6  C  1  S   -1.915629   3.583073   0.118354  -0.000000  -0.000000
    7  C  1  X    0.000000  -0.000000   0.000000  -0.578204   1.018122
    8  C  1  Y    2.230665  -2.131102   0.943215  -0.000000  -0.000000
    9  C  1  Z   -0.937423  -1.620009   0.336744  -0.000000  -0.000000
   10  C  2  S   -0.038720   0.138541   0.025539  -0.000000  -0.000000
   11  C  2  S    0.012910   0.031264   0.297416  -0.000000  -0.000000
   12  C  2  X    0.000000  -0.000000   0.000000   0.771027   0.795082
   13  C  2  Y    0.037680  -0.223193   0.583806  -0.000000  -0.000000
   14  C  2  Z    0.069347   0.066009  -0.094951  -0.000000  -0.000000
   15  C  2  S    1.915629  -3.583073   0.118354  -0.000000  -0.000000
   16  C  2  X    0.000000  -0.000000   0.000000  -0.578204  -1.018122
   17  C  2  Y    2.230665  -2.131102  -0.943214  -0.000000  -0.000000
   18  C  2  Z    0.937423   1.620009   0.336744  -0.000000  -0.000000
   19  F  3  S    0.065743   0.063015  -0.019822  -0.000000  -0.000000
   20  F  3  S   -0.018122  -0.016997   0.043210  -0.000000  -0.000000
   21  F  3  X    0.000000  -0.000000   0.000000   0.005207  -0.003497
   22  F  3  Y   -0.078301   0.099231  -0.123446  -0.000000  -0.000000
   23  F  3  Z   -0.057813   0.006165  -0.020828  -0.000000  -0.000000
   24  F  3  S   -0.869844  -0.904229   0.047001  -0.000000  -0.000000
   25  F  3  X    0.000000  -0.000000   0.000000   0.031891  -0.085905
   26  F  3  Y   -0.117657   0.440591  -0.205983  -0.000000  -0.000000
   27  F  3  Z   -0.235570  -0.082499  -0.002541  -0.000000  -0.000000
   28  F  4  S   -0.065743  -0.063015  -0.019822  -0.000000  -0.000000
   29  F  4  S    0.018122   0.016997   0.043210  -0.000000  -0.000000
   30  F  4  X    0.000000  -0.000000   0.000000   0.005207   0.003497
   31  F  4  Y   -0.078301   0.099231   0.123446  -0.000000  -0.000000
   32  F  4  Z    0.057813  -0.006165  -0.020828  -0.000000  -0.000000
   33  F  4  S    0.869844   0.904229   0.047001  -0.000000  -0.000000
   34  F  4  X    0.000000  -0.000000   0.000000   0.031891   0.085905
   35  F  4  Y   -0.117657   0.440591   0.205983  -0.000000  -0.000000
   36  F  4  Z    0.235570   0.082499  -0.002541  -0.000000  -0.000000
   37  H  5  S    0.103703   0.189442   0.327829  -0.000000  -0.000000
   38  H  5  S   -0.021664  -0.867301  -0.619804  -0.000000  -0.000000
   39  H  6  S   -0.103703  -0.189442   0.327829  -0.000000  -0.000000
   40  H  6  S    0.021664   0.867301  -0.619804  -0.000000  -0.000000

                     26         27         28         29         30
                    1.1508     1.1514     1.2038     1.3116     1.4651
                     A          A          A          A          A   
    1  C  1  S   -0.007133  -0.016525   0.012898   0.003277  -0.019419
    2  C  1  S   -0.026001  -0.078205   0.125191   0.043378   0.287206
    3  C  1  X   -0.000000   0.000000   0.000000  -0.000000   0.000000
    4  C  1  Y    0.272649  -0.510055  -0.128374  -0.786835   0.135836
    5  C  1  Z   -0.116917  -0.506759   0.848398   0.320373  -0.700530
    6  C  1  S    0.063365   0.173660  -0.676663  -2.069999  -0.705827
    7  C  1  X   -0.000000   0.000000   0.000000  -0.000000   0.000000
    8  C  1  Y   -0.443670   0.701567  -0.245671   1.379038   0.461535
    9  C  1  Z    0.015991   0.705708  -0.619442   0.867941   1.499982
   10  C  2  S   -0.007133   0.016525   0.012898  -0.003277   0.019419
   11  C  2  S   -0.026001   0.078205   0.125191  -0.043378  -0.287206
   12  C  2  X   -0.000000   0.000000   0.000000  -0.000000   0.000000
   13  C  2  Y   -0.272649  -0.510054   0.128374  -0.786835   0.135836
   14  C  2  Z   -0.116917   0.506759   0.848398  -0.320373   0.700530
   15  C  2  S    0.063365  -0.173660  -0.676663   2.069999   0.705827
   16  C  2  X   -0.000000   0.000000   0.000000  -0.000000   0.000000
   17  C  2  Y    0.443670   0.701567   0.245671   1.379038   0.461535
   18  C  2  Z    0.015991  -0.705708  -0.619442  -0.867941  -1.499982
   19  F  3  S    0.004268   0.014581  -0.033798  -0.056647   0.008605
   20  F  3  S    0.001887  -0.024118   0.028359   0.043042  -0.028998
   21  F  3  X   -0.000000   0.000000   0.000000  -0.000000   0.000000
   22  F  3  Y    0.144498   0.083150  -0.020766  -0.070965   0.087513
   23  F  3  Z    0.031036   0.004326   0.163099   0.062912  -0.230377
   24  F  3  S    0.003009  -0.058430   0.226792   0.639436   0.321636
   25  F  3  X   -0.000000   0.000000   0.000000  -0.000000   0.000000
   26  F  3  Y    0.104000   0.021134  -0.142523  -0.334623   0.033314
   27  F  3  Z   -0.063460  -0.114071   0.345495   0.325610  -0.205828
   28  F  4  S    0.004268  -0.014581  -0.033798   0.056647  -0.008605
   29  F  4  S    0.001887   0.024118   0.028359  -0.043042   0.028998
   30  F  4  X   -0.000000   0.000000   0.000000  -0.000000   0.000000
   31  F  4  Y   -0.144498   0.083150   0.020766  -0.070965   0.087513
   32  F  4  Z    0.031036  -0.004326   0.163099  -0.062912   0.230377
   33  F  4  S    0.003009   0.058430   0.226792  -0.639436  -0.321636
   34  F  4  X   -0.000000   0.000000   0.000000  -0.000000   0.000000
   35  F  4  Y   -0.104000   0.021134   0.142523  -0.334623   0.033314
   36  F  4  Z   -0.063460   0.114071   0.345495  -0.325610   0.205828
   37  H  5  S    0.825066  -0.527084   0.123925   0.424468   0.580428
   38  H  5  S   -0.635777   0.967556   0.395746   0.033528   0.045158
   39  H  6  S    0.825066   0.527084   0.123925  -0.424468  -0.580428
   40  H  6  S   -0.635777  -0.967556   0.395746  -0.033528  -0.045158

                     31         32         33         34         35
                    1.5159     1.9085     2.2576     2.2577     2.3221
                     A          A          A          A          A   
    1  C  1  S   -0.051503  -0.021064  -0.000000  -0.046476  -0.048556
    2  C  1  S    1.138381   1.302783  -0.000000  -0.340076  -0.502720
    3  C  1  X   -0.000000  -0.000000  -0.003727  -0.000000   0.000000
    4  C  1  Y    0.282439  -0.078696  -0.000000  -0.134952  -0.041375
    5  C  1  Z   -0.105378   0.133309  -0.000000   0.157553   0.230080
    6  C  1  S   -0.924377  -3.650228  -0.000000  -0.095194   0.406350
    7  C  1  X   -0.000000  -0.000000  -0.178620  -0.000000   0.000000
    8  C  1  Y   -0.217576   1.443494  -0.000000   0.023228  -0.299277
    9  C  1  Z   -0.179771  -0.422309  -0.000000   0.079731  -0.328282
   10  C  2  S   -0.051503   0.021064  -0.000000  -0.046476   0.048556
   11  C  2  S    1.138381  -1.302783  -0.000000  -0.340076   0.502720
   12  C  2  X   -0.000000  -0.000000  -0.003727  -0.000000   0.000000
   13  C  2  Y   -0.282439  -0.078696  -0.000000   0.134952  -0.041375
   14  C  2  Z   -0.105378  -0.133309  -0.000000   0.157553  -0.230080
   15  C  2  S   -0.924377   3.650228  -0.000000  -0.095194  -0.406350
   16  C  2  X   -0.000000  -0.000000  -0.178620  -0.000000   0.000000
   17  C  2  Y    0.217576   1.443494  -0.000000  -0.023228  -0.299277
   18  C  2  Z   -0.179771   0.422309  -0.000000   0.079731   0.328282
   19  F  3  S    0.025938   0.012130  -0.000000  -0.040277  -0.029371
   20  F  3  S   -0.023149  -0.035543  -0.000000   0.113414   0.080055
   21  F  3  X   -0.000000  -0.000000  -0.722210  -0.000000   0.000000
   22  F  3  Y    0.073947   0.063285  -0.000000   0.365300   0.386855
   23  F  3  Z   -0.205351  -0.181573  -0.000000  -0.578067  -0.544714
   24  F  3  S   -0.047160   0.104217  -0.000000   0.171126   0.024119
   25  F  3  X   -0.000000  -0.000000   0.760515  -0.000000   0.000000
   26  F  3  Y    0.150865  -0.094569  -0.000000  -0.520687  -0.501870
   27  F  3  Z   -0.150840   0.073433  -0.000000   0.796119   0.795568
   28  F  4  S    0.025938  -0.012130  -0.000000  -0.040277   0.029371
   29  F  4  S   -0.023149   0.035543  -0.000000   0.113414  -0.080055
   30  F  4  X   -0.000000  -0.000000  -0.722210  -0.000000   0.000000
   31  F  4  Y   -0.073947   0.063285  -0.000000  -0.365300   0.386855
   32  F  4  Z   -0.205351   0.181573  -0.000000  -0.578067   0.544714
   33  F  4  S   -0.047160  -0.104217  -0.000000   0.171126  -0.024119
   34  F  4  X   -0.000000  -0.000000   0.760515  -0.000000   0.000000
   35  F  4  Y   -0.150865  -0.094569  -0.000000   0.520687  -0.501870
   36  F  4  Z   -0.150840  -0.073433  -0.000000   0.796119  -0.795568
   37  H  5  S   -0.077581  -0.259835  -0.000000   0.010877  -0.075524
   38  H  5  S    0.427634  -0.148495  -0.000000  -0.039931  -0.077402
   39  H  6  S   -0.077581   0.259835  -0.000000   0.010877   0.075524
   40  H  6  S    0.427634   0.148495  -0.000000  -0.039931   0.077402

                     36         37         38         39         40
                    2.3334     2.4668     2.4808     4.2231     4.5102
                     A          A          A          A          A   
    1  C  1  S   -0.000000   0.007521   0.025671  -0.020802   0.003901
    2  C  1  S   -0.000000   0.142482   0.209347  -0.155316   0.183354
    3  C  1  X   -0.010263  -0.000000   0.000000   0.000000   0.000000
    4  C  1  Y   -0.000000  -0.135229   0.038911  -0.171597   0.138807
    5  C  1  Z   -0.000000  -0.093484   0.018151   0.177982  -0.193921
    6  C  1  S   -0.000000   0.214883  -1.990531  -0.592596   1.167479
    7  C  1  X   -0.408819  -0.000000   0.000000   0.000000   0.000000
    8  C  1  Y   -0.000000   0.643465   1.501914  -0.188177  -0.019411
    9  C  1  Z   -0.000000   0.364636   0.442920   0.360681  -1.180863
   10  C  2  S   -0.000000   0.007521  -0.025671  -0.020802  -0.003901
   11  C  2  S   -0.000000   0.142482  -0.209347  -0.155316  -0.183354
   12  C  2  X    0.010263  -0.000000   0.000000   0.000000   0.000000
   13  C  2  Y   -0.000000   0.135229   0.038911   0.171597   0.138807
   14  C  2  Z   -0.000000  -0.093484  -0.018151   0.177982   0.193921
   15  C  2  S   -0.000000   0.214883   1.990531  -0.592596  -1.167479
   16  C  2  X    0.408819  -0.000000   0.000000   0.000000   0.000000
   17  C  2  Y   -0.000000  -0.643465   1.501914   0.188177  -0.019411
   18  C  2  Z   -0.000000   0.364636  -0.442920   0.360681   1.180863
   19  F  3  S   -0.000000  -0.002069   0.000643   0.053118  -0.039747
   20  F  3  S   -0.000000   0.015926  -0.014921  -1.194248   1.255977
   21  F  3  X   -0.723052  -0.000000   0.000000   0.000000   0.000000
   22  F  3  Y   -0.000000   0.600931   0.599698   0.088407  -0.051288
   23  F  3  Z   -0.000000   0.367962   0.393358  -0.109673   0.087051
   24  F  3  S   -0.000000  -0.020422   0.107056   1.688898  -2.125048
   25  F  3  X    0.816817  -0.000000   0.000000   0.000000   0.000000
   26  F  3  Y   -0.000000  -0.802912  -0.821898  -0.333520   0.336020
   27  F  3  Z   -0.000000  -0.510246  -0.500575   0.442663  -0.465376
   28  F  4  S   -0.000000  -0.002069  -0.000643   0.053118   0.039747
   29  F  4  S   -0.000000   0.015926   0.014921  -1.194248  -1.255977
   30  F  4  X    0.723052  -0.000000   0.000000   0.000000   0.000000
   31  F  4  Y   -0.000000  -0.600931   0.599698  -0.088407  -0.051288
   32  F  4  Z   -0.000000   0.367962  -0.393358  -0.109673  -0.087051
   33  F  4  S   -0.000000  -0.020422  -0.107056   1.688898   2.125048
   34  F  4  X   -0.816817  -0.000000   0.000000   0.000000   0.000000
   35  F  4  Y   -0.000000   0.802912  -0.821898   0.333520   0.336020
   36  F  4  Z   -0.000000  -0.510246   0.500575   0.442663   0.465376
   37  H  5  S   -0.000000  -0.162486   0.114996   0.045609  -0.075652
   38  H  5  S   -0.000000  -0.221056   0.197739  -0.037427  -0.158348
   39  H  6  S   -0.000000  -0.162486  -0.114996   0.045609   0.075652
   40  H  6  S   -0.000000  -0.221056  -0.197739  -0.037427   0.158348
 ...... END OF UHF CALCULATION ......
 STEP CPU TIME =     0.06 TOTAL CPU TIME =        0.1 (    0.0 MIN)
 TOTAL WALL CLOCK TIME=        0.1 SECONDS, CPU UTILIZATION IS  91.67%

     ----------------------------------------------------------------
     PROPERTY VALUES FOR THE UHF   SELF-CONSISTENT FIELD WAVEFUNCTION
     ----------------------------------------------------------------

          -----------------
          ENERGY COMPONENTS
          -----------------

         WAVEFUNCTION NORMALIZATION =       1.0000000000

                ONE ELECTRON ENERGY =    -632.6489071307
                TWO ELECTRON ENERGY =     230.3044494216
           NUCLEAR REPULSION ENERGY =     128.6191355931
                                      ------------------
                       TOTAL ENERGY =    -273.7253221160

 ELECTRON-ELECTRON POTENTIAL ENERGY =     230.3044494216
  NUCLEUS-ELECTRON POTENTIAL ENERGY =    -908.3644136067
   NUCLEUS-NUCLEUS POTENTIAL ENERGY =     128.6191355931
                                      ------------------
             TOTAL POTENTIAL ENERGY =    -549.4408285920
               TOTAL KINETIC ENERGY =     275.7155064760
                 VIRIAL RATIO (V/T) =       1.9927817467

  ...... PI ENERGY ANALYSIS ......

 ENERGY ANALYSIS:
            FOCK ENERGY=   -172.0400096766
          BARE H ENERGY=   -632.6489071307
     ELECTRONIC ENERGY =   -402.3444584037
         KINETIC ENERGY=    275.7155064760
          N-N REPULSION=    128.6191355931
           TOTAL ENERGY=   -273.7253228106
        SIGMA PART(1+2)=   -359.1271052638
               (K,V1,2)=    260.2512568564   -810.3322205199    190.9538583996
           PI PART(1+2)=    -43.2173531398
               (K,V1,2)=     15.4642496195    -98.0321930868     39.3505903274
  SIGMA SKELETON, ERROR=   -230.5079696707      0.0000000000
             MIXED PART= 0.00000E+00 0.00000E+00 0.00000E+00 0.00000E+00
 ...... END OF PI ENERGY ANALYSIS ......

          ---------------------------------------
          MULLIKEN AND LOWDIN POPULATION ANALYSES
          ---------------------------------------

     ATOMIC SPIN POPULATION (ALPHA MINUS BETA)
       ATOM         MULL.POP.                    LOW.POP.
    1 C             1.096071                     0.982331
    2 C             1.096071                     0.982331
    3 F             0.127024                     0.179644
    4 F             0.127024                     0.179644
    5 H            -0.223095                    -0.161975
    6 H            -0.223095                    -0.161975


          ********* ALL ELECTRONS ********

               ----- POPULATIONS IN EACH AO -----
                             MULLIKEN      LOWDIN
              1  C  1  S      1.98730     1.97492
              2  C  1  S      0.42225     0.42677
              3  C  1  X      0.61178     0.61228
              4  C  1  Y      0.63399     0.60860
              5  C  1  Z      0.50494     0.50554
              6  C  1  S      0.65073     0.54176
              7  C  1  X      0.54313     0.54597
              8  C  1  Y      0.22923     0.44571
              9  C  1  Z      0.20997     0.41698
             10  C  2  S      1.98730     1.97492
             11  C  2  S      0.42225     0.42677
             12  C  2  X      0.61178     0.61228
             13  C  2  Y      0.63399     0.60860
             14  C  2  Z      0.50494     0.50554
             15  C  2  S      0.65073     0.54176
             16  C  2  X      0.54313     0.54597
             17  C  2  Y      0.22923     0.44571
             18  C  2  Z      0.20997     0.41698
             19  F  3  S      1.98584     1.98085
             20  F  3  S      0.44338     0.59703
             21  F  3  X      0.88480     0.89490
             22  F  3  Y      0.87374     0.87428
             23  F  3  Z      0.82313     0.81576
             24  F  3  S      1.55414     1.03550
             25  F  3  X      0.96029     0.94685
             26  F  3  Y      0.92323     0.93342
             27  F  3  Z      0.84058     0.86770
             28  F  4  S      1.98584     1.98085
             29  F  4  S      0.44338     0.59703
             30  F  4  X      0.88480     0.89490
             31  F  4  Y      0.87374     0.87428
             32  F  4  Z      0.82313     0.81576
             33  F  4  S      1.55414     1.03550
             34  F  4  X      0.96029     0.94685
             35  F  4  Y      0.92323     0.93342
             36  F  4  Z      0.84058     0.86770
             37  H  5  S      0.36771     0.39053
             38  H  5  S      0.54987     0.58464
             39  H  6  S      0.36771     0.39053
             40  H  6  S      0.54987     0.58464

          ----- MULLIKEN ATOMIC OVERLAP POPULATIONS -----
          (OFF-DIAGONAL ELEMENTS NEED TO BE MULTIPLIED BY 2)

             1           2           3           4           5

    1    5.5521255
    2   -0.1188755   5.5521255
    3    0.0985281  -0.0386410   9.2686937
    4   -0.0386410   0.0985281   0.0006450   9.2686937
    5   -0.0534840   0.3536508   0.0009922  -0.0411016   0.6546167
    6    0.3536508  -0.0534840  -0.0411016   0.0009922   0.0029054

             6

    6    0.6546167

          TOTAL MULLIKEN AND LOWDIN ATOMIC POPULATIONS
       ATOM         MULL.POP.    CHARGE          LOW.POP.     CHARGE
    1 C             5.793304    0.206696         6.078531   -0.078531
    2 C             5.793304    0.206696         6.078531   -0.078531
    3 F             9.289117   -0.289117         8.946294    0.053706
    4 F             9.289117   -0.289117         8.946294    0.053706
    5 H             0.917580    0.082420         0.975174    0.024826
    6 H             0.917580    0.082420         0.975174    0.024826

          -------------------------------
          BOND ORDER AND VALENCE ANALYSIS     BOND ORDER THRESHOLD=0.050
          -------------------------------

                   BOND                       BOND                       BOND
  ATOM PAIR DIST  ORDER      ATOM PAIR DIST  ORDER      ATOM PAIR DIST  ORDER
    1   2  1.301  0.761        1   3  1.065  0.923        1   6  1.358  0.876
    2   4  1.065  0.923        2   5  1.358  0.876

                       TOTAL       BONDED        FREE
      ATOM            VALENCE     VALENCE     VALENCE
    1 C                 3.408       2.567       0.841
    2 C                 3.408       2.567       0.841
    3 F                 1.022       0.994       0.029
    4 F                 1.022       0.994       0.029
    5 H                 0.972       0.923       0.049
    6 H                 0.972       0.923       0.049

          -----------------------------------------
          ATOMIC SPIN DENSITY AT THE NUCLEUS (A.U.)
          -----------------------------------------
                            SPIN DENS    ALPHA DENS     BETA DENS
    1  C            6.0     0.1887851      47.09726      46.90848
    2  C            6.0     0.1887851      47.09726      46.90848
    3  F            9.0     0.1268557     168.80088     168.67403
    4  F            9.0     0.1268557     168.80088     168.67403
    5  H            1.0    -0.0540253       0.11301       0.16703
    6  H            1.0    -0.0540253       0.11301       0.16703

          ---------------------
          ELECTROSTATIC MOMENTS
          ---------------------

 POINT   1           X           Y           Z (BOHR)    CHARGE
                 0.000000    0.000000   -0.976289       -0.00 (A.U.)
         DX          DY          DZ         /D/  (DEBYE)
     0.000000    0.000000    0.162421    0.162421
 ...... END OF PROPERTY EVALUATION ......
 STEP CPU TIME =     0.00 TOTAL CPU TIME =        0.1 (    0.0 MIN)
 TOTAL WALL CLOCK TIME=        0.1 SECONDS, CPU UTILIZATION IS  91.67%

          ---------------------------------------------
          SF-CIS INPUT PARAMETERS (EXTRACTED FROM $CIS)
          ---------------------------------------------

 NACORE=       4 NSTATE=       5  IROOT=       1
  MXVEC=      40 NGSVEC=      10 NDAVIT=      50 DAVCVG=  5.00E-06
 *** NOTE: NACORE IS SET TO BE 0
 MEMORY REQUIRED FOR SFCIS   ITERATIONS IS    333701 WORDS.


 STATE      ITERATION      ENERGY         RESIDUE NORM
   1            1     -273.8555652772     0.15981680
   2            1     -273.6814813404     0.16498206
   3            1     -273.6288683278     0.12945759
   4            1     -273.5816404425     0.13857190
   5            1     -273.4983234122     0.11824158

 STATE      ITERATION      ENERGY         RESIDUE NORM
   1            2     -273.8935819143     0.02763242
   2            2     -273.7133191724     0.03871347
   3            2     -273.6569162496     0.02707934
   4            2     -273.6082300144     0.02395554
   5            2     -273.5218332869     0.01130826

 STATE      ITERATION      ENERGY         RESIDUE NORM
   1            3     -273.8941456089     0.00458568
   2            3     -273.7144085689     0.00865334
   3            3     -273.6577146826     0.00570005
   4            3     -273.6089676909     0.00645152
   5            3     -273.5219824075     0.00166056

 STATE      ITERATION      ENERGY         RESIDUE NORM
   1            4     -273.8941628843     0.00115522
   2            4     -273.7144512183     0.00206724
   3            4     -273.6577465812     0.00084436
   4            4     -273.6090054704     0.00136768
   5            4     -273.5219847492     0.00053405

 STATE      ITERATION      ENERGY         RESIDUE NORM
   1            5     -273.8941634674     0.00023135
   2            5     -273.7144527834     0.00029438
   3            5     -273.6577470399     0.00011293
   4            5     -273.6090067292     0.00023535
   5            5     -273.5219849814     0.00016129

 STATE      ITERATION      ENERGY         RESIDUE NORM
   1            6     -273.8941634855     0.00002325
   2            6     -273.7144528149     0.00006103
   3            6     -273.6577470495     0.00002241
   4            6     -273.6090067623     0.00005310
   5            6     -273.5219849928     0.00004495

 STATE      ITERATION      ENERGY         RESIDUE NORM
   1            7     -273.8941634857     0.00000449
   2            7     -273.7144528166     0.00001280
   3            7     -273.6577470498     0.00000385
   4            7     -273.6090067633     0.00001051
   5            7     -273.5219849937     0.00000927

 STATE      ITERATION      ENERGY         RESIDUE NORM
   1            8     -273.8941634857     0.00000075
   2            8     -273.7144528166     0.00000178
   3            8     -273.6577470498     0.00000067
   4            8     -273.6090067634     0.00000172
   5            8     -273.5219849937     0.00000204
  
   -----------------------------------  
     SPIN-FLIP CALCULATION CONVERGED
   -----------------------------------  
 NUMBER OF USED VECTORS / MAX =  45 / 200
 NUMBER OF ITERATIONS   / MAX =   8 /  50
 NUMBER OF SINGLE EXCITATIONS =   425
 NUMBER OF ATOMIC ORBITALS    =  40

     -----------------------------------
     ALPHA -> BETA SPIN-FLIP EXCITATIONS
     -----------------------------------

 STATE #   1  ENERGY =   -4.594407 EV
 SYMMETRY OF STATE   =    A   
 S-SQUARED           =    0.0779
        DRF    COEF       OCC(A)    VIR(B)
        ---    ----       ------    ------
         17  0.969773        17  ->    16
         67  0.196129        16  ->    19
        153  0.100835        17  ->    24
        169  0.061756        16  ->    25

 STATE #   2  ENERGY =    0.295769 EV
 SYMMETRY OF STATE   =    A   
 S-SQUARED           =    2.1511
        DRF    COEF       OCC(A)    VIR(B)
        ---    ----       ------    ------
         10  0.076781        10  ->    16
         16  0.694329        16  ->    16
         48  0.078004        14  ->    18
         68  0.684456        17  ->    19
        152  0.094758        16  ->    24
        170  0.138552        17  ->    25

 STATE #   3  ENERGY =    1.838811 EV
 SYMMETRY OF STATE   =    A   
 S-SQUARED           =    1.0435
        DRF    COEF       OCC(A)    VIR(B)
        ---    ----       ------    ------
         14 -0.080148        14  ->    16
         34  0.967123        17  ->    17
         50 -0.194958        16  ->    18
        136 -0.060654        17  ->    23
        203  0.061230        16  ->    27
        221  0.059015        17  ->    28

 STATE #   4  ENERGY =    3.165102 EV
 SYMMETRY OF STATE   =    A   
 S-SQUARED           =    1.0349
        DRF    COEF       OCC(A)    VIR(B)
        ---    ----       ------    ------
         15  0.117991        15  ->    16
         27 -0.052418        10  ->    17
         33 -0.270233        16  ->    17
         51  0.931542        17  ->    18
         65  0.085454        14  ->    19
         84 -0.078954        16  ->    20
        119 -0.090527        17  ->    22
        204 -0.088989        17  ->    27

 STATE #   5  ENERGY =    5.533084 EV
 SYMMETRY OF STATE   =    A   
 S-SQUARED           =    1.0541
        DRF    COEF       OCC(A)    VIR(B)
        ---    ----       ------    ------
          7  0.071888         7  ->    16
         15  0.968529        15  ->    16
         51 -0.127012        17  ->    18
         65  0.170800        14  ->    19
        151  0.061948        15  ->    24

          ----------------------------
          SUMMARY OF SPIN-FLIP RESULTS
          ----------------------------

   STATE             ENERGY     EXCITATION     S-SQUARED

 1 NEGATIVE ROOT(S) FOUND.
   1  A         -273.8941634857   -4.594        0.0779
   0  A         -273.7253221160    0.000               (REFERENCE STATE)
   2  A         -273.7144528166    0.296        2.1511
   3  A         -273.6577470498    1.839        1.0435
   4  A         -273.6090067634    3.165        1.0349
   5  A         -273.5219849937    5.533        1.0541
  
 SELECTING EXCITED STATE IROOT=   1 AT E=     -273.8941634857
 AS THE STATE OF INTEREST.

 ..... DONE WITH SFCIS   EXCITATION ENERGIES .....
 STEP CPU TIME =     0.07 TOTAL CPU TIME =        0.2 (    0.0 MIN)
 TOTAL WALL CLOCK TIME=        0.2 SECONDS, CPU UTILIZATION IS  94.74%

 -----------------------------------------------------------------------
                   SF-CIS ENERGY GRADIENT CALCULATION
 -----------------------------------------------------------------------

    -------------------------
       START Z-VECTOR LOOP
    -------------------------
 INITIAL ERROR =    3.942E-02 / 1.000E-10
 ITER# 1 ERROR =    5.224E-03 / 1.000E-10
 ITER# 2 ERROR =    4.678E-03 / 1.000E-10
 ITER# 3 ERROR =    1.048E-03 / 1.000E-10
 ITER# 4 ERROR =    8.253E-05 / 1.000E-10
 ITER# 5 ERROR =    1.296E-05 / 1.000E-10
 ITER# 6 ERROR =    9.960E-07 / 1.000E-10
 ITER# 7 ERROR =    4.963E-08 / 1.000E-10
 ITER# 8 ERROR =    2.258E-09 / 1.000E-10
 ITER# 9 ERROR =    5.252E-11 / 1.000E-10
    -------------------------
        Z-VECTOR CONVERGED          
    -------------------------
 ..... DONE WITH SF-CIS EXCITED STATE RESPONSE AND DENSITY MATRIX .....
 STEP CPU TIME =     0.15 TOTAL CPU TIME =        0.3 (    0.0 MIN)
 TOTAL WALL CLOCK TIME=        0.3 SECONDS, CPU UTILIZATION IS  97.06%

     -------------------------------------------------------------
     SFCIS PROPERTIES...FOR THE WAVEFUNCTION OF EXCITED STATE    1
               USING THE RESPONSE (OR RELAXED) DENSITY
     -------------------------------------------------------------

          -----------------
          ENERGY COMPONENTS
          -----------------

         WAVEFUNCTION NORMALIZATION =       1.0000000000

                ONE ELECTRON ENERGY =    -632.8315636418
                TWO ELECTRON ENERGY =     230.3182645629
           NUCLEAR REPULSION ENERGY =     128.6191355931
                                      ------------------
                       TOTAL ENERGY =    -273.8941634857

 ELECTRON-ELECTRON POTENTIAL ENERGY =     230.3182645629
  NUCLEUS-ELECTRON POTENTIAL ENERGY =    -908.1022631505
   NUCLEUS-NUCLEUS POTENTIAL ENERGY =     128.6191355931
                                      ------------------
             TOTAL POTENTIAL ENERGY =    -549.1648629945
               TOTAL KINETIC ENERGY =     275.2706995088
                 VIRIAL RATIO (V/T) =       1.9949993369

          ---------------------------------------
          MULLIKEN AND LOWDIN POPULATION ANALYSES
          ---------------------------------------

     ATOMIC SPIN POPULATION (ALPHA MINUS BETA)
       ATOM         MULL.POP.                    LOW.POP.
    1 C             0.035365                     0.026475
    2 C             0.035365                     0.026475
    3 F            -0.005473                    -0.004169
    4 F            -0.005473                    -0.004169
    5 H            -0.029892                    -0.022306
    6 H            -0.029892                    -0.022306


          ********* ALL ELECTRONS ********

               ----- POPULATIONS IN EACH AO -----
                             MULLIKEN      LOWDIN
              1  C  1  S      1.98735     1.97504
              2  C  1  S      0.42455     0.42520
              3  C  1  X      0.54863     0.52640
              4  C  1  Y      0.63727     0.61112
              5  C  1  Z      0.51141     0.50926
              6  C  1  S      0.62940     0.54082
              7  C  1  X      0.56323     0.58563
              8  C  1  Y      0.25601     0.45101
              9  C  1  Z      0.21446     0.41793
             10  C  2  S      1.98735     1.97504
             11  C  2  S      0.42455     0.42520
             12  C  2  X      0.54863     0.52640
             13  C  2  Y      0.63727     0.61112
             14  C  2  Z      0.51141     0.50926
             15  C  2  S      0.62940     0.54082
             16  C  2  X      0.56323     0.58563
             17  C  2  Y      0.25601     0.45101
             18  C  2  Z      0.21446     0.41793
             19  F  3  S      1.98581     1.98081
             20  F  3  S      0.44195     0.59596
             21  F  3  X      0.90100     0.91096
             22  F  3  Y      0.87053     0.87114
             23  F  3  Z      0.81603     0.80876
             24  F  3  S      1.55575     1.03617
             25  F  3  X      0.98713     0.97702
             26  F  3  Y      0.92265     0.93378
             27  F  3  Z      0.83753     0.86740
             28  F  4  S      1.98581     1.98081
             29  F  4  S      0.44195     0.59596
             30  F  4  X      0.90100     0.91096
             31  F  4  Y      0.87053     0.87114
             32  F  4  Z      0.81603     0.80876
             33  F  4  S      1.55575     1.03617
             34  F  4  X      0.98713     0.97702
             35  F  4  Y      0.92265     0.93378
             36  F  4  Z      0.83753     0.86740
             37  H  5  S      0.37048     0.39286
             38  H  5  S      0.53882     0.58273
             39  H  6  S      0.37048     0.39286
             40  H  6  S      0.53882     0.58273

          ----- MULLIKEN ATOMIC OVERLAP POPULATIONS -----
          (OFF-DIAGONAL ELEMENTS NEED TO BE MULTIPLIED BY 2)

             1           2           3           4           5

    1    4.9074650
    2    0.4602376   4.9074650
    3    0.1539466  -0.0738346   9.2790544
    4   -0.0738346   0.1539466   0.0016215   9.2790544
    5   -0.0549171   0.3794213   0.0010076  -0.0434073   0.6237686
    6    0.3794213  -0.0549171  -0.0434073   0.0010076   0.0034202

             6

    6    0.6237686

          TOTAL MULLIKEN AND LOWDIN ATOMIC POPULATIONS
       ATOM         MULL.POP.    CHARGE          LOW.POP.     CHARGE
    1 C             5.772319    0.227681         6.042417   -0.042417
    2 C             5.772319    0.227681         6.042417   -0.042417
    3 F             9.318388   -0.318388         8.981991    0.018009
    4 F             9.318388   -0.318388         8.981991    0.018009
    5 H             0.909293    0.090707         0.975592    0.024408
    6 H             0.909293    0.090707         0.975592    0.024408

          -------------------------------
          BOND ORDER AND VALENCE ANALYSIS     BOND ORDER THRESHOLD=0.050
          -------------------------------

                   BOND                       BOND                       BOND
  ATOM PAIR DIST  ORDER      ATOM PAIR DIST  ORDER      ATOM PAIR DIST  ORDER
    1   2  1.301  1.553        1   3  1.065  0.809        1   4  2.073  0.080
    1   6  1.358  0.938        2   3  2.073  0.080        2   4  1.065  0.809
    2   5  1.358  0.938

                       TOTAL       BONDED        FREE
      ATOM            VALENCE     VALENCE     VALENCE
    1 C                 3.515       3.372       0.143
    2 C                 3.515       3.372       0.143
    3 F                 0.965       0.957       0.007
    4 F                 0.965       0.957       0.007
    5 H                 0.971       0.991      -0.020
    6 H                 0.971       0.991      -0.020

          -----------------------------------------
          ATOMIC SPIN DENSITY AT THE NUCLEUS (A.U.)
          -----------------------------------------
                            SPIN DENS    ALPHA DENS     BETA DENS
    1  C            6.0     0.0131561      47.00765      46.99449
    2  C            6.0     0.0131561      47.00765      46.99449
    3  F            9.0     0.0029291     168.72862     168.72569
    4  F            9.0     0.0029291     168.72862     168.72569
    5  H            1.0    -0.0075648       0.13681       0.14437
    6  H            1.0    -0.0075648       0.13681       0.14437

          ---------------------
          ELECTROSTATIC MOMENTS
          ---------------------

 POINT   1           X           Y           Z (BOHR)    CHARGE
                 0.000000    0.000000   -0.976289       -0.00 (A.U.)
         DX          DY          DZ         /D/  (DEBYE)
    -0.000000    0.000000    0.473612    0.473612
 ...... END OF PROPERTY EVALUATION ......
 STEP CPU TIME =     0.01 TOTAL CPU TIME =        0.3 (    0.0 MIN)
 TOTAL WALL CLOCK TIME=        0.4 SECONDS, CPU UTILIZATION IS  97.14%

 BEGINNING ONE ELECTRON GRADIENT...
 ..... END OF 1-ELECTRON GRADIENT ......
 STEP CPU TIME =     0.00 TOTAL CPU TIME =        0.3 (    0.0 MIN)
 TOTAL WALL CLOCK TIME=        0.4 SECONDS, CPU UTILIZATION IS  97.14%

          ----------------------
          GRADIENT OF THE ENERGY
          ----------------------
 THE COARSE/FINE SCHWARZ SCREENINGS SKIPPED         1700/         416 BLOCKS.
 THE NUMBER OF GRADIENT INTEGRAL BLOCKS COMPUTED WAS      7104
 ...... END OF 2-ELECTRON GRADIENT ......
 STEP CPU TIME =     0.02 TOTAL CPU TIME =        0.4 (    0.0 MIN)
 TOTAL WALL CLOCK TIME=        0.4 SECONDS, CPU UTILIZATION IS  97.30%

                         ----------------------
                         GRADIENT OF THE ENERGY
                         ----------------------

 UNITS ARE HARTREE/BOHR    E'X               E'Y               E'Z 
    1 C                0.000000000       0.239998370      -0.641908262
    2 C                0.000000000      -0.239998370      -0.641908262
    3 F                0.000000000      -0.368616341       0.568584137
    4 F                0.000000000       0.368616341       0.568584137
    5 H                0.000000000      -0.064883949       0.073324126
    6 H                0.000000000       0.064883949       0.073324125

                   MAXIMUM GRADIENT =    0.641908262
                       RMS GRADIENT =    0.322903102
  $VIB   
          IVIB=   0 IATOM=   0 ICOORD=   0 E=     -273.8941634857
  0.000000000E+00 2.399983701E-01-6.419082623E-01 0.000000000E+00-2.399983702E-01
 -6.419082623E-01 0.000000000E+00-3.686163411E-01 5.685841366E-01 0.000000000E+00
  3.686163412E-01 5.685841369E-01 0.000000000E+00-6.488394895E-02 7.332412555E-02
  0.000000000E+00 6.488394906E-02 7.332412545E-02
 -1.043976806E-16 1.367770926E-08 4.736120284E-01

..... END OF SINGLE POINT GRADIENT .....
 STEP CPU TIME =     0.00 TOTAL CPU TIME =        0.4 (    0.0 MIN)
 TOTAL WALL CLOCK TIME=        0.4 SECONDS, CPU UTILIZATION IS  94.74%
               580000  WORDS OF DYNAMIC MEMORY USED
 EXECUTION OF GAMESS TERMINATED NORMALLY Wed Aug  9 22:24:12 2017
 DDI: 263640 bytes (0.3 MB / 0 MWords) used by master data server.

 ----------------------------------------
 CPU timing information for all processes
 ========================================
 0: 0.347 + 0.25 = 0.373
 ----------------------------------------
 ddikick.x: exited gracefully.
unset echo
----- accounting info -----
Files used on the master node compute-1-0.local were:
-rw-rw-r-- 1 sarom sarom 2.0K Aug  9 22:24 /scratch/cis-sf-uhf.F05
-rw-rw-r-- 1 sarom sarom 1.9M Aug  9 22:24 /scratch/cis-sf-uhf.F08
-rw-rw-r-- 1 sarom sarom 2.2M Aug  9 22:24 /scratch/cis-sf-uhf.F10
rm: cannot remove `/scratch/tmp': Is a directory
ls: No match.
ls: No match.
ls: No match.
Wed Aug  9 22:24:15 CDT 2017
0.255u 0.178s 0:03.88 10.8%	0+0k 0+360io 0pf+0w
/opt/gridengine/default/spool/compute-1-0/active_jobs/36233.1/pe_hostfile compute-1-0.local
