----- GAMESS execution script 'rungms' -----
This job is running on host compute-3-0
under operating system Linux at Mon Nov 28 17:56:50 CST 2016
Available scratch disk space (Kbyte units) at beginning of the job is
Filesystem            1K-blocks       Used  Available Use% Mounted on
bolt.local:/export/home/sarom
                     9590469632 1552080896 7551220736  18% /home/sarom
Copying input file cis-hsioh3-grad.inp to your run's scratch directory...
cp cis-hsioh3-grad.inp .//cis-hsioh3-grad.F05
unset echo
/home/sarom/gamessGH/ddikick.x /home/sarom/gamessGH/gamess.00.x cis-hsioh3-grad -ddi 1 1 localhost -scr ./

 Distributed Data Interface kickoff program.
 Initiating 1 compute processes on 1 nodes to run the following command:
 /home/sarom/gamessGH/gamess.00.x cis-hsioh3-grad 

          ******************************************************
          *         GAMESS VERSION = 18 AUG 2016 (R1)          *
          *             FROM IOWA STATE UNIVERSITY             *
          * M.W.SCHMIDT, K.K.BALDRIDGE, J.A.BOATZ, S.T.ELBERT, *
          *   M.S.GORDON, J.H.JENSEN, S.KOSEKI, N.MATSUNAGA,   *
          *          K.A.NGUYEN, S.J.SU, T.L.WINDUS,           *
          *       TOGETHER WITH M.DUPUIS, J.A.MONTGOMERY       *
          *         J.COMPUT.CHEM.  14, 1347-1363(1993)        *
          **************** 64 BIT LINUX VERSION ****************

  SINCE 1993, STUDENTS AND POSTDOCS WORKING AT IOWA STATE UNIVERSITY
  AND ALSO IN THEIR VARIOUS JOBS AFTER LEAVING ISU HAVE MADE IMPORTANT
  CONTRIBUTIONS TO THE CODE:
     IVANA ADAMOVIC, CHRISTINE AIKENS, YURI ALEXEEV, POOJA ARORA,
     ANDREY ASADCHEV, ROB BELL, PRADIPTA BANDYOPADHYAY, JONATHAN BENTZ,
     BRETT BODE, KURT BRORSEN, CALEB CARLIN, GALINA CHABAN, WEI CHEN,
     CHEOL HO CHOI, PAUL DAY, ALBERT DEFUSCO, NUWAN DESILVA, TIM DUDLEY,
     DMITRI FEDOROV, GRAHAM FLETCHER, MARK FREITAG, KURT GLAESEMANN,
     DAN KEMP, GRANT MERRILL, NORIYUKI MINEZAWA, JONATHAN MULLIN,
     TAKESHI NAGATA, SEAN NEDD, HEATHER NETZLOFF, BOSILJKA NJEGIC, RYAN OLSON,
     MIKE PAK, SPENCER PRUITT, LUKE ROSKOP, JIM SHOEMAKER, LYUDMILA SLIPCHENKO,
     TONY SMITH, SAROM SOK LEANG, JIE SONG, TETSUYA TAKETSUGU, SIMON WEBB,
     PENG XU, SOOHAENG YOO, FEDERICO ZAHARIEV

  ADDITIONAL CODE HAS BEEN PROVIDED BY COLLABORATORS IN OTHER GROUPS:
     IOWA STATE UNIVERSITY:
          JOE IVANIC, AARON WEST, LAIMUTIS BYTAUTAS, KLAUS RUEDENBERG
     UNIVERSITY OF TOKYO: KIMIHIKO HIRAO, TAKAHITO NAKAJIMA,
          TAKAO TSUNEDA, MUNEAKI KAMIYA, SUSUMU YANAGISAWA,
          KIYOSHI YAGI, MAHITO CHIBA, SEIKEN TOKURA, NAOAKI KAWAKAMI
     UNIVERSITY OF AARHUS: FRANK JENSEN
     UNIVERSITY OF IOWA: VISVALDAS KAIRYS, HUI LI
     NATIONAL INST. OF STANDARDS AND TECHNOLOGY: WALT STEVENS, DAVID GARMER
     UNIVERSITY OF PISA: BENEDETTA MENNUCCI, JACOPO TOMASI
     UNIVERSITY OF MEMPHIS: HENRY KURTZ, PRAKASHAN KORAMBATH
     UNIVERSITY OF ALBERTA: TOBY ZENG, MARIUSZ KLOBUKOWSKI
     UNIVERSITY OF NEW ENGLAND: MARK SPACKMAN
     MIE UNIVERSITY: HIROAKI UMEDA
     NAT. INST. OF ADVANCED INDUSTRIAL SCIENCE AND TECHNOLOGY: KAZUO KITAURA
     MICHIGAN STATE UNIVERSITY:
          KAROL KOWALSKI, MARTA WLOCH, JEFFREY GOUR, JESSE LUTZ,
          WEI LI, PIOTR PIECUCH
     UNIVERSITY OF SILESIA: MONIKA MUSIAL, STANISLAW KUCHARSKI
     FACULTES UNIVERSITAIRES NOTRE-DAME DE LA PAIX:
          OLIVIER QUINET, BENOIT CHAMPAGNE
     UNIVERSITY OF CALIFORNIA - SANTA BARBARA: BERNARD KIRTMAN
     INSTITUTE FOR MOLECULAR SCIENCE:
          KAZUYA ISHIMURA, MICHIO KATOUDA, AND SHIGERU NAGASE
     UNIVERSITY OF NOTRE DAME: ANNA POMOGAEVA, DAN CHIPMAN
     KYUSHU UNIVERSITY:
          HARUYUKI NAKANO,
          FENG LONG GU, JACEK KORCHOWIEC, MARCIN MAKOWSKI, AND YURIKO AOKI,
          HIROTOSHI MORI AND EISAKU MIYOSHI
     PENNSYLVANIA STATE UNIVERSITY:
          TZVETELIN IORDANOV, CHET SWALINA, JONATHAN SKONE,
          SHARON HAMMES-SCHIFFER
     WASEDA UNIVERSITY:
          MASATO KOBAYASHI, TOMOKO AKAMA, TSUGUKI TOUMA,
          TAKESHI YOSHIKAWA, YASUHIRO IKABATA, JUNJI SEINO,
          YUYA NAKAJIMA, HIROMI NAKAI
     NANJING UNIVERSITY: SHUHUA LI
     UNIVERSITY OF NEBRASKA:
          PEIFENG SU, DEJUN SI, NANDUN THELLAMUREGE, YALI WANG, HUI LI
     UNIVERSITY OF ZURICH: ROBERTO PEVERATI, KIM BALDRIDGE
     N. COPERNICUS UNIVERSITY AND JACKSON STATE UNIVERSITY:
          MARIA BARYSZ
     UNIVERSITY OF COPENHAGEN: Jimmy Kromann, CASPER STEINMANN
     TOKYO INSTITUTE OF TECHNOLOGY: HIROYA NAKATA
     NAGOYA UNIVERSITY: YOSHIO NISHIMOTO, STEPHAN IRLE
     MOSCOW STATE UNIVERSITY: VLADIMIR MIRONOV

 EXECUTION OF GAMESS BEGUN Mon Nov 28 17:56:50 2016

            ECHO OF THE FIRST FEW INPUT CARDS -
 INPUT CARD>!   HSi(OH)3....72 AOs with 6-31G(d)...gradient of excited state                
 INPUT CARD>!                                                                               
 INPUT CARD>!        ground state's FINAL E= -515.9639827153                                
 INPUT CARD>!   CONVERGED STATE   1  ENERGY= -515.6138807851  S = 1.0  SPACE SYM = A        
 INPUT CARD>!   CONVERGED STATE   2  ENERGY= -515.6088756125  S = 1.0  SPACE SYM = A        
 INPUT CARD>!   CONVERGED STATE   3  ENERGY= -515.6055250630  S = 1.0  SPACE SYM = A        
 INPUT CARD>!   CONVERGED STATE   4  ENERGY= -515.5849778024  S = 0.0  SPACE SYM = A        
 INPUT CARD>!   CONVERGED STATE   5  ENERGY= -515.5829788173  S = 1.0  SPACE SYM = A        
 INPUT CARD>!                                                                               
 INPUT CARD>!   properties and gradient are found for the S3 state,                         
 INPUT CARD>!   NOON= 41.0146 & 0.9854, dipole= 2.316040 Debye, RMS grad= 0.039740005       
 INPUT CARD>!                                                                               
 INPUT CARD>!   this run takes 40 seconds on a 2.66 GHz Cloverton (18 Jun 2014)             
 INPUT CARD>!          results have not changed since February 2007                         
 INPUT CARD>!                                                                               
 INPUT CARD> $contrl scftyp=rhf cityp=cis runtyp=gradient ispher=1 $end                     
 INPUT CARD> $system mwords=10 $end                                                         
 INPUT CARD> $basis  gbasis=accd $end                                                       
 INPUT CARD> $guess  guess=huckel $end                                                      
 INPUT CARD> $scf    dirscf=.true. $end                                                     
 INPUT CARD> $cis    nstate=5 iroot=3 hamtyp=dets $end                                      
 INPUT CARD> $data                                                                          
 INPUT CARD>HSi(OH)3...RHF/6-31G(d) structure...Takako's geometry                           
 INPUT CARD>C1                                                                              
 INPUT CARD>SI 14.0  0.0304799887 -0.0082970972 -0.3288730548                               
 INPUT CARD>H   1.0  0.0703739544 -0.1122076377 -1.7921633064                               
 INPUT CARD>O   8.0 -0.4998851149 1.4440260207 0.2091769299                                 
 INPUT CARD>O   8.0  1.5705088212 -0.2426013499 0.1698918152                                
 INPUT CARD>O   8.0 -1.0316966803 -1.0967883017 0.2991753808                                
 INPUT CARD>H   1.0 -1.3942730891 1.4763780514 0.5196235497                                 
 INPUT CARD>H   1.0  1.7930543871 0.0546478216 1.0418098522                                 
 INPUT CARD>H   1.0 -0.9116534313 -2.0122262661 0.0896833780                                
 INPUT CARD> $end                                                                           
 INPUT CARD>                                                                                
 INPUT CARD>------ C3 is not a minimum, "e" imag freq about 50i, E= -515.9633171000         
 INPUT CARD>H           1.0   0.0000000000   0.0000000000   1.4091712505                    
 INPUT CARD>SI         14.0   0.0000000000   0.0000000000  -0.0558471636                    
 INPUT CARD>O           8.0   1.5354195528   0.1570811175  -0.6163176435                    
 INPUT CARD>H           1.0   1.7204117004   0.9279754134  -1.1347903855                    
   10000000 WORDS OF MEMORY AVAILABLE

     BASIS OPTIONS
     -------------
     GBASIS=ACCD         IGAUSS=       0      POLAR=NONE    
     NDFUNC=       0     NFFUNC=       0     DIFFSP=       F
     NPFUNC=       0      DIFFS=       F     BASNAM=        


     RUN TITLE
     ---------
 HSi(OH)3...RHF/6-31G(d) structure...Takako's geometry                           

 THE POINT GROUP OF THE MOLECULE IS C1      
 THE ORDER OF THE PRINCIPAL AXIS IS     0

 ATOM      ATOMIC                      COORDINATES (BOHR)
           CHARGE         X                   Y                   Z
 SI         14.0     0.0575988268       -0.0156792402       -0.6214799583
 H           1.0     0.1329874905       -0.2120416890       -3.3866975743
 O           8.0    -0.9446458925        2.7288134983        0.3952870805
 O           8.0     2.9678313334       -0.4584500756        0.3210489783
 O           8.0    -1.9496240282       -2.0726293568        0.5653594920
 H           1.0    -2.6347940905        2.7899499714        0.9819461257
 H           1.0     3.3883814727        0.1032694086        1.9687351520
 H           1.0    -1.7227751809       -3.8025562682        0.1694770101

          INTERNUCLEAR DISTANCES (ANGS.)
          ------------------------------

                1 SI         2 H          3 O          4 O          5 O     

   1 SI      0.0000000    1.4675174 *  1.6370789 *  1.6356508 *  1.6454413 *
   2 H       1.4675174 *  0.0000000    2.5985422 *  2.4732706 *  2.5607921 *
   3 O       1.6370789 *  2.5985422 *  0.0000000    2.6707277 *  2.5974335 *
   4 O       1.6356508 *  2.4732706 *  2.6707277 *  0.0000000    2.7418649 *
   5 O       1.6454413 *  2.5607921 *  2.5974335 *  2.7418649 *  0.0000000  
   6 H       2.2257871 *  3.1643568    0.9472875 *  3.4448707    2.6079195 *
   7 H       2.2336970 *  3.3206735    2.8073512 *  0.9476944 *  3.1395111  
   8 H       2.2535610 *  2.8488235 *  3.4827449    3.0494483    0.9467439 *

                6 H          7 H          8 H     

   1 SI      2.2257871 *  2.2336970 *  2.2535610 *
   2 H       3.1643568    3.3206735    2.8488235 *
   3 O       0.9472875 *  2.8073512 *  3.4827449  
   4 O       3.4448707    0.9476944 *  3.0494483  
   5 O       2.6079195 *  3.1395111    0.9467439 *
   6 H       0.0000000    3.5288882    3.5479755  
   7 H       3.5288882    0.0000000    3.5346793  
   8 H       3.5479755    3.5346793    0.0000000  

  * ... LESS THAN  3.000


     ATOMIC BASIS SET
     ----------------
 THE CONTRACTED PRIMITIVE FUNCTIONS HAVE BEEN UNNORMALIZED
 THE CONTRACTED BASIS FUNCTIONS ARE NOW NORMALIZED TO UNITY

  SHELL TYPE  PRIMITIVE        EXPONENT          CONTRACTION COEFFICIENT(S)

 SI        

      1   S       1         78860.0000000    0.000270440361
      1   S       2         11820.0000000    0.002097149533
      1   S       3          2692.0000000    0.010850494103
      1   S       4           763.4000000    0.043674973746
      1   S       5           249.6000000    0.137651656565
      1   S       6            90.2800000    0.316640909688
      1   S       7            35.2900000    0.418576914826
      1   S       8            14.5100000    0.210209948419
      1   S       9             4.0530000    0.014495058533
      1   S      10             1.4820000   -0.002035880130
      1   S      11             0.2517000    0.000624179908

      2   S      12         78860.0000000   -0.000072118640
      2   S      13         11820.0000000   -0.000553588002
      2   S      14          2692.0000000   -0.002929962798
      2   S      15           763.4000000   -0.011736305774
      2   S      16           249.6000000   -0.040179796837
      2   S      17            90.2800000   -0.100332066208
      2   S      18            35.2900000   -0.195987041992
      2   S      19            14.5100000   -0.102100185893
      2   S      20             4.0530000    0.525738870125
      2   S      21             1.4820000    0.591618032286
      2   S      22             0.2517000    0.033173635051

      3   S      23         78860.0000000    0.000033894415
      3   S      24         11820.0000000    0.000260435839
      3   S      25          2692.0000000    0.001377259845
      3   S      26           763.4000000    0.005534765101
      3   S      27           249.6000000    0.018983384271
      3   S      28            90.2800000    0.048075603310
      3   S      29            35.2900000    0.095943020544
      3   S      30            14.5100000    0.053274945303
      3   S      31             4.0530000   -0.325925648932
      3   S      32             1.4820000   -0.635130495260
      3   S      33             0.2517000    1.140757165877

      4   S      34             0.0924300    1.000000000000

      5   P      35           315.9000000    0.003925620896
      5   P      36            74.4200000    0.029873953423
      5   P      37            23.4800000    0.127181575070
      5   P      38             8.4880000    0.320866240982
      5   P      39             3.2170000    0.455320076351
      5   P      40             1.2290000    0.268498768557
      5   P      41             0.2964000    0.018829095622

      6   P      42           315.9000000   -0.001688926960
      6   P      43            74.4200000   -0.012403302714
      6   P      44            23.4800000   -0.056721485067
      6   P      45             8.4880000   -0.136672302886
      6   P      46             3.2170000   -0.235132796141
      6   P      47             1.2290000   -0.039272625666
      6   P      48             0.2964000    1.004081758940

      7   P      49             0.0876800    1.000000000000

      8   D      50             0.2750000    1.000000000000

      9   D      51             1.8030000    1.000000000000

     10   S      52             0.0332000    1.000000000000

     11   P      53             0.0250000    1.000000000000

     12   D      54             0.0840000    1.000000000000

 H         

     13   S      55            13.0100000    0.033498726390
     13   S      56             1.9620000    0.234800801174
     13   S      57             0.4446000    0.813682957883

     14   S      58             0.1220000    1.000000000000

     15   P      59             0.7270000    1.000000000000

     16   S      60             0.0297400    1.000000000000

     17   P      61             0.1410000    1.000000000000

 O         

     18   S      62         11720.0000000    0.000709645947
     18   S      63          1759.0000000    0.005467272292
     18   S      64           400.8000000    0.027823118610
     18   S      65           113.7000000    0.104747739711
     18   S      66            37.0300000    0.282920846357
     18   S      67            13.2700000    0.448495238698
     18   S      68             5.0250000    0.270816885213
     18   S      69             1.0130000    0.015450291607

     19   S      70         11720.0000000   -0.000314443412
     19   S      71          1759.0000000   -0.002482137681
     19   S      72           400.8000000   -0.012316355382
     19   S      73           113.7000000   -0.050538917344
     19   S      74            37.0300000   -0.139384903316
     19   S      75            13.2700000   -0.325077494818
     19   S      76             5.0250000   -0.229848307588
     19   S      77             1.0130000    1.095379346788

     20   S      78             0.3023000    1.000000000000

     21   P      79            17.7000000    0.062679166282
     21   P      80             3.8540000    0.333536565879
     21   P      81             1.0460000    0.741239641640

     22   P      82             0.2753000    1.000000000000

     23   D      83             1.1850000    1.000000000000

     24   S      84             0.0789600    1.000000000000

     25   P      85             0.0685600    1.000000000000

     26   D      86             0.3320000    1.000000000000

 O         

     27   S      87         11720.0000000    0.000709645947
     27   S      88          1759.0000000    0.005467272292
     27   S      89           400.8000000    0.027823118610
     27   S      90           113.7000000    0.104747739711
     27   S      91            37.0300000    0.282920846357
     27   S      92            13.2700000    0.448495238698
     27   S      93             5.0250000    0.270816885213
     27   S      94             1.0130000    0.015450291607

     28   S      95         11720.0000000   -0.000314443412
     28   S      96          1759.0000000   -0.002482137681
     28   S      97           400.8000000   -0.012316355382
     28   S      98           113.7000000   -0.050538917344
     28   S      99            37.0300000   -0.139384903316
     28   S     100            13.2700000   -0.325077494818
     28   S     101             5.0250000   -0.229848307588
     28   S     102             1.0130000    1.095379346788

     29   S     103             0.3023000    1.000000000000

     30   P     104            17.7000000    0.062679166282
     30   P     105             3.8540000    0.333536565879
     30   P     106             1.0460000    0.741239641640

     31   P     107             0.2753000    1.000000000000

     32   D     108             1.1850000    1.000000000000

     33   S     109             0.0789600    1.000000000000

     34   P     110             0.0685600    1.000000000000

     35   D     111             0.3320000    1.000000000000

 O         

     36   S     112         11720.0000000    0.000709645947
     36   S     113          1759.0000000    0.005467272292
     36   S     114           400.8000000    0.027823118610
     36   S     115           113.7000000    0.104747739711
     36   S     116            37.0300000    0.282920846357
     36   S     117            13.2700000    0.448495238698
     36   S     118             5.0250000    0.270816885213
     36   S     119             1.0130000    0.015450291607

     37   S     120         11720.0000000   -0.000314443412
     37   S     121          1759.0000000   -0.002482137681
     37   S     122           400.8000000   -0.012316355382
     37   S     123           113.7000000   -0.050538917344
     37   S     124            37.0300000   -0.139384903316
     37   S     125            13.2700000   -0.325077494818
     37   S     126             5.0250000   -0.229848307588
     37   S     127             1.0130000    1.095379346788

     38   S     128             0.3023000    1.000000000000

     39   P     129            17.7000000    0.062679166282
     39   P     130             3.8540000    0.333536565879
     39   P     131             1.0460000    0.741239641640

     40   P     132             0.2753000    1.000000000000

     41   D     133             1.1850000    1.000000000000

     42   S     134             0.0789600    1.000000000000

     43   P     135             0.0685600    1.000000000000

     44   D     136             0.3320000    1.000000000000

 H         

     45   S     137            13.0100000    0.033498726390
     45   S     138             1.9620000    0.234800801174
     45   S     139             0.4446000    0.813682957883

     46   S     140             0.1220000    1.000000000000

     47   P     141             0.7270000    1.000000000000

     48   S     142             0.0297400    1.000000000000

     49   P     143             0.1410000    1.000000000000

 H         

     50   S     144            13.0100000    0.033498726390
     50   S     145             1.9620000    0.234800801174
     50   S     146             0.4446000    0.813682957883

     51   S     147             0.1220000    1.000000000000

     52   P     148             0.7270000    1.000000000000

     53   S     149             0.0297400    1.000000000000

     54   P     150             0.1410000    1.000000000000

 H         

     55   S     151            13.0100000    0.033498726390
     55   S     152             1.9620000    0.234800801174
     55   S     153             0.4446000    0.813682957883

     56   S     154             0.1220000    1.000000000000

     57   P     155             0.7270000    1.000000000000

     58   S     156             0.0297400    1.000000000000

     59   P     157             0.1410000    1.000000000000

 TOTAL NUMBER OF BASIS SET SHELLS             =   59
 NUMBER OF CARTESIAN GAUSSIAN BASIS FUNCTIONS =  146
 NOTE: THIS RUN WILL RESTRICT THE MO VARIATION SPACE TO SPHERICAL HARMONICS.
 THE NUMBER OF ORBITALS KEPT IN THE VARIATIONAL SPACE WILL BE PRINTED LATER.
 NUMBER OF ELECTRONS                          =   42
 CHARGE OF MOLECULE                           =    0
 SPIN MULTIPLICITY                            =    1
 NUMBER OF OCCUPIED ORBITALS (ALPHA)          =   21
 NUMBER OF OCCUPIED ORBITALS (BETA )          =   21
 TOTAL NUMBER OF ATOMS                        =    8
 THE NUCLEAR REPULSION ENERGY IS      189.1856182149

     $CONTRL OPTIONS
     ---------------
 SCFTYP=RHF          RUNTYP=GRADIENT     EXETYP=RUN     
 MPLEVL=       0     CITYP =CIS          CCTYP =NONE         VBTYP =NONE    
 DFTTYP=NONE         TDDFT =NONE    
 MULT  =       1     ICHARG=       0     NZVAR =       0     COORD =UNIQUE  
 PP    =NONE         RELWFN=NONE         LOCAL =NONE         NUMGRD=       F
 ISPHER=       1     NOSYM =       0     MAXIT =      30     UNITS =ANGS    
 PLTORB=       F     MOLPLT=       F     AIMPAC=       F     FRIEND=        
 NPRINT=       7     IREST =       0     GEOM  =INPUT   
 NORMF =       0     NORMP =       0     ITOL  =      20     ICUT  =       9
 INTTYP=BEST         GRDTYP=BEST         QMTTOL= 1.0E-06

     $SYSTEM OPTIONS
     ---------------
  REPLICATED MEMORY=    10000000 WORDS (ON EVERY NODE).
 DISTRIBUTED MEMDDI=           0 MILLION WORDS IN AGGREGATE,
 MEMDDI DISTRIBUTED OVER   1 PROCESSORS IS           0 WORDS/PROCESSOR.
 TOTAL MEMORY REQUESTED ON EACH PROCESSOR=    10000000 WORDS.
 TIMLIM=      525600.00 MINUTES, OR     365.0 DAYS.
 PARALL= F  BALTYP=  DLB     KDIAG=    0  COREFL= F
 MXSEQ2=     300 MXSEQ3=     150  mem10=         0

          ----------------
          PROPERTIES INPUT
          ----------------

     MOMENTS            FIELD           POTENTIAL          DENSITY
 IEMOM =       1   IEFLD =       0   IEPOT =       0   IEDEN =       0
 WHERE =COMASS     WHERE =NUCLEI     WHERE =NUCLEI     WHERE =NUCLEI  
 OUTPUT=BOTH       OUTPUT=BOTH       OUTPUT=BOTH       OUTPUT=BOTH    
 IEMINT=       0   IEFINT=       0                     IEDINT=       0
                                                       MORB  =       0
          EXTRAPOLATION IN EFFECT
          SOSCF IN EFFECT
 ORBITAL PRINTING OPTION: NPREO=     1   146     2     1

     -------------------------------
     INTEGRAL TRANSFORMATION OPTIONS
     -------------------------------
     NWORD  =            0
     CUTOFF = 1.0E-09     MPTRAN =       0
     DIRTRF =       T     AOINTS =DUP     

          ----------------------
          INTEGRAL INPUT OPTIONS
          ----------------------
 NOPK  =       1 NORDER=       0 SCHWRZ=       T

     ------------------------------
     CI-SINGLES CONTROL INFORMATION
     ------------------------------
     NACORE =        8  NBCORE   =        8
     NSTATE =        5  IROOT    =        3
     HAMTYP = DETS      SAP MULT =        1
     DIAGZN = DAVID     MXVEC    =       40
     NDAVIT =       50  DAVCVG   = 5.00E-06
     CISPRP =        F  NGSVEC   =       10
     MNMEDG =        F  MNMEOP   =        F
     CHFSLV = CONJG     RDCISV   =        F
     DGAPRX =        T

     NUMBER OF CORE -A-  ORBITALS =     8
     NUMBER OF CORE -B-  ORBITALS =     8
     NUMBER OF OCC. -A-  ORBITALS =    21
     NUMBER OF OCC. -B-  ORBITALS =    21
     NUMBER OF MOLECULAR ORBITALS =   146
     NUMBER OF   BASIS  FUNCTIONS =   146


     ------------------------------------------
     THE POINT GROUP IS C1 , NAXIS= 0, ORDER= 1
     ------------------------------------------

 -- VARIATIONAL SPACE WILL BE RESTRICTED TO PURE SPHERICAL HARMONICS ONLY --
 AFTER EXCLUDING CONTAMINANT COMBINATIONS FROM THE CARTESIAN GAUSSIAN BASIS
 SET, THE NUMBER OF SPHERICAL HARMONICS KEPT IN THE VARIATION SPACE IS  137

     DIMENSIONS OF THE SYMMETRY SUBSPACES ARE
 A   =  137

 ..... DONE SETTING UP THE RUN .....
 STEP CPU TIME =     0.03 TOTAL CPU TIME =        0.0 (    0.0 MIN)
 TOTAL WALL CLOCK TIME=        0.0 SECONDS, CPU UTILIZATION IS 100.00%

                    --------------------------------
                    SINGLE POINT ENERGY AND GRADIENT
                    --------------------------------

          ********************
          1 ELECTRON INTEGRALS
          ********************
 ...... END OF ONE-ELECTRON INTEGRALS ......
 STEP CPU TIME =     0.01 TOTAL CPU TIME =        0.0 (    0.0 MIN)
 TOTAL WALL CLOCK TIME=        0.0 SECONDS, CPU UTILIZATION IS  80.00%

          -------------
          GUESS OPTIONS
          -------------
          GUESS =HUCKEL            NORB  =       0          NORDER=       0
          MIX   =       F          PRTMO =       F          PUNMO =       F
          TOLZ  = 1.0E-08          TOLE  = 1.0E-05
          SYMDEN=       F          PURIFY=       F

 INITIAL GUESS ORBITALS GENERATED BY HUCKEL   ROUTINE.
 HUCKEL GUESS REQUIRES    163096 WORDS.

 STATISTICS FOR GENERATION OF SYMMETRY ORBITAL -Q- MATRIX
 NUMBER OF CARTESIAN ATOMIC ORBITALS=        146
 NUMBER OF SPHERICAL CONTAMINANTS DROPPED=     9
 NUMBER OF LINEARLY DEPENDENT MOS DROPPED=     0
 TOTAL NUMBER OF MOS IN VARIATION SPACE=     137

 SYMMETRIES FOR INITIAL GUESS ORBITALS FOLLOW.   BOTH SET(S).
    21 ORBITALS ARE OCCUPIED (    8 CORE ORBITALS).
     9=A       10=A       11=A       12=A       13=A       14=A       15=A   
    16=A       17=A       18=A       19=A       20=A       21=A       22=A   
    23=A       24=A       25=A       26=A       27=A       28=A       29=A   
    30=A       31=A   
 ...... END OF INITIAL ORBITAL SELECTION ......
 STEP CPU TIME =     0.04 TOTAL CPU TIME =        0.1 (    0.0 MIN)
 TOTAL WALL CLOCK TIME=        0.1 SECONDS, CPU UTILIZATION IS  88.89%

                    ----------------------
                    AO INTEGRAL TECHNOLOGY
                    ----------------------
     S,P,L SHELL ROTATED AXIS INTEGRALS, REPROGRAMMED BY
        KAZUYA ISHIMURA (IMS) AND JOSE SIERRA (SYNSTAR).
     S,P,D,L SHELL ROTATED AXIS INTEGRALS PROGRAMMED BY
        KAZUYA ISHIMURA (INSTITUTE FOR MOLECULAR SCIENCE).
     S,P,D,F,G SHELL TO TOTAL QUARTET ANGULAR MOMENTUM SUM 5,
        ERIC PROGRAM BY GRAHAM FLETCHER (ELORET AND NASA ADVANCED
        SUPERCOMPUTING DIVISION, AMES RESEARCH CENTER).
     S,P,D,F,G,L SHELL GENERAL RYS QUADRATURE PROGRAMMED BY
        MICHEL DUPUIS (PACIFIC NORTHWEST NATIONAL LABORATORY).

          --------------------
          2 ELECTRON INTEGRALS
          --------------------

 DIRECT SCF METHOD SKIPS INTEGRAL STORAGE ON DISK.
 DIRECT TRANSFORMATION SKIPS AO INTEGRAL STORAGE ON DISK.
  ...... END OF TWO-ELECTRON INTEGRALS .....
 STEP CPU TIME =     0.02 TOTAL CPU TIME =        0.1 (    0.0 MIN)
 TOTAL WALL CLOCK TIME=        0.2 SECONDS, CPU UTILIZATION IS  50.00%

          --------------------------
                 RHF SCF CALCULATION
          --------------------------

     NUCLEAR ENERGY =       189.1856182149
     MAXIT =   30     NPUNCH=    2
     EXTRAP=T  DAMP=F  SHIFT=F  RSTRCT=F  DIIS=F  DEM=F  SOSCF=T
     DENSITY MATRIX CONV=  2.00E-06
     SOSCF WILL OPTIMIZE    2436 ORBITAL ROTATIONS, SOGTOL=   0.250
     MEMORY REQUIRED FOR RHF ITERS=    209936 WORDS.

 DIRECT SCF CALCULATION, SCHWRZ=T   FDIFF=T,  DIRTHR=  0.00E+00 NITDIR=10
 SCHWARZ INEQUALITY OVERHEAD:     10731 INTEGRALS, T=        0.02

                                                                                   NONZERO     BLOCKS
 ITER EX DEM     TOTAL ENERGY        E CHANGE  DENSITY CHANGE     ORB. GRAD      INTEGRALS    SKIPPED
   1  0  0     -515.0224219829  -515.0224219829   0.275483440   0.000000000       56192793      23755
          ---------------START SECOND ORDER SCF---------------
   2  1  0     -515.9975571913    -0.9751352084   0.073577342   0.033554852       56276158      23979
   3  2  0     -516.0476743695    -0.0501171781   0.067296096   0.007723559       56038649      40085
   4  3  0     -516.0523744488    -0.0047000794   0.003723066   0.002165337       55751176      52369
   5  4  0     -516.0525398358    -0.0001653870   0.002143356   0.000660095       55103926      77312
   6  5  0     -516.0525632132    -0.0000233774   0.001061464   0.000211620       54459632      97276
   7  6  0     -516.0525650485    -0.0000018352   0.000124938   0.000040713       53613129     125436
   8  7  0     -516.0525651516    -0.0000001031   0.000036709   0.000013281       52195147     164614
   9  8  0     -516.0525651579    -0.0000000064   0.000021396   0.000005023       50326653     215754
  10  9  0     -516.0525651563     0.0000000017   0.000002818   0.000000897       48205373     270758
  11 10  0     -516.0525651563    -0.0000000000   0.000001009   0.000000168       46788933     315484

          -----------------
          DENSITY CONVERGED
          -----------------
     TIME TO FORM FOCK OPERATORS=      47.8 SECONDS (       4.3 SEC/ITER)
     FOCK TIME ON FIRST ITERATION=       4.8, LAST ITERATION=       3.4
     TIME TO SOLVE SCF EQUATIONS=       0.1 SECONDS (       0.0 SEC/ITER)

 FINAL RHF ENERGY IS     -516.0525651563 AFTER  11 ITERATIONS

          ------------
          EIGENVECTORS
          ------------

                      1          2          3          4          5
                  -68.8445   -20.5739   -20.5708   -20.5703    -6.1795
                     A          A          A          A          A   
    1  SI 1  S    1.000085   0.000046   0.000051   0.000065   0.001344
    2  SI 1  S    0.000622   0.000437   0.000472   0.000585   1.013438
    3  SI 1  S    0.000867   0.000754   0.000802   0.000955   0.016207
    4  SI 1  S   -0.001326   0.003675   0.003772   0.004467  -0.048396
    5  SI 1  X    0.000000  -0.000345  -0.000192   0.000544  -0.000014
    6  SI 1  Y    0.000001  -0.000369   0.000538  -0.000092   0.000204
    7  SI 1  Z    0.000084   0.000230   0.000207   0.000192   0.003381
    8  SI 1  X   -0.000001  -0.000928  -0.000527   0.001460  -0.000198
    9  SI 1  Y   -0.000001  -0.000996   0.001437  -0.000239   0.000007
   10  SI 1  Z    0.000164   0.000623   0.000567   0.000518   0.002116
   11  SI 1  X   -0.000034  -0.003802  -0.001002   0.005208  -0.000367
   12  SI 1  Y   -0.000103  -0.001859   0.004185  -0.000667  -0.002059
   13  SI 1  Z   -0.000466   0.002106   0.001721  -0.000170  -0.012637
   14  SI 1 XX    0.000072   0.000086  -0.000207   0.000739   0.000737
   15  SI 1 YY    0.000012   0.000224   0.000590  -0.000426   0.000099
   16  SI 1 ZZ   -0.000084  -0.000310  -0.000383  -0.000313  -0.000835
   17  SI 1 XY    0.000003   0.000680  -0.000538  -0.000139   0.000022
   18  SI 1 XZ   -0.000005  -0.000563  -0.000254   0.000675  -0.000124
   19  SI 1 YZ   -0.000007  -0.000496   0.000636  -0.000088   0.000033
   20  SI 1 XX    0.000002   0.000013  -0.000040   0.000081   0.000118
   21  SI 1 YY    0.000003   0.000013   0.000068  -0.000044   0.000222
   22  SI 1 ZZ   -0.000005  -0.000025  -0.000028  -0.000037  -0.000340
   23  SI 1 XY    0.000000   0.000067  -0.000047  -0.000026   0.000013
   24  SI 1 XZ   -0.000000  -0.000023  -0.000011   0.000031  -0.000017
   25  SI 1 YZ    0.000000  -0.000031   0.000036  -0.000007  -0.000073
   26  SI 1  S   -0.000453   0.002479   0.001597   0.001433  -0.012936
   27  SI 1  X    0.000038  -0.000266  -0.000161   0.000076   0.000799
   28  SI 1  Y    0.000004  -0.000259   0.000038   0.000056   0.000244
   29  SI 1  Z   -0.000053  -0.000078   0.000036   0.000245  -0.001604
   30  SI 1 XX   -0.000172   0.000765  -0.000563   0.001001  -0.003435
   31  SI 1 YY   -0.000053   0.000039   0.000856  -0.000843  -0.001357
   32  SI 1 ZZ    0.000225  -0.000804  -0.000293  -0.000158   0.004792
   33  SI 1 XY    0.000050   0.000122  -0.000278  -0.000531   0.000958
   34  SI 1 XZ    0.000075  -0.001685   0.000328   0.000260   0.001299
   35  SI 1 YZ   -0.000005  -0.000375   0.000644  -0.000116  -0.000160
   36  H  2  S   -0.000007   0.000070   0.000062   0.000088   0.000510
   37  H  2  S   -0.000366   0.001190   0.000817  -0.000944  -0.006815
   38  H  2  X   -0.000002   0.000042  -0.000023  -0.000010  -0.000048
   39  H  2  Y   -0.000002   0.000016  -0.000007   0.000005   0.000048
   40  H  2  Z   -0.000046   0.000045   0.000050   0.000004   0.000073
   41  H  2  S   -0.000028  -0.000591  -0.000313  -0.000066  -0.000852
   42  H  2  X    0.000040  -0.000285   0.000154  -0.000421   0.000623
   43  H  2  Y   -0.000003   0.000016  -0.000069   0.000004  -0.000155
   44  H  2  Z   -0.000072  -0.000029   0.000068  -0.000276  -0.001877
   45  O  3  S    0.000028  -0.001513   1.001631   0.008752   0.000008
   46  O  3  S    0.000048   0.000001   0.002641   0.000045   0.000660
   47  O  3  S   -0.000115   0.000231  -0.008500   0.000050  -0.000783
   48  O  3  X    0.000006  -0.000010  -0.000914   0.000019   0.000227
   49  O  3  Y   -0.000006  -0.000027  -0.000927  -0.000018  -0.000567
   50  O  3  Z   -0.000008  -0.000002   0.000085   0.000008  -0.000280
   51  O  3  X   -0.000086   0.000041   0.000390  -0.000145  -0.000118
   52  O  3  Y    0.000182   0.000191   0.002308  -0.000093   0.001199
   53  O  3  Z    0.000094   0.000005   0.000350  -0.000073   0.000685
   54  O  3 XX   -0.000003  -0.000005   0.000085   0.000017  -0.000250
   55  O  3 YY   -0.000002   0.000003  -0.000013  -0.000006   0.000371
   56  O  3 ZZ    0.000005   0.000003  -0.000072  -0.000011  -0.000121
   57  O  3 XY    0.000004  -0.000005  -0.000053  -0.000011  -0.000183
   58  O  3 XZ    0.000003  -0.000011  -0.000084   0.000003  -0.000032
   59  O  3 YZ   -0.000001   0.000004   0.000040   0.000010   0.000235
   60  O  3  S    0.000474   0.001009  -0.009184   0.000768   0.015103
   61  O  3  X    0.000021   0.000209  -0.000011   0.000216   0.001245
   62  O  3  Y   -0.000123  -0.000243   0.001577  -0.000163  -0.004289
   63  O  3  Z   -0.000059  -0.000105   0.000253  -0.000073  -0.001854
   64  O  3 XX    0.000063   0.000093   0.000111  -0.000161   0.000351
   65  O  3 YY   -0.000094  -0.000115  -0.000488   0.000087  -0.000701
   66  O  3 ZZ    0.000030   0.000021   0.000377   0.000074   0.000350
   67  O  3 XY    0.000044  -0.000085   0.000477   0.000156   0.000185
   68  O  3 XZ    0.000007   0.000051   0.000254  -0.000052   0.000098
   69  O  3 YZ   -0.000063   0.000013  -0.000429  -0.000021  -0.000443
   70  O  4  S    0.000032  -0.001179  -0.008734   1.001638   0.000010
   71  O  4  S    0.000055  -0.000007  -0.000011   0.002653   0.000675
   72  O  4  S   -0.000137   0.000144   0.000195  -0.008550  -0.000742
   73  O  4  X   -0.000007  -0.000025  -0.000008  -0.000716  -0.000606
   74  O  4  Y   -0.000002  -0.000013   0.000027   0.000570   0.000066
   75  O  4  Z   -0.000010   0.000007  -0.000011   0.000923  -0.000281
   76  O  4  X    0.000224  -0.000069  -0.000004   0.002172   0.001371
   77  O  4  Y   -0.000012   0.000099  -0.000212  -0.000828  -0.000103
   78  O  4  Z    0.000131  -0.000102   0.000001  -0.000421   0.000838
   79  O  4 XX   -0.000002   0.000022   0.000003   0.000008   0.000434
   80  O  4 YY    0.000002  -0.000006   0.000007  -0.000086  -0.000214
   81  O  4 ZZ    0.000000  -0.000016  -0.000010   0.000078  -0.000220
   82  O  4 XY    0.000001   0.000014  -0.000009   0.000002  -0.000142
   83  O  4 XZ   -0.000002   0.000004   0.000013   0.000094   0.000185
   84  O  4 YZ   -0.000001  -0.000007  -0.000002   0.000059  -0.000064
   85  O  4  S    0.000674  -0.000307   0.001009  -0.009602   0.018259
   86  O  4  X   -0.000183   0.000002  -0.000324   0.001658  -0.005306
   87  O  4  Y    0.000029   0.000104  -0.000079  -0.000476   0.000683
   88  O  4  Z   -0.000080   0.000298  -0.000341   0.000146  -0.002340
   89  O  4 XX   -0.000121  -0.000067   0.000020  -0.000633  -0.000838
   90  O  4 YY    0.000052   0.000004  -0.000077   0.000465   0.000479
   91  O  4 ZZ    0.000069   0.000063   0.000058   0.000168   0.000359
   92  O  4 XY    0.000035  -0.000114   0.000105   0.000171   0.000330
   93  O  4 XZ   -0.000056   0.000017  -0.000058  -0.000494  -0.000348
   94  O  4 YZ    0.000026   0.000071  -0.000044  -0.000024   0.000070
   95  O  5  S    0.000026   1.001678   0.001536   0.001182  -0.000055
   96  O  5  S    0.000044   0.002658   0.000053  -0.000010   0.000521
   97  O  5  S   -0.000086  -0.008582  -0.000060   0.000220   0.000079
   98  O  5  X    0.000006   0.000838  -0.000012   0.000038   0.000419
   99  O  5  Y    0.000011  -0.000603   0.000008  -0.000003   0.000459
  100  O  5  Z   -0.000004  -0.000703   0.000006  -0.000004  -0.000274
  101  O  5  X   -0.000142  -0.001673   0.000185  -0.000119  -0.001073
  102  O  5  Y   -0.000196  -0.000581  -0.000021   0.000140  -0.001279
  103  O  5  Z    0.000085   0.001166  -0.000090  -0.000030   0.000783
  104  O  5 XX    0.000000  -0.000064  -0.000001   0.000025   0.000092
  105  O  5 YY   -0.000006   0.000148   0.000004  -0.000008  -0.000026
  106  O  5 ZZ    0.000006  -0.000084  -0.000003  -0.000017  -0.000066
  107  O  5 XY   -0.000004   0.000030  -0.000007   0.000019   0.000311
  108  O  5 XZ    0.000000  -0.000033  -0.000006   0.000000  -0.000226
  109  O  5 YZ   -0.000002   0.000017   0.000005  -0.000011  -0.000246
  110  O  5  S    0.000513  -0.008425   0.000342   0.001427   0.016098
  111  O  5  X    0.000042  -0.000693  -0.000043   0.000335   0.002310
  112  O  5  Y    0.000066  -0.000797   0.000357   0.000162   0.002527
  113  O  5  Z   -0.000078   0.000479   0.000022  -0.000255  -0.002216
  114  O  5 XX   -0.000026   0.000007   0.000142  -0.000173  -0.000123
  115  O  5 YY    0.000011  -0.000363  -0.000228   0.000117  -0.000019
  116  O  5 ZZ    0.000015   0.000356   0.000086   0.000057   0.000141
  117  O  5 XY   -0.000095  -0.000611   0.000035  -0.000022  -0.000624
  118  O  5 XZ    0.000059   0.000323  -0.000013  -0.000012   0.000586
  119  O  5 YZ    0.000081   0.000295  -0.000039   0.000065   0.000596
  120  H  6  S   -0.000038   0.000039   0.000188  -0.000000   0.000176
  121  H  6  S    0.000004  -0.001868   0.004999   0.000457   0.000852
  122  H  6  X    0.000007  -0.000023  -0.000412  -0.000022   0.000159
  123  H  6  Y   -0.000008  -0.000026   0.000032   0.000047  -0.000199
  124  H  6  Z   -0.000005   0.000027   0.000140  -0.000024  -0.000140
  125  H  6  S    0.000103  -0.000183   0.000009  -0.000220   0.002883
  126  H  6  X   -0.000021  -0.000414   0.001856   0.000147  -0.000006
  127  H  6  Y   -0.000046   0.000488  -0.000227  -0.000106  -0.001081
  128  H  6  Z   -0.000008   0.000285  -0.000638  -0.000053  -0.000317
  129  H  7  S   -0.000053  -0.000084   0.000026   0.000169   0.000001
  130  H  7  S   -0.000153   0.001157  -0.000507   0.004907  -0.001809
  131  H  7  X   -0.000003   0.000010   0.000013   0.000118  -0.000212
  132  H  7  Y   -0.000000  -0.000024   0.000037   0.000134   0.000020
  133  H  7  Z   -0.000003  -0.000001  -0.000028   0.000412  -0.000093
  134  H  7  S    0.000082  -0.000131  -0.000017  -0.000054   0.002461
  135  H  7  X    0.000012  -0.000335   0.000210  -0.000607  -0.000166
  136  H  7  Y    0.000018  -0.000013  -0.000039  -0.000533   0.000273
  137  H  7  Z    0.000032  -0.000337   0.000209  -0.001837   0.000375
  138  H  8  S   -0.000047   0.000139   0.000077  -0.000054   0.000080
  139  H  8  S   -0.000200   0.004564   0.000625   0.000177  -0.003411
  140  H  8  X   -0.000000   0.000027  -0.000035   0.000037   0.000107
  141  H  8  Y    0.000004  -0.000479  -0.000009   0.000001   0.000130
  142  H  8  Z   -0.000000  -0.000083   0.000023   0.000024  -0.000075
  143  H  8  S    0.000070  -0.000135  -0.000181  -0.000095   0.002214
  144  H  8  X    0.000032  -0.000226   0.000035  -0.000013   0.000715
  145  H  8  Y   -0.000067   0.002000   0.000186   0.000130  -0.000964
  146  H  8  Z    0.000005   0.000343   0.000044  -0.000033  -0.000035

                      6          7          8          9         10
                   -4.2881    -4.2881    -4.2862    -1.3798    -1.3463
                     A          A          A          A          A   
    1  SI 1  S   -0.000001  -0.000000   0.000058   0.001825  -0.000210
    2  SI 1  S   -0.000241   0.000049  -0.002183   0.032581  -0.002784
    3  SI 1  S    0.000089  -0.000043   0.001319  -0.115832   0.006959
    4  SI 1  S    0.000436   0.000177  -0.015007   0.295649  -0.030707
    5  SI 1  X   -0.638733   0.764271   0.090950  -0.002193  -0.037963
    6  SI 1  Y    0.768530   0.639898   0.020932   0.001349  -0.008896
    7  SI 1  Z    0.042149  -0.083295   0.995860   0.020374  -0.000742
    8  SI 1  X   -0.000531   0.000367  -0.000034   0.006608   0.059313
    9  SI 1  Y    0.000366   0.000740  -0.000056  -0.003178   0.015173
   10  SI 1  Z   -0.000013  -0.000029  -0.000243  -0.026314   0.000983
   11  SI 1  X    0.012360  -0.015345  -0.001583   0.008634  -0.097131
   12  SI 1  Y   -0.013970  -0.011864   0.000342   0.001928  -0.002398
   13  SI 1  Z   -0.001797   0.000555  -0.001074   0.013660   0.009046
   14  SI 1 XX   -0.000062  -0.000125   0.000035  -0.006165   0.013778
   15  SI 1 YY    0.000059   0.000032  -0.000022  -0.006631  -0.017067
   16  SI 1 ZZ    0.000002   0.000093  -0.000013   0.012796   0.003288
   17  SI 1 XY   -0.000131  -0.000257   0.000019   0.001085  -0.014514
   18  SI 1 XZ   -0.000484   0.000362   0.000033   0.004354   0.020004
   19  SI 1 YZ    0.000308   0.000444  -0.000021  -0.002612   0.007063
   20  SI 1 XX    0.000134  -0.000084  -0.000619  -0.002580   0.005474
   21  SI 1 YY   -0.000224   0.000210  -0.000572  -0.002128  -0.004715
   22  SI 1 ZZ    0.000089  -0.000126   0.001190   0.004708  -0.000759
   23  SI 1 XY    0.000149   0.000289   0.000030  -0.000094  -0.005455
   24  SI 1 XZ   -0.000239   0.000308   0.000023   0.000566   0.006215
   25  SI 1 YZ    0.000289   0.000249   0.000108  -0.000025   0.001582
   26  SI 1  S   -0.001492   0.000817  -0.003006   0.064166  -0.002428
   27  SI 1  X    0.000902  -0.000494   0.000040  -0.004030  -0.005642
   28  SI 1  Y   -0.000065  -0.001028   0.000126  -0.001865  -0.001616
   29  SI 1  Z    0.000649  -0.000996  -0.000233   0.002571  -0.006056
   30  SI 1 XX    0.002225  -0.000067   0.000523   0.008876  -0.019638
   31  SI 1 YY   -0.002618   0.000679   0.000944  -0.002525   0.019032
   32  SI 1 ZZ    0.000393  -0.000612  -0.001467  -0.006352   0.000606
   33  SI 1 XY    0.001361   0.002663   0.000008  -0.002528   0.014969
   34  SI 1 XZ    0.001657  -0.003644  -0.000424  -0.000284  -0.019558
   35  SI 1 YZ   -0.001818  -0.001788  -0.000220  -0.001396   0.001401
   36  H  2  S   -0.000185   0.000111  -0.002361  -0.012790  -0.000447
   37  H  2  S   -0.001628  -0.000110   0.008971  -0.069331   0.010423
   38  H  2  X   -0.000072   0.000114   0.000046   0.000669   0.001422
   39  H  2  Y    0.000059   0.000067  -0.000082  -0.000840   0.000351
   40  H  2  Z   -0.000160   0.000061  -0.001344  -0.004360  -0.000549
   41  H  2  S    0.001042  -0.001252   0.001043  -0.009372  -0.005794
   42  H  2  X   -0.000306  -0.000063  -0.000179   0.000463   0.006107
   43  H  2  Y    0.000361   0.000222   0.000231  -0.003552   0.001712
   44  H  2  Z   -0.000170  -0.000434   0.004116  -0.028153   0.002654
   45  O  3  S   -0.000489  -0.000181  -0.000196   0.009670   0.000385
   46  O  3  S    0.001632   0.000494   0.000516  -0.252393  -0.025743
   47  O  3  S    0.001443   0.001034   0.000741  -0.265458  -0.018338
   48  O  3  X    0.000646   0.000608   0.000380   0.023324   0.008872
   49  O  3  Y   -0.002371  -0.000566  -0.000953   0.035774   0.003605
   50  O  3  Z   -0.000950  -0.000347   0.000187  -0.001708  -0.000418
   51  O  3  X    0.000753  -0.000194   0.000321  -0.033663  -0.001954
   52  O  3  Y   -0.001135  -0.000122  -0.000596   0.051547   0.003537
   53  O  3  Z   -0.000671   0.000146  -0.000288   0.021203   0.002808
   54  O  3 XX   -0.000499  -0.000035  -0.000136  -0.002160   0.000256
   55  O  3 YY    0.000882   0.000146   0.000418  -0.001719  -0.000366
   56  O  3 ZZ   -0.000383  -0.000111  -0.000281   0.003880   0.000110
   57  O  3 XY   -0.000472  -0.000385  -0.000276   0.001759  -0.000910
   58  O  3 XZ   -0.000189  -0.000167  -0.000002   0.003085   0.000504
   59  O  3 YZ    0.000675   0.000210   0.000002  -0.002194  -0.000180
   60  O  3  S    0.016921   0.009634   0.002422  -0.086952  -0.010386
   61  O  3  X    0.001308   0.001116   0.000086   0.000319  -0.006390
   62  O  3  Y   -0.004104  -0.002545  -0.000810   0.022997   0.000431
   63  O  3  Z   -0.001668  -0.000668   0.000635   0.008043   0.001750
   64  O  3 XX   -0.000332   0.000030  -0.000108   0.018964   0.002042
   65  O  3 YY    0.000315  -0.000063   0.000066  -0.017922  -0.002821
   66  O  3 ZZ    0.000016   0.000033   0.000042  -0.001041   0.000778
   67  O  3 XY   -0.000323   0.000182  -0.000033   0.006771   0.002189
   68  O  3 XZ    0.000069   0.000033  -0.000073  -0.005899  -0.004046
   69  O  3 YZ    0.000206  -0.000015   0.000190  -0.006864  -0.000316
   70  O  4  S    0.000386  -0.000328  -0.000255   0.009561  -0.011237
   71  O  4  S   -0.001266   0.001099   0.000604  -0.222080   0.343396
   72  O  4  S   -0.001308   0.000880   0.001046  -0.244170   0.352074
   73  O  4  X    0.001931  -0.001570  -0.001238   0.026757  -0.023938
   74  O  4  Y   -0.000000   0.000636   0.000187  -0.015923   0.024716
   75  O  4  Z    0.000644  -0.000600   0.000081  -0.021979   0.037947
   76  O  4  X    0.000928  -0.001008  -0.000722   0.058038  -0.052418
   77  O  4  Y    0.000040   0.000078   0.000071  -0.004521   0.001684
   78  O  4  Z    0.000533  -0.000868  -0.000503   0.024448  -0.035822
   79  O  4 XX   -0.000839   0.000605   0.000544  -0.002234   0.001505
   80  O  4 YY    0.000488  -0.000312  -0.000263   0.003467  -0.004796
   81  O  4 ZZ    0.000351  -0.000294  -0.000281  -0.001233   0.003291
   82  O  4 XY    0.000073  -0.000396  -0.000169   0.001000  -0.001354
   83  O  4 XZ   -0.000492   0.000415   0.000016  -0.002932   0.004221
   84  O  4 YZ    0.000040  -0.000130   0.000002  -0.001965   0.003437
   85  O  4  S   -0.013897   0.009326   0.004763  -0.107486   0.141600
   86  O  4  X    0.004006  -0.002746  -0.000940   0.027076  -0.029644
   87  O  4  Y   -0.000537   0.000466   0.000367  -0.007071   0.004648
   88  O  4  Z    0.001417  -0.000533   0.000743   0.006197  -0.001390
   89  O  4 XX   -0.000171   0.000382   0.000246  -0.018878   0.023112
   90  O  4 YY    0.000025  -0.000106   0.000034   0.002277   0.000583
   91  O  4 ZZ    0.000146  -0.000277  -0.000280   0.016601  -0.023695
   92  O  4 XY    0.000086   0.000015  -0.000013   0.005411  -0.005626
   93  O  4 XZ   -0.000153   0.000161   0.000191   0.000452   0.000941
   94  O  4 YZ    0.000122  -0.000189  -0.000117   0.007500  -0.013620
   95  O  5  S    0.000031   0.000525  -0.000169   0.010302   0.008545
   96  O  5  S   -0.000156  -0.001604   0.000511  -0.254687  -0.279215
   97  O  5  S    0.000245  -0.001804   0.000672  -0.276339  -0.281392
   98  O  5  X   -0.000455  -0.001702   0.000698  -0.030210  -0.023058
   99  O  5  Y    0.000120  -0.001687   0.000626   0.009316   0.022253
  100  O  5  Z    0.000088   0.001143   0.000121   0.021817   0.023066
  101  O  5  X   -0.000227  -0.000545   0.000389  -0.036776  -0.017651
  102  O  5  Y   -0.000217  -0.001274   0.000293  -0.052434  -0.041583
  103  O  5  Z    0.000083   0.000483  -0.000253   0.017104   0.011148
  104  O  5 XX   -0.000230  -0.000161   0.000148   0.001335   0.002296
  105  O  5 YY    0.000213  -0.000132   0.000102  -0.004971  -0.005421
  106  O  5 ZZ    0.000018   0.000293  -0.000250   0.003636   0.003126
  107  O  5 XY   -0.000051  -0.000891   0.000386  -0.002195  -0.001184
  108  O  5 XZ    0.000146   0.000586  -0.000056   0.002698   0.002657
  109  O  5 YZ   -0.000032   0.000585  -0.000033   0.000082  -0.000632
  110  O  5  S   -0.001601  -0.018210   0.001932  -0.086921  -0.090112
  111  O  5  X   -0.000311  -0.002959   0.000681  -0.012952  -0.014836
  112  O  5  Y    0.000350  -0.003915   0.000661  -0.008936  -0.000356
  113  O  5  Z    0.000167   0.001953   0.000472   0.012755   0.005912
  114  O  5 XX    0.000167  -0.000105   0.000022  -0.011223  -0.009928
  115  O  5 YY   -0.000250   0.000216  -0.000058   0.014151   0.014883
  116  O  5 ZZ    0.000082  -0.000110   0.000036  -0.002928  -0.004955
  117  O  5 XY   -0.000167  -0.000286   0.000059  -0.014635  -0.013130
  118  O  5 XZ   -0.000066   0.000100  -0.000085   0.005643   0.003589
  119  O  5 YZ    0.000130   0.000295  -0.000224   0.011493   0.013801
  120  H  6  S    0.000643  -0.000116   0.000181  -0.127407  -0.017796
  121  H  6  S    0.000245  -0.003557  -0.000515  -0.003292  -0.024186
  122  H  6  X    0.000035  -0.000087   0.000008  -0.022350  -0.004162
  123  H  6  Y   -0.000044  -0.000030  -0.000007   0.002494   0.001184
  124  H  6  Z   -0.000021   0.000013   0.000034   0.008389   0.000781
  125  H  6  S    0.000802   0.001003   0.000221  -0.009916  -0.001885
  126  H  6  X    0.000131  -0.000806   0.000071  -0.004298  -0.006760
  127  H  6  Y   -0.000676   0.000914   0.000051   0.002319   0.008932
  128  H  6  Z   -0.000116   0.000317  -0.000162   0.003255  -0.000052
  129  H  7  S   -0.000298   0.000496   0.000544  -0.111541   0.179785
  130  H  7  S    0.000621   0.002019  -0.000791   0.000079  -0.011563
  131  H  7  X    0.000079  -0.000067  -0.000004   0.005883  -0.010004
  132  H  7  Y   -0.000026   0.000016  -0.000048   0.005971  -0.009606
  133  H  7  Z    0.000007  -0.000064   0.000012   0.019008  -0.029818
  134  H  7  S   -0.001349   0.001065   0.000031  -0.006873   0.006806
  135  H  7  X    0.000075  -0.000814  -0.000394   0.002254   0.000436
  136  H  7  Y    0.000217   0.000234   0.000093   0.002383   0.000314
  137  H  7  Z   -0.000158  -0.000565   0.000269   0.003859   0.001357
  138  H  8  S   -0.000117  -0.000646   0.000052  -0.127269  -0.146752
  139  H  8  S   -0.000759  -0.000153   0.000080   0.004276   0.008748
  140  H  8  X   -0.000010  -0.000054   0.000066   0.001912   0.002011
  141  H  8  Y   -0.000032  -0.000068   0.000016  -0.022694  -0.026185
  142  H  8  Z    0.000001   0.000031  -0.000027  -0.004541  -0.004706
  143  H  8  S    0.000497  -0.001381   0.000469  -0.007717   0.001390
  144  H  8  X   -0.000481  -0.000321  -0.000050  -0.000927  -0.000419
  145  H  8  Y   -0.000573  -0.000108  -0.000002  -0.001355   0.000579
  146  H  8  Z    0.000121   0.000233  -0.000147  -0.001621   0.003474

                     11         12         13         14         15
                   -1.3432    -0.7886    -0.7250    -0.7130    -0.6031
                     A          A          A          A          A   
    1  SI 1  S   -0.000115   0.003209   0.000118   0.000193   0.001099
    2  SI 1  S   -0.000430   0.011834   0.001299   0.001555   0.010083
    3  SI 1  S   -0.002096   0.340602  -0.001210  -0.001629  -0.088469
    4  SI 1  S    0.023917  -0.276279   0.000272  -0.005615  -0.109742
    5  SI 1  X    0.009782  -0.000568   0.020008   0.011268  -0.013975
    6  SI 1  Y   -0.038639  -0.000587   0.010504  -0.019454  -0.001632
    7  SI 1  Z    0.001128  -0.005574  -0.008107  -0.003618  -0.019006
    8  SI 1  X   -0.017481   0.007414  -0.166180  -0.079437   0.119198
    9  SI 1  Y    0.049182   0.009372  -0.068082   0.155430   0.021134
   10  SI 1  Z    0.000686   0.017273   0.057409   0.027921   0.200424
   11  SI 1  X    0.002855  -0.025301   0.039604   0.052208  -0.030386
   12  SI 1  Y   -0.107999  -0.005094   0.028574  -0.047003   0.018130
   13  SI 1  Z    0.001934  -0.019086  -0.007356  -0.022560   0.060845
   14  SI 1 XX   -0.007244   0.011805  -0.002407  -0.063654   0.033649
   15  SI 1 YY    0.010237   0.001263  -0.005678   0.055753  -0.016107
   16  SI 1 ZZ   -0.002993  -0.013067   0.008085   0.007900  -0.017542
   17  SI 1 XY   -0.012914  -0.000696   0.041121  -0.008566  -0.011559
   18  SI 1 XZ   -0.008044  -0.005116  -0.046279  -0.002383   0.018921
   19  SI 1 YZ    0.011468  -0.000176  -0.021620   0.037126  -0.001590
   20  SI 1 XX   -0.005522   0.003574  -0.000992  -0.014376   0.007737
   21  SI 1 YY    0.005523   0.000805  -0.001151   0.014340  -0.004081
   22  SI 1 ZZ   -0.000001  -0.004379   0.002142   0.000035  -0.003656
   23  SI 1 XY   -0.006719   0.000038   0.010712  -0.000739  -0.002400
   24  SI 1 XZ   -0.001378  -0.002059  -0.009031  -0.001666   0.003090
   25  SI 1 YZ    0.006088   0.000331  -0.006102   0.007989  -0.000566
   26  SI 1  S    0.006764  -0.131888  -0.002163  -0.024377  -0.019313
   27  SI 1  X    0.001270  -0.001076   0.017004   0.014907  -0.010908
   28  SI 1  Y   -0.004538   0.003037   0.002688  -0.022020   0.000262
   29  SI 1  Z   -0.003556  -0.004013  -0.000395  -0.001272  -0.012604
   30  SI 1 XX    0.023879  -0.012811   0.022159   0.024200  -0.012424
   31  SI 1 YY   -0.015071   0.002590  -0.022045  -0.048589   0.015217
   32  SI 1 ZZ   -0.008808   0.010221  -0.000113   0.024389  -0.002792
   33  SI 1 XY    0.028307   0.001634  -0.038291  -0.000406   0.010007
   34  SI 1 XZ   -0.008490  -0.003444   0.002187   0.011398  -0.009822
   35  SI 1 YZ   -0.020843  -0.004971   0.008966  -0.006628  -0.007233
   36  H  2  S    0.000448   0.102401  -0.032502  -0.024767  -0.209052
   37  H  2  S   -0.002786   0.116846  -0.020916  -0.044473  -0.083290
   38  H  2  X   -0.000433  -0.000325  -0.002771  -0.000277   0.002422
   39  H  2  Y    0.001422   0.000729  -0.001184   0.002471  -0.000644
   40  H  2  Z    0.000691   0.013297  -0.001613  -0.002437  -0.014058
   41  H  2  S   -0.005068   0.020045   0.000614   0.003254  -0.006204
   42  H  2  X   -0.004035  -0.002921  -0.007905   0.000646   0.003947
   43  H  2  Y    0.002494   0.001522  -0.005414   0.006141  -0.001734
   44  H  2  Z   -0.005222   0.035328  -0.001554  -0.002066   0.000449
   45  O  3  S   -0.012276  -0.004237   0.001281  -0.003196   0.000393
   46  O  3  S    0.353710  -0.037243  -0.047282   0.041710   0.026870
   47  O  3  S    0.370548   0.016169  -0.089736   0.113673   0.054496
   48  O  3  X   -0.041533   0.178682  -0.146948   0.338380   0.140753
   49  O  3  Y   -0.032173  -0.162842  -0.037988  -0.142592   0.019537
   50  O  3  Z    0.004510  -0.099212   0.065749  -0.142980   0.209886
   51  O  3  X    0.034711   0.084854  -0.077516   0.163055   0.094379
   52  O  3  Y   -0.049966  -0.111333  -0.018724  -0.073280   0.016606
   53  O  3  Z   -0.025337  -0.051321   0.034855  -0.075253   0.160910
   54  O  3 XX    0.003888  -0.010252   0.002358  -0.014640  -0.001129
   55  O  3 YY    0.000534   0.010939   0.000310   0.012157   0.001454
   56  O  3 ZZ   -0.004423  -0.000687  -0.002668   0.002482  -0.000325
   57  O  3 XY   -0.001943  -0.003019   0.005228  -0.006101  -0.003607
   58  O  3 XZ   -0.004609   0.003223  -0.001490   0.004973  -0.001175
   59  O  3 YZ    0.002872   0.003918  -0.002481   0.004591  -0.005356
   60  O  3  S    0.169757   0.079757  -0.034050   0.107130   0.010106
   61  O  3  X   -0.000205   0.028472   0.009170   0.059022   0.001393
   62  O  3  Y   -0.034926  -0.031648   0.005392  -0.025384   0.004098
   63  O  3  Z   -0.005140  -0.015990  -0.002137  -0.030414   0.025723
   64  O  3 XX   -0.024482   0.006305  -0.000055   0.013977   0.003529
   65  O  3 YY    0.023114  -0.001505  -0.003760  -0.007573  -0.003284
   66  O  3 ZZ    0.001367  -0.004801   0.003815  -0.006404  -0.000245
   67  O  3 XY   -0.008997  -0.009627   0.004170  -0.011881  -0.007444
   68  O  3 XZ    0.008680  -0.009441   0.008180  -0.011365  -0.007555
   69  O  3 YZ    0.009340   0.004944  -0.001615   0.007454  -0.014536
   70  O  4  S    0.005167  -0.004400   0.001788   0.002858  -0.001918
   71  O  4  S   -0.150295  -0.034407  -0.020922  -0.051100  -0.011069
   72  O  4  S   -0.157255   0.017172  -0.067743  -0.122361  -0.011756
   73  O  4  X    0.010923  -0.196951   0.130044   0.134974  -0.221902
   74  O  4  Y   -0.005515  -0.012425   0.015695   0.120190   0.026810
   75  O  4  Z   -0.016833  -0.184110   0.216619   0.260269  -0.024648
   76  O  4  X    0.024381  -0.128081   0.055890   0.068875  -0.139164
   77  O  4  Y    0.002389   0.005000  -0.000071   0.069504   0.018656
   78  O  4  Z    0.015175  -0.085296   0.110822   0.126671  -0.006257
   79  O  4 XX   -0.000929   0.011156  -0.007955  -0.009978   0.007437
   80  O  4 YY    0.002451  -0.000510  -0.001240   0.000860  -0.001311
   81  O  4 ZZ   -0.001522  -0.010646   0.009195   0.009118  -0.006126
   82  O  4 XY   -0.000368  -0.003838   0.003162  -0.000888  -0.004005
   83  O  4 XZ   -0.001762   0.000333  -0.001575  -0.002091  -0.003871
   84  O  4 YZ   -0.001179  -0.005156   0.004574   0.007100  -0.001283
   85  O  4  S   -0.065830   0.089912  -0.075600  -0.089330   0.058115
   86  O  4  X    0.008677  -0.037785   0.025957   0.026554  -0.034781
   87  O  4  Y   -0.010900  -0.002041   0.012198   0.000806  -0.001198
   88  O  4  Z    0.001341  -0.034888   0.033913   0.032773  -0.016963
   89  O  4 XX   -0.009941   0.003513   0.005850  -0.001729   0.003070
   90  O  4 YY    0.000006  -0.009300   0.005046   0.006961  -0.002945
   91  O  4 ZZ    0.009935   0.005788  -0.010896  -0.005232  -0.000125
   92  O  4 XY    0.002692   0.001689  -0.002477  -0.005452  -0.000318
   93  O  4 XZ   -0.001611   0.011969  -0.015022  -0.015128   0.000306
   94  O  4 YZ    0.003502   0.005251   0.001380  -0.007759   0.001720
   95  O  5  S    0.008154  -0.004219  -0.002953  -0.000152   0.000604
   96  O  5  S   -0.217122  -0.027990   0.045656   0.005992   0.060360
   97  O  5  S   -0.229701   0.025349   0.122777   0.017967   0.113313
   98  O  5  X   -0.022381   0.091608   0.039900  -0.040879  -0.033820
   99  O  5  Y    0.024205   0.240356   0.401251  -0.053951   0.044836
  100  O  5  Z    0.017617  -0.033552   0.015956   0.015060   0.322706
  101  O  5  X   -0.024907   0.074304   0.020198  -0.025423  -0.016620
  102  O  5  Y   -0.038717   0.126225   0.191942  -0.014625   0.021521
  103  O  5  Z    0.013951  -0.033807   0.003141   0.008008   0.231092
  104  O  5 XX    0.000574   0.005312   0.006104  -0.002940   0.004027
  105  O  5 YY   -0.003002  -0.006509  -0.009225   0.003710   0.000249
  106  O  5 ZZ    0.002427   0.001197   0.003122  -0.000770  -0.004276
  107  O  5 XY   -0.000951   0.007534   0.011120  -0.001117   0.001540
  108  O  5 XZ    0.002055  -0.003274  -0.001677   0.001073   0.006439
  109  O  5 YZ   -0.000463  -0.006740  -0.009727   0.002043  -0.001303
  110  O  5  S   -0.110526   0.074706   0.099302   0.011260   0.000776
  111  O  5  X   -0.010419   0.015882   0.017397  -0.001078  -0.010666
  112  O  5  Y   -0.014264   0.041837   0.050116  -0.014889   0.002169
  113  O  5  Z    0.012146  -0.013216  -0.002387  -0.000331   0.028488
  114  O  5 XX   -0.006821  -0.002907  -0.012107   0.002238  -0.000592
  115  O  5 YY    0.008318   0.010931   0.023677  -0.005587   0.014691
  116  O  5 ZZ   -0.001496  -0.008024  -0.011570   0.003348  -0.014100
  117  O  5 XY   -0.013584   0.009332   0.003888   0.000996   0.004860
  118  O  5 XZ    0.005545  -0.003740   0.002003   0.002790   0.013223
  119  O  5 YZ    0.011155  -0.000701  -0.001907  -0.007690   0.007724
  120  H  6  S    0.184484  -0.183667   0.110847  -0.294089  -0.041829
  121  H  6  S   -0.032664  -0.015739   0.000570  -0.012037  -0.026786
  122  H  6  X    0.031057  -0.024751   0.013445  -0.033158  -0.002028
  123  H  6  Y   -0.002927  -0.007327  -0.006822  -0.005757   0.000081
  124  H  6  Z   -0.011136   0.006356  -0.003024   0.011166   0.010241
  125  H  6  S    0.001482   0.018425   0.006090   0.039169  -0.006924
  126  H  6  X   -0.004018   0.002331  -0.007461   0.006385  -0.002451
  127  H  6  Y    0.004366   0.003068   0.008877  -0.007637   0.002113
  128  H  6  Z    0.001252  -0.003893   0.007266  -0.001681   0.001613
  129  H  7  S   -0.076190  -0.195123   0.185129   0.234418  -0.065145
  130  H  7  S    0.017648   0.011775   0.027954   0.022986  -0.002501
  131  H  7  X    0.003667  -0.000472   0.000118  -0.004090  -0.009240
  132  H  7  Y    0.004811   0.010731  -0.011404  -0.006735   0.004702
  133  H  7  Z    0.012419   0.023970  -0.020815  -0.028072   0.007571
  134  H  7  S    0.001923   0.025602  -0.019669  -0.015720   0.021012
  135  H  7  X   -0.001284  -0.009452  -0.002004   0.004749  -0.008456
  136  H  7  Y    0.003039  -0.002549  -0.004331   0.004475   0.001881
  137  H  7  Z   -0.002659  -0.010855  -0.003689   0.001340  -0.001005
  138  H  8  S   -0.116604  -0.185255  -0.303773   0.047066  -0.078921
  139  H  8  S   -0.011959  -0.007555  -0.025939   0.004813  -0.013403
  140  H  8  X    0.001093   0.008158   0.009000  -0.003265   0.001923
  141  H  8  Y   -0.021734  -0.022543  -0.034091   0.003639  -0.009914
  142  H  8  Z   -0.003798  -0.008501  -0.012322   0.001212   0.010919
  143  H  8  S   -0.001862   0.023593   0.017937  -0.013681  -0.000438
  144  H  8  X   -0.004746   0.003134   0.002302   0.001026   0.001108
  145  H  8  Y   -0.009694   0.004271   0.005828  -0.005153   0.004114
  146  H  8  Z   -0.000008   0.001876  -0.004251  -0.003221   0.004955

                     16         17         18         19         20
                   -0.5916    -0.5643    -0.5469    -0.5239    -0.5055
                     A          A          A          A          A   
    1  SI 1  S    0.000369   0.000122  -0.000045  -0.000220  -0.000006
    2  SI 1  S    0.001521   0.001326  -0.000593  -0.001424  -0.000066
    3  SI 1  S    0.104427  -0.080322   0.029464  -0.021221   0.022125
    4  SI 1  S   -0.061793   0.008790   0.056176  -0.013951   0.038511
    5  SI 1  X   -0.001514   0.006207  -0.009731   0.008300   0.003353
    6  SI 1  Y    0.013435   0.017106   0.008377   0.000583   0.001687
    7  SI 1  Z   -0.008869   0.003264   0.005045  -0.003882   0.001389
    8  SI 1  X    0.022159  -0.015991   0.087936  -0.058027  -0.002468
    9  SI 1  Y   -0.108797  -0.120390  -0.022606  -0.010213   0.016411
   10  SI 1  Z    0.055600  -0.013155  -0.074971   0.060010  -0.027431
   11  SI 1  X    0.020326   0.014119   0.011713  -0.011444  -0.038082
   12  SI 1  Y    0.019969   0.021828   0.041166   0.010411  -0.022483
   13  SI 1  Z   -0.008092   0.000535  -0.037376   0.018409  -0.019421
   14  SI 1 XX   -0.025723  -0.017246   0.040433   0.000985  -0.025802
   15  SI 1 YY    0.011741   0.023485  -0.057128   0.013430   0.006232
   16  SI 1 ZZ    0.013982  -0.006239   0.016694  -0.014415   0.019570
   17  SI 1 XY    0.018361   0.048210   0.063671   0.042001   0.027477
   18  SI 1 XZ    0.026238  -0.006995   0.034489  -0.035582  -0.037941
   19  SI 1 YZ   -0.018994  -0.041032   0.012088   0.043911  -0.020158
   20  SI 1 XX   -0.005133  -0.003735   0.010187  -0.001525  -0.005810
   21  SI 1 YY    0.002031   0.005743  -0.013960   0.004925   0.001564
   22  SI 1 ZZ    0.003102  -0.002008   0.003773  -0.003400   0.004247
   23  SI 1 XY    0.004376   0.013382   0.015471   0.007852   0.007096
   24  SI 1 XZ    0.006216  -0.003627   0.007575  -0.008274  -0.008738
   25  SI 1 YZ   -0.004550  -0.009835   0.000275   0.010649  -0.005294
   26  SI 1  S    0.009502   0.006143   0.014159   0.002164   0.023956
   27  SI 1  X    0.002912  -0.003456   0.000242  -0.007243  -0.007520
   28  SI 1  Y    0.005901  -0.003313  -0.005710   0.003193  -0.008604
   29  SI 1  Z   -0.005158   0.008533  -0.002572   0.006968  -0.010860
   30  SI 1 XX   -0.000206   0.007376  -0.023171   0.004701   0.008343
   31  SI 1 YY   -0.000790  -0.007711   0.013599   0.007536   0.005337
   32  SI 1 ZZ    0.000996   0.000335   0.009572  -0.012237  -0.013681
   33  SI 1 XY   -0.023563  -0.032739  -0.019002  -0.016670  -0.006125
   34  SI 1 XZ   -0.013518  -0.006035  -0.002375  -0.008517  -0.011051
   35  SI 1 YZ    0.013959   0.006578   0.005165  -0.007296   0.002205
   36  H  2  S    0.018880  -0.033579   0.090268  -0.068268   0.051197
   37  H  2  S    0.024993  -0.024436   0.024750  -0.030318   0.025413
   38  H  2  X    0.000731   0.000608   0.001551  -0.001017  -0.000816
   39  H  2  Y   -0.001537  -0.003166   0.000323   0.000893  -0.000305
   40  H  2  Z    0.003755  -0.004036   0.005058  -0.004226   0.003367
   41  H  2  S   -0.007972   0.009420  -0.006831   0.007184  -0.016397
   42  H  2  X   -0.004574  -0.002541   0.003279  -0.004411   0.001816
   43  H  2  Y   -0.002112  -0.007532  -0.000371  -0.002227   0.004105
   44  H  2  Z    0.009465  -0.002613  -0.002535  -0.002120  -0.006491
   45  O  3  S    0.000199   0.002495   0.003701  -0.000849   0.000463
   46  O  3  S   -0.009348   0.107127   0.014139  -0.001937  -0.016535
   47  O  3  S   -0.016944   0.201197   0.019176  -0.004930  -0.033608
   48  O  3  X   -0.024077   0.238062   0.035927   0.131415  -0.073401
   49  O  3  Y    0.018545   0.417435   0.260051  -0.199361   0.008751
   50  O  3  Z    0.114663  -0.025314   0.116718   0.398786  -0.062411
   51  O  3  X   -0.007736   0.154010   0.025400   0.102848  -0.052839
   52  O  3  Y   -0.003654   0.304463   0.189147  -0.151913   0.007893
   53  O  3  Z    0.079527  -0.010611   0.084443   0.303618  -0.051408
   54  O  3 XX    0.002223  -0.002219   0.005378  -0.003878   0.001780
   55  O  3 YY   -0.001666  -0.005096  -0.007591   0.005901  -0.001378
   56  O  3 ZZ   -0.000557   0.007315   0.002213  -0.002023  -0.000401
   57  O  3 XY   -0.001064  -0.006071  -0.003785   0.000085   0.000802
   58  O  3 XZ   -0.001720   0.001860  -0.001586  -0.004609  -0.000673
   59  O  3 YZ   -0.002640  -0.000824  -0.003230  -0.006483   0.000789
   60  O  3  S   -0.023586   0.002245  -0.071131  -0.019153  -0.002823
   61  O  3  X    0.004483   0.034441  -0.000371   0.029069   0.000039
   62  O  3  Y   -0.005692   0.058094   0.045302  -0.021213  -0.004597
   63  O  3  Z    0.006130  -0.005538   0.024092   0.055087  -0.010919
   64  O  3 XX   -0.004642   0.020639   0.006633  -0.007474   0.001743
   65  O  3 YY    0.007265  -0.027358  -0.016298   0.017363  -0.003521
   66  O  3 ZZ   -0.002623   0.006719   0.009664  -0.009889   0.001778
   67  O  3 XY    0.004679  -0.024468   0.002990  -0.008126   0.006213
   68  O  3 XZ    0.004012  -0.008330  -0.002400   0.002177   0.006263
   69  O  3 YZ   -0.005921   0.000338  -0.006945  -0.018105   0.003259
   70  O  4  S   -0.001475   0.001996  -0.001523   0.001485   0.001374
   71  O  4  S   -0.085605   0.039116  -0.054571   0.037293  -0.000280
   72  O  4  S   -0.152105   0.066040  -0.108222   0.073778   0.000241
   73  O  4  X   -0.240485   0.146704  -0.150663   0.219907   0.208206
   74  O  4  Y   -0.013796  -0.174320   0.415581   0.052737   0.331045
   75  O  4  Z    0.261273  -0.055556   0.016724  -0.166808  -0.154226
   76  O  4  X   -0.181848   0.114820  -0.105166   0.163659   0.154182
   77  O  4  Y   -0.018004  -0.128341   0.300077   0.037065   0.261319
   78  O  4  Z    0.169251  -0.032021   0.000936  -0.118354  -0.122183
   79  O  4 XX    0.002967  -0.001278  -0.000314  -0.002530  -0.004383
   80  O  4 YY   -0.005435   0.000797   0.001357   0.004749   0.005718
   81  O  4 ZZ    0.002469   0.000481  -0.001043  -0.002219  -0.001335
   82  O  4 XY   -0.000074   0.005085  -0.007850  -0.000024  -0.001815
   83  O  4 XZ   -0.005528   0.000987   0.000167   0.002952   0.004121
   84  O  4 YZ    0.003550  -0.003131   0.004770  -0.001292   0.002181
   85  O  4  S   -0.030813  -0.010062  -0.006197  -0.021702  -0.011051
   86  O  4  X   -0.019416   0.031062  -0.012541   0.043184   0.028538
   87  O  4  Y    0.007910  -0.005814   0.059581   0.008415   0.053223
   88  O  4  Z    0.039778   0.009934   0.006119  -0.021263  -0.014193
   89  O  4 XX    0.011523  -0.012872   0.006072  -0.012337  -0.018133
   90  O  4 YY   -0.003213   0.000619   0.007086   0.003282   0.013877
   91  O  4 ZZ   -0.008310   0.012253  -0.013158   0.009055   0.004256
   92  O  4 XY   -0.004209   0.013341  -0.019969   0.007318  -0.017857
   93  O  4 XZ   -0.019744   0.010546  -0.006397   0.014469   0.009372
   94  O  4 YZ    0.001989   0.005929   0.002202   0.001387  -0.002707
   95  O  5  S   -0.002367  -0.002864  -0.001638  -0.000428  -0.000887
   96  O  5  S   -0.095238   0.013836   0.021110  -0.034016  -0.007976
   97  O  5  S   -0.167244   0.031185   0.050470  -0.076338  -0.021765
   98  O  5  X    0.372933   0.166438  -0.174868   0.070110   0.348798
   99  O  5  Y   -0.109851   0.130081   0.073395  -0.011438  -0.038385
  100  O  5  Z   -0.124965  -0.056811  -0.157592  -0.253056   0.276933
  101  O  5  X    0.269816   0.115705  -0.121729   0.051501   0.270446
  102  O  5  Y   -0.056919   0.084287   0.053151  -0.009317  -0.031744
  103  O  5  Z   -0.086517  -0.042205  -0.120068  -0.186542   0.217779
  104  O  5 XX    0.005701   0.005971  -0.002820  -0.002902   0.006134
  105  O  5 YY   -0.002138  -0.007414  -0.002992   0.001188   0.000303
  106  O  5 ZZ   -0.003563   0.001442   0.005812   0.001715  -0.006437
  107  O  5 XY   -0.002264   0.002593   0.002422  -0.000212  -0.002256
  108  O  5 XZ   -0.006659  -0.004251  -0.000584  -0.004748  -0.000408
  109  O  5 YZ    0.002751  -0.003017  -0.001375   0.002225  -0.001290
  110  O  5  S    0.013264   0.048641   0.059737   0.003797  -0.026914
  111  O  5  X    0.047838   0.019926  -0.017622   0.019790   0.051045
  112  O  5  Y   -0.001803   0.012663   0.027590   0.001885  -0.009683
  113  O  5  Z   -0.020355  -0.008988  -0.025298  -0.036925   0.048671
  114  O  5 XX    0.017434  -0.000580  -0.011518   0.008052   0.026630
  115  O  5 YY   -0.018724   0.007179   0.011789  -0.018327  -0.009371
  116  O  5 ZZ    0.001290  -0.006599  -0.000271   0.010275  -0.017259
  117  O  5 XY   -0.002527   0.011626   0.004569  -0.003379   0.008243
  118  O  5 XZ   -0.014009  -0.005241  -0.004742  -0.011785  -0.000377
  119  O  5 YZ    0.000597  -0.006872  -0.002689  -0.002665   0.006273
  120  H  6  S    0.046225  -0.144370   0.021364   0.000228   0.035810
  121  H  6  S    0.010251  -0.037401   0.002849   0.000355  -0.007216
  122  H  6  X    0.006804  -0.011560   0.003391   0.006377   0.002860
  123  H  6  Y    0.004109   0.012326   0.011153  -0.008434   0.001433
  124  H  6  Z    0.002705   0.006106   0.003383   0.017918  -0.002884
  125  H  6  S    0.006769  -0.003576  -0.003889  -0.003071   0.006174
  126  H  6  X    0.003661   0.002914  -0.003988   0.002452  -0.004139
  127  H  6  Y    0.008354   0.006761   0.006911   0.000344   0.009104
  128  H  6  Z    0.001052   0.004737   0.000113   0.010203   0.006472
  129  H  7  S    0.116504  -0.050203   0.075673  -0.060292   0.007033
  130  H  7  S    0.031037  -0.015118   0.010651   0.012541   0.018593
  131  H  7  X   -0.012107   0.006293  -0.007070   0.008094   0.009521
  132  H  7  Y   -0.007580  -0.005225   0.013140   0.007081   0.013924
  133  H  7  Z   -0.006923   0.005072  -0.009713   0.000768  -0.008264
  134  H  7  S   -0.006482  -0.011401  -0.002434  -0.006005   0.004603
  135  H  7  X   -0.009434  -0.004447  -0.001273  -0.007919  -0.003915
  136  H  7  Y   -0.003461  -0.003119   0.006805   0.003186   0.003919
  137  H  7  Z   -0.001308  -0.003846   0.002863  -0.008742  -0.008982
  138  H  8  S    0.113447  -0.078929  -0.048324   0.058140   0.016879
  139  H  8  S    0.044794   0.003253  -0.003166   0.006410  -0.006373
  140  H  8  X    0.011539   0.011065  -0.006275  -0.001038   0.014723
  141  H  8  Y    0.013593  -0.004408  -0.002718   0.006392  -0.000268
  142  H  8  Z    0.000170  -0.006497  -0.009540  -0.008238   0.013554
  143  H  8  S    0.008374  -0.005106   0.002327   0.002318  -0.006528
  144  H  8  X    0.008442   0.009998  -0.005031  -0.003499   0.001882
  145  H  8  Y    0.007936   0.014476   0.007687  -0.004552  -0.007488
  146  H  8  Z   -0.002445  -0.005178  -0.001907  -0.006928   0.006829

                     21         22         23         24         25
                   -0.4808     0.0324     0.0497     0.0532     0.0614
                     A          A          A          A          A   
    1  SI 1  S   -0.000050  -0.002654  -0.000294   0.000421  -0.002605
    2  SI 1  S   -0.000073  -0.019408  -0.003034   0.002295  -0.017811
    3  SI 1  S    0.075550  -0.029188  -0.025761  -0.010668   0.016192
    4  SI 1  S    0.347504   0.642824   0.101856  -0.147180   0.569629
    5  SI 1  X   -0.001998  -0.000113   0.002080   0.004420   0.001643
    6  SI 1  Y   -0.001390  -0.000639   0.005764  -0.001108   0.001399
    7  SI 1  Z    0.009798   0.002679   0.002498   0.001611  -0.003538
    8  SI 1  X    0.023040   0.003445  -0.008788  -0.011614  -0.014289
    9  SI 1  Y   -0.013484   0.000458  -0.008860   0.017904  -0.006617
   10  SI 1  Z   -0.190056  -0.027424   0.026723   0.021838  -0.050372
   11  SI 1  X    0.025208   0.009851  -0.029636  -0.297338  -0.041858
   12  SI 1  Y   -0.036537   0.101445  -0.163693   0.019705  -0.167225
   13  SI 1  Z   -0.216920   0.339095  -0.202413  -0.046080   0.233064
   14  SI 1 XX   -0.072004  -0.001515   0.002969  -0.011987  -0.002000
   15  SI 1 YY   -0.051413   0.000391  -0.006516   0.006979  -0.005187
   16  SI 1 ZZ    0.123417   0.001124   0.003547   0.005008   0.007186
   17  SI 1 XY   -0.015938  -0.001340  -0.003712   0.016055   0.007496
   18  SI 1 XZ   -0.009923  -0.000542   0.004427   0.017272   0.004582
   19  SI 1 YZ    0.021624  -0.000790   0.016459  -0.010622   0.004551
   20  SI 1 XX   -0.015718  -0.001176   0.000613  -0.000835  -0.001232
   21  SI 1 YY   -0.010279  -0.000880  -0.000403   0.000669  -0.000346
   22  SI 1 ZZ    0.025997   0.002056  -0.000210   0.000166   0.001578
   23  SI 1 XY   -0.003614  -0.000207   0.000244   0.000489   0.000396
   24  SI 1 XZ   -0.002802   0.000038  -0.000073   0.001634   0.000456
   25  SI 1 YZ    0.005098   0.000123   0.001153  -0.000622   0.000765
   26  SI 1  S    0.048472   4.819945   1.062127   0.090431   1.561656
   27  SI 1  X   -0.000091  -0.131042   0.126544  -0.554663  -0.358104
   28  SI 1  Y    0.000029  -0.142249  -0.408326  -0.063329  -0.378231
   29  SI 1  Z   -0.041444   0.049207  -1.139207  -0.960330   2.327341
   30  SI 1 XX   -0.017613   0.127549   0.010502   0.099329   0.045307
   31  SI 1 YY   -0.013837   0.033835   0.014164  -0.029588  -0.059394
   32  SI 1 ZZ    0.031450  -0.161384  -0.024666  -0.069741   0.014087
   33  SI 1 XY    0.009932  -0.043123  -0.024607  -0.102506  -0.069728
   34  SI 1 XZ    0.002832  -0.125677  -0.025837  -0.218031  -0.198387
   35  SI 1 YZ   -0.002079   0.009500  -0.075541  -0.000038  -0.040881
   36  H  2  S    0.334769   0.036406  -0.000404  -0.006670   0.016638
   37  H  2  S    0.010311   0.271873  -0.108168   0.067453   0.023366
   38  H  2  X   -0.000493   0.001394  -0.001351  -0.001937  -0.001040
   39  H  2  Y    0.001474   0.001284  -0.003100   0.002038  -0.001887
   40  H  2  Z    0.018510   0.004050  -0.003431  -0.002673   0.007935
   41  H  2  S   -0.052712  -1.290535  -1.308935  -0.708156   1.016075
   42  H  2  X    0.002903  -0.040363  -0.000309  -0.032780  -0.045220
   43  H  2  Y   -0.006407   0.000214  -0.019652  -0.008701   0.003112
   44  H  2  Z   -0.054323   0.039685  -0.004847   0.023553  -0.047545
   45  O  3  S    0.000812  -0.001342  -0.002050   0.002397   0.000970
   46  O  3  S   -0.002711   0.023436   0.027066  -0.017466  -0.002444
   47  O  3  S   -0.007412   0.086504   0.112169  -0.092991  -0.022859
   48  O  3  X    0.092892  -0.019120  -0.006709   0.049169   0.016056
   49  O  3  Y    0.016789  -0.003682   0.017946  -0.013020   0.024250
   50  O  3  Z    0.284085   0.024445   0.011077   0.015088  -0.018866
   51  O  3  X    0.072806  -0.031772  -0.032043   0.086363   0.040205
   52  O  3  Y    0.015070   0.019714   0.001974  -0.012071   0.024637
   53  O  3  Z    0.222976   0.023757   0.020296  -0.000894  -0.014767
   54  O  3 XX   -0.001962   0.000256   0.000075  -0.001065  -0.001898
   55  O  3 YY   -0.000786   0.000438   0.001180   0.000584   0.001220
   56  O  3 ZZ    0.002748  -0.000694  -0.001255   0.000481   0.000678
   57  O  3 XY   -0.001253  -0.000215   0.000287  -0.000495  -0.000731
   58  O  3 XZ   -0.003455  -0.000996   0.000201   0.000487  -0.000744
   59  O  3 YZ   -0.004392   0.000700   0.000514   0.000502  -0.000014
   60  O  3  S    0.004137  -0.331431   0.459972  -0.660466  -0.437836
   61  O  3  X    0.010664  -0.284492  -0.058334   0.644297   0.261714
   62  O  3  Y    0.006062   0.241652   0.231504  -0.250346   0.110759
   63  O  3  Z    0.064190   0.214225   0.244363   0.019648  -0.316773
   64  O  3 XX    0.007536   0.003153   0.006442  -0.006799   0.003210
   65  O  3 YY    0.000312  -0.006061  -0.006969   0.005616  -0.007621
   66  O  3 ZZ   -0.007848   0.002908   0.000526   0.001183   0.004411
   67  O  3 XY   -0.006615   0.002278   0.000184  -0.003942  -0.000210
   68  O  3 XZ   -0.004557  -0.000301  -0.004699   0.003078   0.006736
   69  O  3 YZ   -0.012937  -0.003405  -0.006444  -0.004922   0.007528
   70  O  4  S    0.002910  -0.000683  -0.002433  -0.002481   0.000722
   71  O  4  S   -0.023507   0.023381   0.012196   0.028873   0.010307
   72  O  4  S   -0.061232   0.070695   0.072985   0.118664   0.017610
   73  O  4  X    0.070150   0.001526   0.003722   0.020540   0.034352
   74  O  4  Y   -0.152607  -0.003467   0.038526  -0.009859   0.016259
   75  O  4  Z    0.098701   0.032320   0.024611   0.024683  -0.011899
   76  O  4  X    0.058849   0.014825   0.011819   0.001523   0.028117
   77  O  4  Y   -0.121762  -0.011629   0.040748   0.010879   0.008627
   78  O  4  Z    0.069727   0.033852   0.049197   0.045668  -0.005730
   79  O  4 XX   -0.003669   0.000399  -0.000508   0.000047   0.000559
   80  O  4 YY   -0.002336  -0.001039   0.000119  -0.000226  -0.001291
   81  O  4 ZZ    0.006005   0.000640   0.000389   0.000179   0.000732
   82  O  4 XY    0.003016  -0.000220   0.000380  -0.000885   0.000408
   83  O  4 XZ    0.000179   0.000906  -0.000435  -0.001575   0.000175
   84  O  4 YZ    0.000318   0.000275   0.000844   0.000287   0.000382
   85  O  4  S   -0.053651  -0.485632   0.474608   0.744080  -0.377814
   86  O  4  X    0.025655   0.331425   0.108725   0.266024   0.509656
   87  O  4  Y   -0.027416   0.014291   0.253412   0.010896   0.118337
   88  O  4  Z    0.039069   0.362913   0.394656   0.343422  -0.005413
   89  O  4 XX   -0.004250  -0.004592  -0.001815   0.001136  -0.007535
   90  O  4 YY    0.004001   0.000209   0.000684  -0.000829   0.009862
   91  O  4 ZZ    0.000249   0.004383   0.001131  -0.000307  -0.002328
   92  O  4 XY    0.010372   0.001736  -0.002990   0.004021  -0.001537
   93  O  4 XZ   -0.002481  -0.003806  -0.000881   0.008170   0.006143
   94  O  4 YZ   -0.001121   0.001156   0.004713   0.001405  -0.002101
   95  O  5  S    0.002256  -0.000639   0.004133   0.000950   0.003013
   96  O  5  S    0.009662   0.035683  -0.009197  -0.001447  -0.022582
   97  O  5  S    0.018678   0.104429  -0.106867  -0.019099  -0.120002
   98  O  5  X   -0.080918  -0.000796   0.001108   0.037691   0.003827
   99  O  5  Y   -0.037494  -0.033128   0.048049  -0.016565   0.009942
  100  O  5  Z    0.252440   0.005990   0.029628   0.012994  -0.005457
  101  O  5  X   -0.063781  -0.000001  -0.005189   0.033185  -0.020443
  102  O  5  Y   -0.036507  -0.054269   0.100700  -0.038300   0.021624
  103  O  5  Z    0.195503   0.001491   0.036347   0.004458   0.014212
  104  O  5 XX   -0.000123  -0.000168   0.000572  -0.000855  -0.000315
  105  O  5 YY    0.000586   0.001443  -0.001108   0.000995   0.000449
  106  O  5 ZZ   -0.000464  -0.001275   0.000536  -0.000140  -0.000134
  107  O  5 XY   -0.000478   0.000449   0.001021  -0.001015   0.000253
[...]
   14  SI 1 XX   -0.107800  -0.028453
   15  SI 1 YY    0.077884  -0.044028
   16  SI 1 ZZ    0.029916   0.072481
   17  SI 1 XY    0.041906   0.015602
   18  SI 1 XZ   -0.071512   0.092992
   19  SI 1 YZ    0.039532   0.055422
   20  SI 1 XX   -0.002906  -0.006566
   21  SI 1 YY    0.001996  -0.003328
   22  SI 1 ZZ    0.000910   0.009894
   23  SI 1 XY   -0.000910   0.005170
   24  SI 1 XZ   -0.004828   0.010576
   25  SI 1 YZ    0.006085   0.004376
   26  SI 1  S   -0.110305   0.670051
   27  SI 1  X   -0.054109   0.057444
   28  SI 1  Y    0.048493  -0.106411
   29  SI 1  Z    0.031702  -0.022858
   30  SI 1 XX   -0.214142   0.001295
   31  SI 1 YY    0.120789   0.088722
   32  SI 1 ZZ    0.093353  -0.090017
   33  SI 1 XY    0.100854   0.016353
   34  SI 1 XZ   -0.067064   0.112600
   35  SI 1 YZ   -0.013195  -0.002477
   36  H  2  S    0.033846  -0.016800
   37  H  2  S    0.331272   0.092319
   38  H  2  X    0.001665   0.005581
   39  H  2  Y   -0.017992  -0.009370
   40  H  2  Z   -0.005344  -0.000312
   41  H  2  S    0.100092  -0.161312
   42  H  2  X    0.053329   0.054081
   43  H  2  Y   -0.100001  -0.074916
   44  H  2  Z    0.035490  -0.015532
   45  O  3  S   -0.003573   0.004397
   46  O  3  S    0.040144  -0.027100
   47  O  3  S    0.117735  -0.135238
   48  O  3  X    0.068794  -0.054940
   49  O  3  Y   -0.049714   0.058125
   50  O  3  Z    0.006928  -0.043955
   51  O  3  X    0.062630  -0.059605
   52  O  3  Y   -0.062655   0.083888
   53  O  3  Z    0.013866  -0.057338
   54  O  3 XX   -0.004220   0.002846
   55  O  3 YY    0.002332  -0.001153
   56  O  3 ZZ    0.001888  -0.001693
   57  O  3 XY    0.003380  -0.003477
   58  O  3 XZ    0.002344   0.001010
   59  O  3 YZ    0.000564  -0.002907
   60  O  3  S    0.166708  -0.563277
   61  O  3  X    0.068816  -0.081149
   62  O  3  Y   -0.074591   0.163635
   63  O  3  Z    0.076089   0.036006
   64  O  3 XX   -0.012762   0.007108
   65  O  3 YY   -0.001258  -0.004138
   66  O  3 ZZ    0.014021  -0.002970
   67  O  3 XY    0.016351  -0.005701
   68  O  3 XZ    0.001095   0.002372
   69  O  3 YZ    0.007924   0.012949
   70  O  4  S    0.007673   0.028349
   71  O  4  S    0.064452   0.041022
   72  O  4  S    0.199513  -0.151234
   73  O  4  X   -0.483195   0.385510
   74  O  4  Y   -0.053558  -0.272718
   75  O  4  Z   -0.421062  -0.362363
   76  O  4  X   -0.272985   0.059077
   77  O  4  Y    0.017809   0.003078
   78  O  4  Z   -0.209809   0.006835
   79  O  4 XX    0.000593  -0.016209
   80  O  4 YY   -0.020798  -0.010540
   81  O  4 ZZ    0.020204   0.026749
   82  O  4 XY   -0.008822   0.017488
   83  O  4 XZ    0.029841  -0.004581
   84  O  4 YZ   -0.003237   0.005332
   85  O  4  S    0.047035  -1.847701
   86  O  4  X   -0.060216   0.046889
   87  O  4  Y   -0.078021   0.103543
   88  O  4  Z   -0.386210   0.019039
   89  O  4 XX    0.090710  -0.069063
   90  O  4 YY   -0.080364  -0.005162
   91  O  4 ZZ   -0.010347   0.074225
   92  O  4 XY   -0.048945   0.032876
   93  O  4 XZ    0.093532  -0.037085
   94  O  4 YZ   -0.023161   0.014010
   95  O  5  S   -0.007545   0.000329
   96  O  5  S   -0.019484  -0.025101
   97  O  5  S   -0.042180  -0.055032
   98  O  5  X    0.075226  -0.049291
   99  O  5  Y    0.065222  -0.021871
  100  O  5  Z    0.017206   0.007611
  101  O  5  X    0.101424  -0.044553
  102  O  5  Y    0.034460  -0.017519
  103  O  5  Z    0.058527  -0.002919
  104  O  5 XX   -0.006447  -0.000182
  105  O  5 YY    0.003298  -0.000102
  106  O  5 ZZ    0.003148   0.000284
  107  O  5 XY   -0.004625   0.002697
  108  O  5 XZ   -0.001353   0.001018
  109  O  5 YZ   -0.002104   0.002298
  110  O  5  S   -0.062624   0.159990
  111  O  5  X    0.077057   0.019663
  112  O  5  Y   -0.059138   0.038488
  113  O  5  Z    0.069591  -0.028377
  114  O  5 XX    0.004802   0.005325
  115  O  5 YY    0.010922   0.002304
  116  O  5 ZZ   -0.015724  -0.007629
  117  O  5 XY   -0.000830   0.000137
  118  O  5 XZ    0.016620  -0.003188
  119  O  5 YZ    0.007209  -0.005423
  120  H  6  S   -0.055080   0.028622
  121  H  6  S   -0.102959   0.174025
  122  H  6  X   -0.002585   0.003040
  123  H  6  Y   -0.000400   0.002429
  124  H  6  Z    0.002255  -0.001523
  125  H  6  S    0.005308  -0.037615
  126  H  6  X   -0.023887   0.033000
  127  H  6  Y    0.007051  -0.018689
  128  H  6  Z   -0.015864  -0.017247
  129  H  7  S    0.454435   0.246565
  130  H  7  S    1.113147   0.757063
  131  H  7  X    0.043259  -0.035868
  132  H  7  Y    0.017648   0.034869
  133  H  7  Z    0.060141   0.044124
  134  H  7  S   -0.252739  -0.308395
  135  H  7  X    0.052662  -0.244561
  136  H  7  Y   -0.095525   0.061397
  137  H  7  Z   -0.220701   0.007374
  138  H  8  S    0.034668   0.010268
  139  H  8  S    0.047684  -0.075026
  140  H  8  X    0.010931  -0.007017
  141  H  8  Y   -0.003686  -0.003232
  142  H  8  Z   -0.002169  -0.003212
  143  H  8  S    0.096953  -0.072901
  144  H  8  X    0.043749  -0.022460
  145  H  8  Y   -0.011796  -0.009211
  146  H  8  Z    0.012249  -0.007545

 THE CIS NATURAL ORBITALS HAVE BEEN PUNCHED.

 .... DONE WITH CIS ENERGY + 1-PARTICLE DENSITY ....

 STEP CPU TIME =   640.87 TOTAL CPU TIME =      688.9 (   11.5 MIN)
 TOTAL WALL CLOCK TIME=      695.8 SECONDS, CPU UTILIZATION IS  99.00%

     -------------------------------------------------------------
     CIS   PROPERTIES...FOR THE WAVEFUNCTION OF EXCITED STATE    3
               USING THE RESPONSE (OR RELAXED) DENSITY
     -------------------------------------------------------------

          -----------------
          ENERGY COMPONENTS
          -----------------

         WAVEFUNCTION NORMALIZATION =       1.0000000000

                ONE ELECTRON ENERGY =   -1087.8726063185
                TWO ELECTRON ENERGY =     382.9698340391
           NUCLEAR REPULSION ENERGY =     189.1856182149
                                      ------------------
                       TOTAL ENERGY =    -515.7171540646

 ELECTRON-ELECTRON POTENTIAL ENERGY =     382.9698340391
  NUCLEUS-ELECTRON POTENTIAL ENERGY =   -1603.6644405798
   NUCLEUS-NUCLEUS POTENTIAL ENERGY =     189.1856182149
                                      ------------------
             TOTAL POTENTIAL ENERGY =   -1031.5089883258
               TOTAL KINETIC ENERGY =     515.7918342612
                 VIRIAL RATIO (V/T) =       1.9998552125

          ---------------------------------------
          MULLIKEN AND LOWDIN POPULATION ANALYSES
          ---------------------------------------

               ----- POPULATIONS IN EACH AO -----
                             MULLIKEN      LOWDIN
              1  SI 1  S      2.00017     1.99172
              2  SI 1  S      2.02661     1.26868
              3  SI 1  S      0.62056     0.51050
              4  SI 1  S     -0.35512     0.12032
              5  SI 1  X      2.00101     1.91362
              6  SI 1  Y      2.00060     1.91765
              7  SI 1  Z      2.00060     1.94576
              8  SI 1  X      0.31278     0.32238
              9  SI 1  Y      0.33724     0.33639
             10  SI 1  Z      0.44690     0.40128
             11  SI 1  X     -0.12948     0.11049
             12  SI 1  Y     -0.11221     0.10625
             13  SI 1  Z      0.16717     0.20901
             14  SI 1 XX      0.13942     0.18843
             15  SI 1 YY      0.10551     0.17095
             16  SI 1 ZZ      0.09441     0.22627
             17  SI 1 XY      0.06214     0.17978
             18  SI 1 XZ      0.08608     0.10938
             19  SI 1 YZ      0.00000     0.13288
             20  SI 1 XX      0.00568     0.12754
             21  SI 1 YY      0.00557     0.12794
             22  SI 1 ZZ      0.00544     0.13166
             23  SI 1 XY      0.00302     0.00554
             24  SI 1 XZ      0.00384     0.00300
             25  SI 1 YZ      0.00000     0.00381
             26  SI 1  S      0.02672     0.06839
             27  SI 1  X      0.02319     0.05079
             28  SI 1  Y      0.04842     0.03805
             29  SI 1  Z     -0.00599     0.04211
             30  SI 1 XX      0.02032     0.07854
             31  SI 1 YY     -0.01740     0.07470
             32  SI 1 ZZ     -0.02302     0.09148
             33  SI 1 XY     -0.01225     0.08022
             34  SI 1 XZ      0.00597     0.06283
             35  SI 1 YZ      0.00000     0.07334
             36  H  2  S      0.70530     0.56786
             37  H  2  S      0.21052     0.26367
             38  H  2  X      0.00089     0.00142
             39  H  2  Y      0.00310     0.00520
             40  H  2  Z      0.01255     0.02270
             41  H  2  S     -0.05841     0.04023
             42  H  2  X      0.01082     0.02220
             43  H  2  Y      0.03038     0.04234
             44  H  2  Z      0.04208     0.05835
             45  O  3  S      2.00329     1.87019
             46  O  3  S      0.80998     0.59319
             47  O  3  S      0.91996     0.36472
             48  O  3  X      0.86890     0.80311
             49  O  3  Y      0.98058     0.92505
             50  O  3  Z      1.00807     0.95823
             51  O  3  X      0.48518     0.55223
             52  O  3  Y      0.68715     0.59149
             53  O  3  Z      0.72303     0.61659
             54  O  3 XX      0.00114     0.17151
             55  O  3 YY      0.00485     0.16325
             56  O  3 ZZ      0.00103     0.15675
             57  O  3 XY      0.00110     0.00097
             58  O  3 XZ      0.00140     0.00116
             59  O  3 YZ      0.00000     0.00161
             60  O  3  S      0.21395     0.07021
             61  O  3  X      0.04891     0.06590
             62  O  3  Y      0.05374     0.07229
             63  O  3  Z      0.05071     0.07248
             64  O  3 XX     -0.00113     0.05766
             65  O  3 YY     -0.00612     0.06689
             66  O  3 ZZ      0.00083     0.03747
             67  O  3 XY     -0.00319     0.01662
             68  O  3 XZ      0.00531     0.00638
             69  O  3 YZ      0.00000     0.02009
             70  O  4  S      2.00319     1.87044
             71  O  4  S      0.88670     0.65006
             72  O  4  S      0.89238     0.37000
             73  O  4  X      1.02826     0.96872
             74  O  4  Y      0.76727     0.72970
             75  O  4  Z      0.92510     0.85303
             76  O  4  X      0.64642     0.54795
             77  O  4  Y      0.53916     0.44957
             78  O  4  Z      0.46622     0.50288
             79  O  4 XX      0.00362     0.17907
             80  O  4 YY      0.00194     0.16649
             81  O  4 ZZ      0.00113     0.17606
             82  O  4 XY      0.00094     0.00114
             83  O  4 XZ      0.00182     0.00118
             84  O  4 YZ      0.00000     0.00211
             85  O  4  S      0.19669     0.10965
             86  O  4  X      0.05619     0.07561
             87  O  4  Y      0.02248     0.04381
             88  O  4  Z      0.07688     0.09540
             89  O  4 XX     -0.00426     0.07664
             90  O  4 YY      0.00428     0.03464
             91  O  4 ZZ      0.00282     0.07160
             92  O  4 XY      0.00105     0.01332
             93  O  4 XZ     -0.00054     0.02386
             94  O  4 YZ      0.00000     0.00878
             95  O  5  S      2.00328     1.86994
             96  O  5  S      0.82142     0.60041
             97  O  5  S      0.91722     0.36310
             98  O  5  X      0.94702     0.89770
             99  O  5  Y      0.85479     0.78095
            100  O  5  Z      1.03279     0.98374
            101  O  5  X      0.69329     0.59244
            102  O  5  Y      0.42413     0.52097
            103  O  5  Z      0.74047     0.62161
            104  O  5 XX      0.00133     0.15833
            105  O  5 YY      0.00300     0.17809
            106  O  5 ZZ      0.00185     0.15585
            107  O  5 XY      0.00133     0.00215
            108  O  5 XZ      0.00170     0.00136
            109  O  5 YZ      0.00000     0.00199
            110  O  5  S      0.18677     0.07296
            111  O  5  X      0.04890     0.07227
            112  O  5  Y      0.05056     0.06974
            113  O  5  Z      0.05039     0.06887
            114  O  5 XX     -0.00102     0.04581
            115  O  5 YY     -0.01025     0.06998
            116  O  5 ZZ      0.00215     0.03486
            117  O  5 XY      0.00411     0.02703
            118  O  5 XZ      0.00091     0.01306
            119  O  5 YZ      0.00000     0.01735
            120  H  6  S      0.71937     0.46498
            121  H  6  S     -0.01363     0.09747
            122  H  6  X      0.04672     0.07788
            123  H  6  Y      0.01466     0.04572
            124  H  6  Z      0.02206     0.05389
            125  H  6  S      0.02229     0.02693
            126  H  6  X      0.00662     0.09040
            127  H  6  Y      0.00775     0.07414
            128  H  6  Z      0.00989     0.07895
            129  H  7  S      0.68926     0.43639
            130  H  7  S      0.12726     0.15293
            131  H  7  X      0.01448     0.04566
            132  H  7  Y      0.01518     0.04172
            133  H  7  Z      0.05694     0.11362
            134  H  7  S      0.34657     0.17001
            135  H  7  X     -0.00080     0.05930
            136  H  7  Y      0.00180     0.05411
            137  H  7  Z      0.01996     0.12524
            138  H  8  S      0.71783     0.46423
            139  H  8  S      0.01175     0.10488
            140  H  8  X      0.01592     0.04623
            141  H  8  Y      0.04991     0.08180
            142  H  8  Z      0.01907     0.05186
            143  H  8  S      0.04407     0.05576
            144  H  8  X      0.00976     0.07795
            145  H  8  Y      0.01211     0.08575
            146  H  8  Z      0.00753     0.07820

          ----- MULLIKEN ATOMIC OVERLAP POPULATIONS -----
          (OFF-DIAGONAL ELEMENTS NEED TO BE MULTIPLIED BY 2)

             1           2           3           4           5

    1   12.1821983
    2    0.1516132   0.6438806
    3   -0.0666396   0.0821404   8.6557902
    4   -0.5302396   0.1049173  -0.0223650   8.8284111
    5   -0.1526405   0.0658570  -0.0658537   0.0113195   8.5789606
    6    0.0164010  -0.0149451   0.3498212  -0.0058077   0.0089687
    7    0.2732782  -0.0741399  -0.0661866   0.1254708  -0.0408555
    8    0.0199440  -0.0021089  -0.0080432   0.0080245   0.3703893

             6           7           8

    6    0.4529277
    7    0.0249384   1.0126815
    8    0.0034125   0.0154773   0.4808540

          TOTAL MULLIKEN AND LOWDIN ATOMIC POPULATIONS
       ATOM         MULL.POP.    CHARGE          LOW.POP.     CHARGE
    1 SI           11.893915    2.106085        13.221677    0.778323
    2 H             0.957215    0.042785         1.023980   -0.023980
    3 O             8.858664   -0.858664         8.256052   -0.256052
    4 O             8.519731   -0.519731         8.021706   -0.021706
    5 O             8.776145   -0.776145         8.220575   -0.220575
    6 H             0.835717    0.164283         1.010358   -0.010358
    7 H             1.270664   -0.270664         1.198978   -0.198978
    8 H             0.887950    0.112050         1.046674   -0.046674

          MULLIKEN SPHERICAL HARMONIC POPULATIONS
       ATOM           S       P       D      F      G      H      I    TOTAL
    1 SI            4.32    7.09    0.48   0.00   0.00   0.00   0.00   11.89
    2 H             0.86    0.10    0.00   0.00   0.00   0.00   0.00    0.96
    3 O             3.95    4.91    0.01   0.00   0.00   0.00   0.00    8.86
    4 O             3.98    4.53    0.01   0.00   0.00   0.00   0.00    8.52
    5 O             3.93    4.84    0.01   0.00   0.00   0.00   0.00    8.78
    6 H             0.73    0.11    0.00   0.00   0.00   0.00   0.00    0.84
    7 H             1.16    0.11    0.00   0.00   0.00   0.00   0.00    1.27
    8 H             0.77    0.11    0.00   0.00   0.00   0.00   0.00    0.89

          ---------------------
          ELECTROSTATIC MOMENTS
          ---------------------

 POINT   1           X           Y           Z (BOHR)    CHARGE
                 0.024318    0.019926    0.035564       -0.00 (A.U.)
         DX          DY          DZ         /D/  (DEBYE)
    -3.061932   -0.329162   -2.394550    3.900980
 ...... END OF PROPERTY EVALUATION ......
 STEP CPU TIME =     0.03 TOTAL CPU TIME =      688.9 (   11.5 MIN)
 TOTAL WALL CLOCK TIME=      695.9 SECONDS, CPU UTILIZATION IS  99.01%

 BEGINNING ONE ELECTRON GRADIENT...
 ..... END OF 1-ELECTRON GRADIENT ......
 STEP CPU TIME =     0.06 TOTAL CPU TIME =      689.0 (   11.5 MIN)
 TOTAL WALL CLOCK TIME=      695.9 SECONDS, CPU UTILIZATION IS  99.01%

          ----------------------
          GRADIENT OF THE ENERGY
          ----------------------

 THE MINIMUM MEMORY REQUIRED FOR THIS RUN IS     318255 WORDS.
 USING    1293775 WORDS FOR 2E- DERIVATIVE INTEGRAL CONTRIBUTIONS.
 THE COARSE/FINE SCHWARZ SCREENINGS SKIPPED        22231/      155425 BLOCKS.
 THE NUMBER OF GRADIENT INTEGRAL BLOCKS COMPUTED WAS   1383013
 ...... END OF 2-ELECTRON GRADIENT ......
 STEP CPU TIME =    11.48 TOTAL CPU TIME =      700.5 (   11.7 MIN)
 TOTAL WALL CLOCK TIME=      707.4 SECONDS, CPU UTILIZATION IS  99.02%

                         ----------------------
                         GRADIENT OF THE ENERGY
                         ----------------------

 UNITS ARE HARTREE/BOHR    E'X               E'Y               E'Z 
    1 SI               0.066144830      -0.013080546       0.005971985
    2 H               -0.001670300      -0.004834213       0.010235660
    3 O               -0.004731963       0.009876664       0.007390175
    4 O               -0.022664641       0.036677549       0.058243152
    5 O               -0.006226064      -0.003071753       0.001703785
    6 H               -0.002602752      -0.001234956      -0.001129586
    7 H               -0.029852246      -0.030527337      -0.081858342
    8 H                0.001603137       0.006194592      -0.000556829

                   MAXIMUM GRADIENT =    0.081858342
                       RMS GRADIENT =    0.027961561
  $VIB   
          IVIB=   0 IATOM=   0 ICOORD=   0 E=     -515.7171540646
  6.614482986E-02-1.308054605E-02 5.971985219E-03-1.670299618E-03-4.834213266E-03
  1.023565952E-02-4.731963220E-03 9.876663801E-03 7.390174640E-03-2.266464097E-02
  3.667754924E-02 5.824315160E-02-6.226064372E-03-3.071752523E-03 1.703785405E-03
 -2.602752283E-03-1.234956368E-03-1.129585722E-03-2.985224622E-02-3.052733663E-02
 -8.185834188E-02 1.603136825E-03 6.194591796E-03-5.568287776E-04
 -3.061932111E+00-3.291618156E-01-2.394549817E+00

..... END OF SINGLE POINT GRADIENT .....
 STEP CPU TIME =     0.00 TOTAL CPU TIME =      700.5 (   11.7 MIN)
 TOTAL WALL CLOCK TIME=      707.4 SECONDS, CPU UTILIZATION IS  99.02%
              1398710  WORDS OF DYNAMIC MEMORY USED
 EXECUTION OF GAMESS TERMINATED NORMALLY Mon Nov 28 18:08:37 2016
 DDI: 263640 bytes (0.3 MB / 0 MWords) used by master data server.

 ----------------------------------------
 CPU timing information for all processes
 ========================================
 0: 697.195 + 3.307 = 700.502
 ----------------------------------------
 ddikick.x: exited gracefully.
unset echo
----- accounting info -----
Files used on the master node compute-3-0 were:
-rw-rw-r-- 1 sarom sarom  867186 Nov 29  2016 .//cis-hsioh3-grad.dat
-rw-rw-r-- 1 sarom sarom    1727 Nov 28  2016 .//cis-hsioh3-grad.F05
-rw-rw-r-- 1 sarom sarom 3468320 Nov 29  2016 .//cis-hsioh3-grad.F10
-rw-rw-r-- 1 sarom sarom  120680 Nov 29  2016 .//cis-hsioh3-grad.F12
-rw-rw-r-- 1 sarom sarom    1727 Nov 28 17:27 .//cis-hsioh3-grad.inp
-rw-rw-r-- 1 sarom sarom  681778 Nov 29  2016 .//cis-hsioh3-grad.log
Mon Nov 28 18:08:40 CST 2016
0.188u 0.602s 11:51.39 0.1%	0+0k 0+136io 0pf+0w
