----- GAMESS execution script 'rungms' -----
This job is running on host compute-3-0
under operating system Linux at Mon Nov 28 17:56:50 CST 2016
Available scratch disk space (Kbyte units) at beginning of the job is
Filesystem            1K-blocks       Used  Available Use% Mounted on
bolt.local:/export/home/sarom
                     9590469632 1552080896 7551220736  18% /home/sarom
Copying input file cis-c6h4.inp to your run's scratch directory...
cp cis-c6h4.inp .//cis-c6h4.F05
unset echo
/home/sarom/gamessGH/ddikick.x /home/sarom/gamessGH/gamess.00.x cis-c6h4 -ddi 1 1 localhost -scr ./

 Distributed Data Interface kickoff program.
 Initiating 1 compute processes on 1 nodes to run the following command:
 /home/sarom/gamessGH/gamess.00.x cis-c6h4 

          ******************************************************
          *         GAMESS VERSION = 18 AUG 2016 (R1)          *
          *             FROM IOWA STATE UNIVERSITY             *
          * M.W.SCHMIDT, K.K.BALDRIDGE, J.A.BOATZ, S.T.ELBERT, *
          *   M.S.GORDON, J.H.JENSEN, S.KOSEKI, N.MATSUNAGA,   *
          *          K.A.NGUYEN, S.J.SU, T.L.WINDUS,           *
          *       TOGETHER WITH M.DUPUIS, J.A.MONTGOMERY       *
          *         J.COMPUT.CHEM.  14, 1347-1363(1993)        *
          **************** 64 BIT LINUX VERSION ****************

  SINCE 1993, STUDENTS AND POSTDOCS WORKING AT IOWA STATE UNIVERSITY
  AND ALSO IN THEIR VARIOUS JOBS AFTER LEAVING ISU HAVE MADE IMPORTANT
  CONTRIBUTIONS TO THE CODE:
     IVANA ADAMOVIC, CHRISTINE AIKENS, YURI ALEXEEV, POOJA ARORA,
     ANDREY ASADCHEV, ROB BELL, PRADIPTA BANDYOPADHYAY, JONATHAN BENTZ,
     BRETT BODE, KURT BRORSEN, CALEB CARLIN, GALINA CHABAN, WEI CHEN,
     CHEOL HO CHOI, PAUL DAY, ALBERT DEFUSCO, NUWAN DESILVA, TIM DUDLEY,
     DMITRI FEDOROV, GRAHAM FLETCHER, MARK FREITAG, KURT GLAESEMANN,
     DAN KEMP, GRANT MERRILL, NORIYUKI MINEZAWA, JONATHAN MULLIN,
     TAKESHI NAGATA, SEAN NEDD, HEATHER NETZLOFF, BOSILJKA NJEGIC, RYAN OLSON,
     MIKE PAK, SPENCER PRUITT, LUKE ROSKOP, JIM SHOEMAKER, LYUDMILA SLIPCHENKO,
     TONY SMITH, SAROM SOK LEANG, JIE SONG, TETSUYA TAKETSUGU, SIMON WEBB,
     PENG XU, SOOHAENG YOO, FEDERICO ZAHARIEV

  ADDITIONAL CODE HAS BEEN PROVIDED BY COLLABORATORS IN OTHER GROUPS:
     IOWA STATE UNIVERSITY:
          JOE IVANIC, AARON WEST, LAIMUTIS BYTAUTAS, KLAUS RUEDENBERG
     UNIVERSITY OF TOKYO: KIMIHIKO HIRAO, TAKAHITO NAKAJIMA,
          TAKAO TSUNEDA, MUNEAKI KAMIYA, SUSUMU YANAGISAWA,
          KIYOSHI YAGI, MAHITO CHIBA, SEIKEN TOKURA, NAOAKI KAWAKAMI
     UNIVERSITY OF AARHUS: FRANK JENSEN
     UNIVERSITY OF IOWA: VISVALDAS KAIRYS, HUI LI
     NATIONAL INST. OF STANDARDS AND TECHNOLOGY: WALT STEVENS, DAVID GARMER
     UNIVERSITY OF PISA: BENEDETTA MENNUCCI, JACOPO TOMASI
     UNIVERSITY OF MEMPHIS: HENRY KURTZ, PRAKASHAN KORAMBATH
     UNIVERSITY OF ALBERTA: TOBY ZENG, MARIUSZ KLOBUKOWSKI
     UNIVERSITY OF NEW ENGLAND: MARK SPACKMAN
     MIE UNIVERSITY: HIROAKI UMEDA
     NAT. INST. OF ADVANCED INDUSTRIAL SCIENCE AND TECHNOLOGY: KAZUO KITAURA
     MICHIGAN STATE UNIVERSITY:
          KAROL KOWALSKI, MARTA WLOCH, JEFFREY GOUR, JESSE LUTZ,
          WEI LI, PIOTR PIECUCH
     UNIVERSITY OF SILESIA: MONIKA MUSIAL, STANISLAW KUCHARSKI
     FACULTES UNIVERSITAIRES NOTRE-DAME DE LA PAIX:
          OLIVIER QUINET, BENOIT CHAMPAGNE
     UNIVERSITY OF CALIFORNIA - SANTA BARBARA: BERNARD KIRTMAN
     INSTITUTE FOR MOLECULAR SCIENCE:
          KAZUYA ISHIMURA, MICHIO KATOUDA, AND SHIGERU NAGASE
     UNIVERSITY OF NOTRE DAME: ANNA POMOGAEVA, DAN CHIPMAN
     KYUSHU UNIVERSITY:
          HARUYUKI NAKANO,
          FENG LONG GU, JACEK KORCHOWIEC, MARCIN MAKOWSKI, AND YURIKO AOKI,
          HIROTOSHI MORI AND EISAKU MIYOSHI
     PENNSYLVANIA STATE UNIVERSITY:
          TZVETELIN IORDANOV, CHET SWALINA, JONATHAN SKONE,
          SHARON HAMMES-SCHIFFER
     WASEDA UNIVERSITY:
          MASATO KOBAYASHI, TOMOKO AKAMA, TSUGUKI TOUMA,
          TAKESHI YOSHIKAWA, YASUHIRO IKABATA, JUNJI SEINO,
          YUYA NAKAJIMA, HIROMI NAKAI
     NANJING UNIVERSITY: SHUHUA LI
     UNIVERSITY OF NEBRASKA:
          PEIFENG SU, DEJUN SI, NANDUN THELLAMUREGE, YALI WANG, HUI LI
     UNIVERSITY OF ZURICH: ROBERTO PEVERATI, KIM BALDRIDGE
     N. COPERNICUS UNIVERSITY AND JACKSON STATE UNIVERSITY:
          MARIA BARYSZ
     UNIVERSITY OF COPENHAGEN: Jimmy Kromann, CASPER STEINMANN
     TOKYO INSTITUTE OF TECHNOLOGY: HIROYA NAKATA
     NAGOYA UNIVERSITY: YOSHIO NISHIMOTO, STEPHAN IRLE
     MOSCOW STATE UNIVERSITY: VLADIMIR MIRONOV

 EXECUTION OF GAMESS BEGUN Mon Nov 28 17:56:50 2016

            ECHO OF THE FIRST FEW INPUT CARDS -
 INPUT CARD>!  ortho-benzyne...1,3-cyclohexadien-5-yne...CAS # 462-80-6                     
 INPUT CARD>!  "The benzyne story" C.Wentrop  Aust.J.Chem. 63, 979-986(2010)                
 INPUT CARD>!  CIS asked to predict both singlet and triplet roots, simultaneously          
 INPUT CARD>!  there are 270 AOs, 236 MOs in CCT basis set.  Created 4/2015                 
 INPUT CARD>!                                                                               
 INPUT CARD>!   FINAL RHF E= -229.4611756084, 14 iters                                      
 INPUT CARD>!   ten Davidson iterations to find                                             
 INPUT CARD>!      EXCITED STATE   1  ENERGY= -229.4297489764  S=1.0  SPACE SYM=B2          
 INPUT CARD>!      EXCITED STATE   2  ENERGY= -229.3625460168  S=1.0  SPACE SYM=A2          
 INPUT CARD>!      EXCITED STATE   3  ENERGY= -229.3345233179  S=0.0  SPACE SYM=A2          
 INPUT CARD>!      EXCITED STATE   4  ENERGY= -229.3321841346  S=1.0  SPACE SYM=B2          
 INPUT CARD>!      EXCITED STATE   5  ENERGY= -229.3042399187  S=1.0  SPACE SYM=B1          
 INPUT CARD>!      STATE 1 z-DIPOLE =  -1.993918 DEBYE                                      
 INPUT CARD>!      STATE 2 z-DIPOLE =  -3.491396 DEBYE                                      
 INPUT CARD>!      STATE 3 z-DIPOLE =  -3.725793 DEBYE                                      
 INPUT CARD>!      STATE 4 z-DIPOLE =  -1.912363 DEBYE                                      
 INPUT CARD>!      STATE 5 z-DIPOLE =  -5.057181 DEBYE                                      
 INPUT CARD>!    TRANSITION FROM GROUND TO EXCITED STATE  3 has no oscillator strength      
 INPUT CARD>!                                                                               
 INPUT CARD>!    This run takes 986 seconds (14 Apr 2015)                                   
 INPUT CARD>!                                                                               
 INPUT CARD> $contrl scftyp=rhf cityp=cis runtyp=energy ispher=1 $end                       
 INPUT CARD> $system mwords=20 $end                                                         
 INPUT CARD> $basis  gbasis=cct $end                                                        
 INPUT CARD> $guess  guess=huckel $end                                                      
 INPUT CARD> $cis    hamtyp=dets nacore=6 nstate=5 iroot=1 $end                             
 INPUT CARD>                                                                                
 INPUT CARD> $data                                                                          
 INPUT CARD>ortho-benzyne...MCSCF/ACCT geometry                                             
 INPUT CARD>Cnv 2                                                                           
 INPUT CARD>                                                                                
 INPUT CARD>C   6.0   0.0000000000   0.6248866430   1.1446064282                            
 INPUT CARD>C   6.0   0.0000000000   1.4474467006   0.0144160436                            
 INPUT CARD>H   1.0   0.0000000000   2.5177864553   0.0227427439                            
 INPUT CARD>C   6.0   0.0000000000   0.7095251288  -1.1628699161                            
 INPUT CARD>H   1.0   0.0000000000   1.2230732119  -2.1058952997                            
 INPUT CARD> $end                                                                           
   20000000 WORDS OF MEMORY AVAILABLE

     BASIS OPTIONS
     -------------
     GBASIS=CCT          IGAUSS=       0      POLAR=NONE    
     NDFUNC=       0     NFFUNC=       0     DIFFSP=       F
     NPFUNC=       0      DIFFS=       F     BASNAM=        


     RUN TITLE
     ---------
 ortho-benzyne...MCSCF/ACCT geometry                                             

 THE POINT GROUP OF THE MOLECULE IS CNV     
 THE ORDER OF THE PRINCIPAL AXIS IS     2

 ATOM      ATOMIC                      COORDINATES (BOHR)
           CHARGE         X                   Y                   Z
 C           6.0    -0.0000000000       -1.1808645287        2.1629925131
 C           6.0     0.0000000000        1.1808645287        2.1629925131
 C           6.0    -0.0000000000       -2.7352776460        0.0272423722
 C           6.0     0.0000000000        2.7352776460        0.0272423722
 H           1.0    -0.0000000000       -4.7579264961        0.0429775542
 H           1.0     0.0000000000        4.7579264961        0.0429775542
 C           6.0    -0.0000000000       -1.3408080748       -2.1975055008
 C           6.0     0.0000000000        1.3408080748       -2.1975055008
 H           1.0    -0.0000000000       -2.3112732334       -3.9795650753
 H           1.0     0.0000000000        2.3112732334       -3.9795650753

          INTERNUCLEAR DISTANCES (ANGS.)
          ------------------------------

                1 C          2 C          3 C          4 C          5 H     

   1 C       0.0000000    1.2497733 *  1.3978324 *  2.3604863 *  2.2003745 *
   2 C       1.2497733 *  0.0000000    2.3604863 *  1.3978324 *  3.3369106  
   3 C       1.3978324 *  2.3604863 *  0.0000000    2.8948934 *  1.0703721 *
   4 C       2.3604863 *  1.3978324 *  2.8948934 *  0.0000000    3.9652419  
   5 H       2.2003745 *  3.3369106    1.0703721 *  3.9652419    0.0000000  
   6 H       3.3369106    2.2003745 *  3.9652419    1.0703721 *  5.0355729  
   7 C       2.3090281 *  2.6655397 *  1.3894353 *  2.4573420 *  2.1622873 *
   8 C       2.6655397 *  2.3090281 *  2.4573420 *  1.3894353 *  3.4381997  
   9 H       3.3050853    3.7390797    2.1321500 *  3.4098969    2.4914619 *
  10 H       3.7390797    3.3050853    3.4098969    2.1321500 *  4.3040831  

                6 H          7 C          8 C          9 H         10 H     

   1 C       3.3369106    2.3090281 *  2.6655397 *  3.3050853    3.7390797  
   2 C       2.2003745 *  2.6655397 *  2.3090281 *  3.7390797    3.3050853  
   3 C       3.9652419    1.3894353 *  2.4573420 *  2.1321500 *  3.4098969  
   4 C       1.0703721 *  2.4573420 *  1.3894353 *  3.4098969    2.1321500 *
   5 H       5.0355729    2.1622873 *  3.4381997    2.4914619 *  4.3040831  
   6 H       0.0000000    3.4381997    2.1622873 *  4.3040831    2.4914619 *
   7 C       3.4381997    0.0000000    1.4190503 *  1.0737917 *  2.1504030 *
   8 C       2.1622873 *  1.4190503 *  0.0000000    2.1504030 *  1.0737917 *
   9 H       4.3040831    1.0737917 *  2.1504030 *  0.0000000    2.4461464 *
  10 H       2.4914619 *  2.1504030 *  1.0737917 *  2.4461464 *  0.0000000  

  * ... LESS THAN  3.000


     ATOMIC BASIS SET
     ----------------
 THE CONTRACTED PRIMITIVE FUNCTIONS HAVE BEEN UNNORMALIZED
 THE CONTRACTED BASIS FUNCTIONS ARE NOW NORMALIZED TO UNITY

  SHELL TYPE  PRIMITIVE        EXPONENT          CONTRACTION COEFFICIENT(S)

 C         

     11   S       1          8236.0000000    0.000542430189
     11   S       2          1235.0000000    0.004196427901
     11   S       3           280.8000000    0.021540914108
     11   S       4            79.2700000    0.083614949614
     11   S       5            25.5900000    0.239871618922
     11   S       6             8.9970000    0.443751820060
     11   S       7             3.3190000    0.353579696469
     11   S       8             0.3643000   -0.009176366076

     12   S       9          8236.0000000   -0.000196392234
     12   S      10          1235.0000000   -0.001525950274
     12   S      11           280.8000000   -0.007890449028
     12   S      12            79.2700000   -0.031514870532
     12   S      13            25.5900000   -0.096910008320
     12   S      14             8.9970000   -0.220541526288
     12   S      15             3.3190000   -0.296069112937
     12   S      16             0.3643000    1.040503432950

     13   S      17             0.9059000    1.000000000000

     14   S      18             0.1285000    1.000000000000

     15   P      19            18.7100000    0.039426387165
     15   P      20             4.1330000    0.244088984924
     15   P      21             1.2000000    0.815492008943

     16   P      22             0.3827000    1.000000000000

     17   P      23             0.1209000    1.000000000000

     18   D      24             1.0970000    1.000000000000

     19   D      25             0.3180000    1.000000000000

     20   F      26             0.7610000    1.000000000000

 C         

     31   S      27          8236.0000000    0.000542430189
     31   S      28          1235.0000000    0.004196427901
     31   S      29           280.8000000    0.021540914108
     31   S      30            79.2700000    0.083614949614
     31   S      31            25.5900000    0.239871618922
     31   S      32             8.9970000    0.443751820060
     31   S      33             3.3190000    0.353579696469
     31   S      34             0.3643000   -0.009176366076

     32   S      35          8236.0000000   -0.000196392234
     32   S      36          1235.0000000   -0.001525950274
     32   S      37           280.8000000   -0.007890449028
     32   S      38            79.2700000   -0.031514870532
     32   S      39            25.5900000   -0.096910008320
     32   S      40             8.9970000   -0.220541526288
     32   S      41             3.3190000   -0.296069112937
     32   S      42             0.3643000    1.040503432950

     33   S      43             0.9059000    1.000000000000

     34   S      44             0.1285000    1.000000000000

     35   P      45            18.7100000    0.039426387165
     35   P      46             4.1330000    0.244088984924
     35   P      47             1.2000000    0.815492008943

     36   P      48             0.3827000    1.000000000000

     37   P      49             0.1209000    1.000000000000

     38   D      50             1.0970000    1.000000000000

     39   D      51             0.3180000    1.000000000000

     40   F      52             0.7610000    1.000000000000

 H         

     47   S      53            33.8700000    0.025494863235
     47   S      54             5.0950000    0.190362765893
     47   S      55             1.1590000    0.852162022245

     48   S      56             0.3258000    1.000000000000

     49   S      57             0.1027000    1.000000000000

     50   P      58             1.4070000    1.000000000000

     51   P      59             0.3880000    1.000000000000

     52   D      60             1.0570000    1.000000000000

 C         

     63   S      61          8236.0000000    0.000542430189
     63   S      62          1235.0000000    0.004196427901
     63   S      63           280.8000000    0.021540914108
     63   S      64            79.2700000    0.083614949614
     63   S      65            25.5900000    0.239871618922
     63   S      66             8.9970000    0.443751820060
     63   S      67             3.3190000    0.353579696469
     63   S      68             0.3643000   -0.009176366076

     64   S      69          8236.0000000   -0.000196392234
     64   S      70          1235.0000000   -0.001525950274
     64   S      71           280.8000000   -0.007890449028
     64   S      72            79.2700000   -0.031514870532
     64   S      73            25.5900000   -0.096910008320
     64   S      74             8.9970000   -0.220541526288
     64   S      75             3.3190000   -0.296069112937
     64   S      76             0.3643000    1.040503432950

     65   S      77             0.9059000    1.000000000000

     66   S      78             0.1285000    1.000000000000

     67   P      79            18.7100000    0.039426387165
     67   P      80             4.1330000    0.244088984924
     67   P      81             1.2000000    0.815492008943

     68   P      82             0.3827000    1.000000000000

     69   P      83             0.1209000    1.000000000000

     70   D      84             1.0970000    1.000000000000

     71   D      85             0.3180000    1.000000000000

     72   F      86             0.7610000    1.000000000000

 H         

     79   S      87            33.8700000    0.025494863235
     79   S      88             5.0950000    0.190362765893
     79   S      89             1.1590000    0.852162022245

     80   S      90             0.3258000    1.000000000000

     81   S      91             0.1027000    1.000000000000

     82   P      92             1.4070000    1.000000000000

     83   P      93             0.3880000    1.000000000000

     84   D      94             1.0570000    1.000000000000

 TOTAL NUMBER OF BASIS SET SHELLS             =   84
 NUMBER OF CARTESIAN GAUSSIAN BASIS FUNCTIONS =  270
 NOTE: THIS RUN WILL RESTRICT THE MO VARIATION SPACE TO SPHERICAL HARMONICS.
 THE NUMBER OF ORBITALS KEPT IN THE VARIATIONAL SPACE WILL BE PRINTED LATER.
 NUMBER OF ELECTRONS                          =   40
 CHARGE OF MOLECULE                           =    0
 SPIN MULTIPLICITY                            =    1
 NUMBER OF OCCUPIED ORBITALS (ALPHA)          =   20
 NUMBER OF OCCUPIED ORBITALS (BETA )          =   20
 TOTAL NUMBER OF ATOMS                        =   10
 THE NUCLEAR REPULSION ENERGY IS      187.7935431231

     $CONTRL OPTIONS
     ---------------
 SCFTYP=RHF          RUNTYP=ENERGY       EXETYP=RUN     
 MPLEVL=       0     CITYP =CIS          CCTYP =NONE         VBTYP =NONE    
 DFTTYP=NONE         TDDFT =NONE    
 MULT  =       1     ICHARG=       0     NZVAR =       0     COORD =UNIQUE  
 PP    =NONE         RELWFN=NONE         LOCAL =NONE         NUMGRD=       F
 ISPHER=       1     NOSYM =       0     MAXIT =      30     UNITS =ANGS    
 PLTORB=       F     MOLPLT=       F     AIMPAC=       F     FRIEND=        
 NPRINT=       7     IREST =       0     GEOM  =INPUT   
 NORMF =       0     NORMP =       0     ITOL  =      20     ICUT  =       9
 INTTYP=BEST         GRDTYP=BEST         QMTTOL= 1.0E-06

     $SYSTEM OPTIONS
     ---------------
  REPLICATED MEMORY=    20000000 WORDS (ON EVERY NODE).
 DISTRIBUTED MEMDDI=           0 MILLION WORDS IN AGGREGATE,
 MEMDDI DISTRIBUTED OVER   1 PROCESSORS IS           0 WORDS/PROCESSOR.
 TOTAL MEMORY REQUESTED ON EACH PROCESSOR=    20000000 WORDS.
 TIMLIM=      525600.00 MINUTES, OR     365.0 DAYS.
 PARALL= F  BALTYP=  DLB     KDIAG=    0  COREFL= F
 MXSEQ2=     300 MXSEQ3=     150  mem10=         0

          ----------------
          PROPERTIES INPUT
          ----------------

     MOMENTS            FIELD           POTENTIAL          DENSITY
 IEMOM =       1   IEFLD =       0   IEPOT =       0   IEDEN =       0
 WHERE =COMASS     WHERE =NUCLEI     WHERE =NUCLEI     WHERE =NUCLEI  
 OUTPUT=BOTH       OUTPUT=BOTH       OUTPUT=BOTH       OUTPUT=BOTH    
 IEMINT=       0   IEFINT=       0                     IEDINT=       0
                                                       MORB  =       0
          EXTRAPOLATION IN EFFECT
          SOSCF IN EFFECT
 ORBITAL PRINTING OPTION: NPREO=     1   270     2     1

     -------------------------------
     INTEGRAL TRANSFORMATION OPTIONS
     -------------------------------
     NWORD  =            0
     CUTOFF = 1.0E-09     MPTRAN =       0
     DIRTRF =       F     AOINTS =DUP     

          ----------------------
          INTEGRAL INPUT OPTIONS
          ----------------------
 NOPK  =       1 NORDER=       0 SCHWRZ=       T

     ------------------------------
     CI-SINGLES CONTROL INFORMATION
     ------------------------------
     NACORE =        6  NBCORE   =        6
     NSTATE =        5  IROOT    =        1
     HAMTYP = DETS      SAP MULT =        1
     DIAGZN = DAVID     MXVEC    =       40
     NDAVIT =       50  DAVCVG   = 1.00E-05
     CISPRP =        F  NGSVEC   =       10
     MNMEDG =        F  MNMEOP   =        F
     CHFSLV = CONJG     RDCISV   =        F
     DGAPRX =        T

     NUMBER OF CORE -A-  ORBITALS =     6
     NUMBER OF CORE -B-  ORBITALS =     6
     NUMBER OF OCC. -A-  ORBITALS =    20
     NUMBER OF OCC. -B-  ORBITALS =    20
     NUMBER OF MOLECULAR ORBITALS =   270
     NUMBER OF   BASIS  FUNCTIONS =   270


     ------------------------------------------
     THE POINT GROUP IS CNV, NAXIS= 2, ORDER= 4
     ------------------------------------------

 -- VARIATIONAL SPACE WILL BE RESTRICTED TO PURE SPHERICAL HARMONICS ONLY --
 AFTER EXCLUDING CONTAMINANT COMBINATIONS FROM THE CARTESIAN GAUSSIAN BASIS
 SET, THE NUMBER OF SPHERICAL HARMONICS KEPT IN THE VARIATION SPACE IS  236

     DIMENSIONS OF THE SYMMETRY SUBSPACES ARE
 A1  =   80     A2  =   38     B1  =   38     B2  =   80

 ..... DONE SETTING UP THE RUN .....
 STEP CPU TIME =     0.04 TOTAL CPU TIME =        0.0 (    0.0 MIN)
 TOTAL WALL CLOCK TIME=        0.1 SECONDS, CPU UTILIZATION IS  45.45%

          ********************
          1 ELECTRON INTEGRALS
          ********************
 ...... END OF ONE-ELECTRON INTEGRALS ......
 STEP CPU TIME =     0.03 TOTAL CPU TIME =        0.1 (    0.0 MIN)
 TOTAL WALL CLOCK TIME=        0.1 SECONDS, CPU UTILIZATION IS  57.14%

          -------------
          GUESS OPTIONS
          -------------
          GUESS =HUCKEL            NORB  =       0          NORDER=       0
          MIX   =       F          PRTMO =       F          PUNMO =       F
          TOLZ  = 1.0E-08          TOLE  = 1.0E-05
          SYMDEN=       F          PURIFY=       F

 INITIAL GUESS ORBITALS GENERATED BY HUCKEL   ROUTINE.
 HUCKEL GUESS REQUIRES    533466 WORDS.

 STATISTICS FOR GENERATION OF SYMMETRY ORBITAL -Q- MATRIX
 NUMBER OF CARTESIAN ATOMIC ORBITALS=        270
 NUMBER OF SPHERICAL CONTAMINANTS DROPPED=    34
 NUMBER OF LINEARLY DEPENDENT MOS DROPPED=     0
 TOTAL NUMBER OF MOS IN VARIATION SPACE=     236

 SYMMETRIES FOR INITIAL GUESS ORBITALS FOLLOW.   BOTH SET(S).
    20 ORBITALS ARE OCCUPIED (    6 CORE ORBITALS).
     7=A1       8=B2       9=A1      10=A1      11=B2      12=A1      13=B1  
    14=B2      15=A1      16=B2      17=A1      18=B1      19=A2      20=A1  
    21=B2      22=B1      23=A2      24=A2      25=B2      26=A1      27=A1  
    28=A1      29=A1      30=A1  
 ...... END OF INITIAL ORBITAL SELECTION ......
 STEP CPU TIME =     0.22 TOTAL CPU TIME =        0.3 (    0.0 MIN)
 TOTAL WALL CLOCK TIME=        0.4 SECONDS, CPU UTILIZATION IS  85.71%

                    ----------------------
                    AO INTEGRAL TECHNOLOGY
                    ----------------------
     S,P,L SHELL ROTATED AXIS INTEGRALS, REPROGRAMMED BY
        KAZUYA ISHIMURA (IMS) AND JOSE SIERRA (SYNSTAR).
     S,P,D,L SHELL ROTATED AXIS INTEGRALS PROGRAMMED BY
        KAZUYA ISHIMURA (INSTITUTE FOR MOLECULAR SCIENCE).
     S,P,D,F,G SHELL TO TOTAL QUARTET ANGULAR MOMENTUM SUM 5,
        ERIC PROGRAM BY GRAHAM FLETCHER (ELORET AND NASA ADVANCED
        SUPERCOMPUTING DIVISION, AMES RESEARCH CENTER).
     S,P,D,F,G,L SHELL GENERAL RYS QUADRATURE PROGRAMMED BY
        MICHEL DUPUIS (PACIFIC NORTHWEST NATIONAL LABORATORY).

          --------------------
          2 ELECTRON INTEGRALS
          --------------------

 THE -PK- OPTION IS OFF, THE INTEGRALS ARE NOT IN SUPERMATRIX FORM.
 STORING   15000 INTEGRALS/RECORD ON DISK, USING 16 BYTES/INTEGRAL.
 TWO ELECTRON INTEGRAL EVALUATION REQUIRES  102670 WORDS OF MEMORY.
 SCHWARZ INEQUALITY OVERHEAD:     36381 INTEGRALS, T=        0.02
 II,JST,KST,LST =  1  1  1  1 NREC =         1 INTLOC =    1
 II,JST,KST,LST =  2  1  1  1 NREC =         1 INTLOC =    1
 II,JST,KST,LST =  3  1  1  1 NREC =         1 INTLOC =    1
 II,JST,KST,LST =  4  1  1  1 NREC =         1 INTLOC =    1
 II,JST,KST,LST =  5  1  1  1 NREC =         1 INTLOC =    1
 II,JST,KST,LST =  6  1  1  1 NREC =         1 INTLOC =    1
 II,JST,KST,LST =  7  1  1  1 NREC =         1 INTLOC =    1
 II,JST,KST,LST =  8  1  1  1 NREC =         1 INTLOC =    1
 II,JST,KST,LST =  9  1  1  1 NREC =         1 INTLOC =    1
 II,JST,KST,LST = 10  1  1  1 NREC =         1 INTLOC =    1
 II,JST,KST,LST = 11  1  1  1 NREC =         1 INTLOC =    1
 II,JST,KST,LST = 12  1  1  1 NREC =         1 INTLOC =    5
 II,JST,KST,LST = 13  1  1  1 NREC =         1 INTLOC =   32
 II,JST,KST,LST = 14  1  1  1 NREC =         1 INTLOC =  124
 II,JST,KST,LST = 15  1  1  1 NREC =         1 INTLOC =  347
 II,JST,KST,LST = 16  1  1  1 NREC =         1 INTLOC = 1146
 II,JST,KST,LST = 17  1  1  1 NREC =         1 INTLOC = 3562
 II,JST,KST,LST = 18  1  1  1 NREC =         1 INTLOC = 8993
 II,JST,KST,LST = 19  1  1  1 NREC =         3 INTLOC = 7100
 II,JST,KST,LST = 20  1  1  1 NREC =         8 INTLOC = 1295
 II,JST,KST,LST = 21  1  1  1 NREC =        26 INTLOC =10645
 II,JST,KST,LST = 22  1  1  1 NREC =        26 INTLOC =10645
 II,JST,KST,LST = 23  1  1  1 NREC =        26 INTLOC =10645
 II,JST,KST,LST = 24  1  1  1 NREC =        26 INTLOC =10645
 II,JST,KST,LST = 25  1  1  1 NREC =        26 INTLOC =10645
 II,JST,KST,LST = 26  1  1  1 NREC =        26 INTLOC =10645
 II,JST,KST,LST = 27  1  1  1 NREC =        26 INTLOC =10645
 II,JST,KST,LST = 28  1  1  1 NREC =        26 INTLOC =10645
 II,JST,KST,LST = 29  1  1  1 NREC =        26 INTLOC =10645
 II,JST,KST,LST = 30  1  1  1 NREC =        26 INTLOC =10645
 II,JST,KST,LST = 31  1  1  1 NREC =        26 INTLOC =10645
 II,JST,KST,LST = 32  1  1  1 NREC =        33 INTLOC = 2576
 II,JST,KST,LST = 33  1  1  1 NREC =        40 INTLOC = 3793
 II,JST,KST,LST = 34  1  1  1 NREC =        47 INTLOC =14562
 II,JST,KST,LST = 35  1  1  1 NREC =        56 INTLOC = 5929
 II,JST,KST,LST = 36  1  1  1 NREC =        83 INTLOC =11969
 II,JST,KST,LST = 37  1  1  1 NREC =       118 INTLOC = 1773
 II,JST,KST,LST = 38  1  1  1 NREC =       159 INTLOC =12264
 II,JST,KST,LST = 39  1  1  1 NREC =       265 INTLOC =14757
 II,JST,KST,LST = 40  1  1  1 NREC =       414 INTLOC =14493
 II,JST,KST,LST = 41  1  1  1 NREC =       767 INTLOC =14243
 II,JST,KST,LST = 42  1  1  1 NREC =       767 INTLOC =14243
 II,JST,KST,LST = 43  1  1  1 NREC =       767 INTLOC =14243
 II,JST,KST,LST = 44  1  1  1 NREC =       767 INTLOC =14243
 II,JST,KST,LST = 45  1  1  1 NREC =       767 INTLOC =14243
 II,JST,KST,LST = 46  1  1  1 NREC =       767 INTLOC =14243
 II,JST,KST,LST = 47  1  1  1 NREC =       767 INTLOC =14243
 II,JST,KST,LST = 48  1  1  1 NREC =       802 INTLOC =  805
 II,JST,KST,LST = 49  1  1  1 NREC =       850 INTLOC =11259
 II,JST,KST,LST = 50  1  1  1 NREC =       904 INTLOC = 1700
 II,JST,KST,LST = 51  1  1  1 NREC =      1014 INTLOC = 6966
 II,JST,KST,LST = 52  1  1  1 NREC =      1179 INTLOC = 7398
 II,JST,KST,LST = 53  1  1  1 NREC =      1475 INTLOC =10011
 II,JST,KST,LST = 54  1  1  1 NREC =      1475 INTLOC =10011
 II,JST,KST,LST = 55  1  1  1 NREC =      1475 INTLOC =10011
 II,JST,KST,LST = 56  1  1  1 NREC =      1475 INTLOC =10011
 II,JST,KST,LST = 57  1  1  1 NREC =      1475 INTLOC =10011
 II,JST,KST,LST = 58  1  1  1 NREC =      1475 INTLOC =10011
 II,JST,KST,LST = 59  1  1  1 NREC =      1475 INTLOC =10011
 II,JST,KST,LST = 60  1  1  1 NREC =      1475 INTLOC =10011
 II,JST,KST,LST = 61  1  1  1 NREC =      1475 INTLOC =10011
 II,JST,KST,LST = 62  1  1  1 NREC =      1475 INTLOC =10011
 II,JST,KST,LST = 63  1  1  1 NREC =      1475 INTLOC =10011
 II,JST,KST,LST = 64  1  1  1 NREC =      1550 INTLOC =11146
 II,JST,KST,LST = 65  1  1  1 NREC =      1635 INTLOC =11509
 II,JST,KST,LST = 66  1  1  1 NREC =      1717 INTLOC = 3913
 II,JST,KST,LST = 67  1  1  1 NREC =      1810 INTLOC =14586
 II,JST,KST,LST = 68  1  1  1 NREC =      2064 INTLOC = 3130
 II,JST,KST,LST = 69  1  1  1 NREC =      2374 INTLOC =13028
 II,JST,KST,LST = 70  1  1  1 NREC =      2723 INTLOC = 2775
 II,JST,KST,LST = 71  1  1  1 NREC =      3457 INTLOC = 6731
 II,JST,KST,LST = 72  1  1  1 NREC =      4401 INTLOC =14059
 II,JST,KST,LST = 73  1  1  1 NREC =      6276 INTLOC =11140
 II,JST,KST,LST = 74  1  1  1 NREC =      6276 INTLOC =11140
 II,JST,KST,LST = 75  1  1  1 NREC =      6276 INTLOC =11140
 II,JST,KST,LST = 76  1  1  1 NREC =      6276 INTLOC =11140
 II,JST,KST,LST = 77  1  1  1 NREC =      6276 INTLOC =11140
 II,JST,KST,LST = 78  1  1  1 NREC =      6276 INTLOC =11140
 II,JST,KST,LST = 79  1  1  1 NREC =      6276 INTLOC =11140
 II,JST,KST,LST = 80  1  1  1 NREC =      6437 INTLOC = 5213
 II,JST,KST,LST = 81  1  1  1 NREC =      6666 INTLOC =14806
 II,JST,KST,LST = 82  1  1  1 NREC =      6915 INTLOC =13891
 II,JST,KST,LST = 83  1  1  1 NREC =      7412 INTLOC = 4994
 II,JST,KST,LST = 84  1  1  1 NREC =      8155 INTLOC = 4486
 SCHWARZ INEQUALITY TEST SKIPPED      284986 INTEGRAL BLOCKS.
 TOTAL NUMBER OF NONZERO TWO-ELECTRON INTEGRALS =           141846236
       9457 INTEGRAL RECORDS WERE STORED ON DISK FILE  8.
  ...... END OF TWO-ELECTRON INTEGRALS .....
 STEP CPU TIME =    14.17 TOTAL CPU TIME =       14.5 (    0.2 MIN)
 TOTAL WALL CLOCK TIME=       14.7 SECONDS, CPU UTILIZATION IS  98.57%

          --------------------------
                 RHF SCF CALCULATION
          --------------------------

     NUCLEAR ENERGY =       187.7935431231
     MAXIT =   30     NPUNCH=    2
     EXTRAP=T  DAMP=F  SHIFT=F  RSTRCT=F  DIIS=F  DEM=F  SOSCF=T
     DENSITY MATRIX CONV=  1.00E-06
     SOSCF WILL OPTIMIZE    4320 ORBITAL ROTATIONS, SOGTOL=   0.250
     MEMORY REQUIRED FOR RHF ITERS=    561360 WORDS.

 ITER EX DEM     TOTAL ENERGY        E CHANGE  DENSITY CHANGE     ORB. GRAD
   1  0  0     -228.8213314877  -228.8213314877   0.657619781   0.000000000
          ---------------START SECOND ORDER SCF---------------
   2  1  0     -229.4123902165    -0.5910587288   0.041310743   0.053952672
   3  2  0     -229.4490454522    -0.0366552357   0.015243883   0.021015106
   4  3  0     -229.4605676997    -0.0115222476   0.007695208   0.003619492
   5  4  0     -229.4610872679    -0.0005195682   0.003112420   0.001810213
   6  5  0     -229.4611703998    -0.0000831319   0.000502397   0.000490345
   7  6  0     -229.4611747913    -0.0000043915   0.000234863   0.000193864
   8  7  0     -229.4611754645    -0.0000006732   0.000075587   0.000060684
   9  8  0     -229.4611755771    -0.0000001126   0.000062948   0.000036242
  10  9  0     -229.4611756043    -0.0000000272   0.000017463   0.000011597
  11 10  0     -229.4611756079    -0.0000000036   0.000008407   0.000003592
  12 11  0     -229.4611756083    -0.0000000004   0.000003066   0.000000814
  13 12  0     -229.4611756084    -0.0000000000   0.000000610   0.000000231
  14 13  0     -229.4611756084    -0.0000000000   0.000000164   0.000000045

          -----------------
          DENSITY CONVERGED
          -----------------
     TIME TO FORM FOCK OPERATORS=      24.1 SECONDS (       1.7 SEC/ITER)
     TIME TO SOLVE SCF EQUATIONS=       0.4 SECONDS (       0.0 SEC/ITER)

 FINAL RHF ENERGY IS     -229.4611756084 AFTER  14 ITERATIONS

          ------------
          EIGENVECTORS
          ------------

                      1          2          3          4          5
                  -11.2723   -11.2723   -11.2515   -11.2504   -11.2504
                     B2         A1         A1         A1         B2  
    1  C  1  S    0.015300   0.017326  -0.020991   0.690865  -0.000793
    2  C  1  S    0.000101   0.000316  -0.000423   0.000752   0.000100
    3  C  1  S    0.000810   0.001074  -0.000950   0.029388  -0.000065
    4  C  1  S   -0.006626  -0.001422  -0.000359   0.006410   0.004540
    5  C  1  X   -0.000000  -0.000000  -0.000000   0.000000  -0.000000
    6  C  1  Y   -0.000238  -0.000127  -0.000001  -0.000178   0.000015
    7  C  1  Z   -0.000045  -0.000104   0.000008   0.000581   0.000003
    8  C  1  X   -0.000000  -0.000000  -0.000000   0.000000  -0.000000
    9  C  1  Y    0.000458   0.000387   0.000054   0.000521  -0.000087
   10  C  1  Z   -0.000597  -0.000063   0.000309  -0.001532   0.000057
   11  C  1  X   -0.000000  -0.000000  -0.000000   0.000000  -0.000000
   12  C  1  Y    0.000160   0.000448   0.000304  -0.000962   0.000973
   13  C  1  Z    0.001817   0.000301   0.000028  -0.001675  -0.000842
   14  C  1 XX    0.000008   0.000064   0.000038  -0.000328   0.000017
   15  C  1 YY    0.000001   0.000011   0.000001   0.000404   0.000018
   16  C  1 ZZ   -0.000009  -0.000076  -0.000039  -0.000076  -0.000034
   17  C  1 XY   -0.000000  -0.000000  -0.000000   0.000000  -0.000000
   18  C  1 XZ   -0.000000  -0.000000  -0.000000   0.000000  -0.000000
   19  C  1 YZ   -0.000070  -0.000065   0.000028   0.000200   0.000010
   20  C  1 XX    0.000348   0.000168  -0.000055  -0.000272  -0.000256
   21  C  1 YY   -0.000653  -0.000480   0.000081  -0.000511   0.000451
   22  C  1 ZZ    0.000305   0.000312  -0.000026   0.000784  -0.000196
   23  C  1 XY   -0.000000  -0.000000  -0.000000   0.000000  -0.000000
   24  C  1 XZ   -0.000000  -0.000000  -0.000000   0.000000  -0.000000
   25  C  1 YZ   -0.001220  -0.000442  -0.000083   0.000198   0.000227
   26  C  1 XXX  -0.000000  -0.000000  -0.000000   0.000000  -0.000000
   27  C  1 YYY  -0.000182  -0.000147   0.000008   0.000305  -0.000000
   28  C  1 ZZZ  -0.000007  -0.000061  -0.000022  -0.000086   0.000060
   29  C  1 XXY  -0.000143  -0.000064  -0.000005  -0.000061   0.000003
   30  C  1 XXZ  -0.000123  -0.000080   0.000042   0.000142   0.000039
   31  C  1 YYX  -0.000000  -0.000000  -0.000000   0.000000  -0.000000
   32  C  1 YYZ   0.000133   0.000162  -0.000012  -0.000026  -0.000120
   33  C  1 ZZX  -0.000000  -0.000000  -0.000000   0.000000  -0.000000
   34  C  1 ZZY   0.000387   0.000261  -0.000006  -0.000349  -0.000002
   35  C  1 XYZ  -0.000000  -0.000000  -0.000000   0.000000  -0.000000
   36  C  2  S   -0.015300   0.017326  -0.020991   0.690865   0.000793
   37  C  2  S   -0.000101   0.000316  -0.000423   0.000752  -0.000100
   38  C  2  S   -0.000810   0.001074  -0.000950   0.029388   0.000065
   39  C  2  S    0.006626  -0.001422  -0.000359   0.006410  -0.004540
   40  C  2  X   -0.000000  -0.000000  -0.000000   0.000000  -0.000000
   41  C  2  Y   -0.000238   0.000127   0.000001   0.000178   0.000015
   42  C  2  Z    0.000045  -0.000104   0.000008   0.000581  -0.000003
   43  C  2  X   -0.000000  -0.000000  -0.000000   0.000000  -0.000000
   44  C  2  Y    0.000458  -0.000387  -0.000054  -0.000521  -0.000087
   45  C  2  Z    0.000597  -0.000063   0.000309  -0.001532  -0.000057
   46  C  2  X   -0.000000  -0.000000  -0.000000   0.000000  -0.000000
   47  C  2  Y    0.000160  -0.000448  -0.000304   0.000962   0.000973
   48  C  2  Z   -0.001817   0.000301   0.000028  -0.001675   0.000842
   49  C  2 XX   -0.000008   0.000064   0.000038  -0.000328  -0.000017
   50  C  2 YY   -0.000001   0.000011   0.000001   0.000404  -0.000018
   51  C  2 ZZ    0.000009  -0.000076  -0.000039  -0.000076   0.000034
   52  C  2 XY   -0.000000  -0.000000  -0.000000   0.000000  -0.000000
   53  C  2 XZ   -0.000000  -0.000000  -0.000000   0.000000  -0.000000
   54  C  2 YZ   -0.000070   0.000065  -0.000028  -0.000200   0.000010
   55  C  2 XX   -0.000348   0.000168  -0.000055  -0.000272   0.000256
   56  C  2 YY    0.000653  -0.000480   0.000081  -0.000511  -0.000451
   57  C  2 ZZ   -0.000305   0.000312  -0.000026   0.000784   0.000196
   58  C  2 XY   -0.000000  -0.000000  -0.000000   0.000000  -0.000000
   59  C  2 XZ   -0.000000  -0.000000  -0.000000   0.000000  -0.000000
   60  C  2 YZ   -0.001220   0.000442   0.000083  -0.000198   0.000227
   61  C  2 XXX  -0.000000  -0.000000  -0.000000   0.000000  -0.000000
   62  C  2 YYY  -0.000182   0.000147  -0.000008  -0.000305  -0.000000
   63  C  2 ZZZ   0.000007  -0.000061  -0.000022  -0.000086  -0.000060
   64  C  2 XXY  -0.000143   0.000064   0.000005   0.000061   0.000003
   65  C  2 XXZ   0.000123  -0.000080   0.000042   0.000142  -0.000039
   66  C  2 YYX  -0.000000  -0.000000  -0.000000   0.000000  -0.000000
   67  C  2 YYZ  -0.000133   0.000162  -0.000012  -0.000026   0.000120
   68  C  2 ZZX  -0.000000  -0.000000  -0.000000   0.000000  -0.000000
   69  C  2 ZZY   0.000387  -0.000261   0.000006   0.000349  -0.000002
   70  C  2 XYZ  -0.000000  -0.000000  -0.000000   0.000000  -0.000000
   71  C  3  S    0.691665   0.691302  -0.020050  -0.018103  -0.020199
   72  C  3  S    0.001556   0.000940  -0.000045  -0.000110  -0.000335
   73  C  3  S    0.029340   0.029206  -0.000703  -0.000536  -0.000684
   74  C  3  S    0.008558   0.003579  -0.000713  -0.004721  -0.004293
   75  C  3  X   -0.000000  -0.000000  -0.000000   0.000000  -0.000000
   76  C  3  Y    0.000091   0.000091   0.000144   0.000101   0.000057
   77  C  3  Z    0.000489   0.000455  -0.000228   0.000168  -0.000195
   78  C  3  X   -0.000000  -0.000000  -0.000000   0.000000  -0.000000
   79  C  3  Y    0.001747   0.000974  -0.000908  -0.000277   0.000054
   80  C  3  Z   -0.001681  -0.000985   0.000688  -0.000807   0.000603
   81  C  3  X   -0.000000  -0.000000  -0.000000   0.000000  -0.000000
   82  C  3  Y    0.003468   0.000668  -0.000980  -0.002286  -0.001705
   83  C  3  Z    0.000221   0.000120   0.000782  -0.001574   0.000641
   84  C  3 XX   -0.000543  -0.000522   0.000126   0.000067   0.000142
   85  C  3 YY    0.000360   0.000399  -0.000028   0.000050  -0.000070
   86  C  3 ZZ    0.000183   0.000123  -0.000098  -0.000117  -0.000073
   87  C  3 XY   -0.000000  -0.000000  -0.000000   0.000000  -0.000000
   88  C  3 XZ   -0.000000  -0.000000  -0.000000   0.000000  -0.000000
   89  C  3 YZ   -0.000012   0.000005   0.000058  -0.000106   0.000102
   90  C  3 XX    0.000051   0.000120  -0.000092   0.000390   0.000169
   91  C  3 YY   -0.002137  -0.001497   0.000283  -0.001320   0.000987
   92  C  3 ZZ    0.002086   0.001378  -0.000191   0.000930  -0.001156
   93  C  3 XY   -0.000000  -0.000000  -0.000000   0.000000  -0.000000
   94  C  3 XZ   -0.000000  -0.000000  -0.000000   0.000000  -0.000000
   95  C  3 YZ   -0.000641  -0.000524   0.000962  -0.000837   0.000338
   96  C  3 XXX  -0.000000  -0.000000  -0.000000   0.000000  -0.000000
   97  C  3 YYY  -0.000475  -0.000479   0.000104   0.000085   0.000282
   98  C  3 ZZZ  -0.000081  -0.000059   0.000027   0.000016   0.000050
   99  C  3 XXY   0.000017   0.000044   0.000098   0.000099   0.000046
  100  C  3 XXZ   0.000040   0.000050  -0.000130   0.000101  -0.000092
  101  C  3 YYX  -0.000000  -0.000000  -0.000000   0.000000  -0.000000
  102  C  3 YYZ   0.000069   0.000029   0.000094  -0.000122   0.000025
  103  C  3 ZZX  -0.000000  -0.000000  -0.000000   0.000000  -0.000000
  104  C  3 ZZY   0.000621   0.000599  -0.000237  -0.000213  -0.000424
  105  C  3 XYZ  -0.000000  -0.000000  -0.000000   0.000000  -0.000000
  106  C  4  S   -0.691665   0.691302  -0.020050  -0.018103   0.020199
  107  C  4  S   -0.001556   0.000940  -0.000045  -0.000110   0.000335
  108  C  4  S   -0.029340   0.029206  -0.000703  -0.000536   0.000684
  109  C  4  S   -0.008558   0.003579  -0.000713  -0.004721   0.004293
  110  C  4  X   -0.000000  -0.000000  -0.000000   0.000000  -0.000000
  111  C  4  Y    0.000091  -0.000091  -0.000144  -0.000101   0.000057
  112  C  4  Z   -0.000489   0.000455  -0.000228   0.000168   0.000195
  113  C  4  X   -0.000000  -0.000000  -0.000000   0.000000  -0.000000
  114  C  4  Y    0.001747  -0.000974   0.000908   0.000277   0.000054
  115  C  4  Z    0.001681  -0.000985   0.000688  -0.000807  -0.000603
  116  C  4  X   -0.000000  -0.000000  -0.000000   0.000000  -0.000000
  117  C  4  Y    0.003468  -0.000668   0.000980   0.002286  -0.001705
  118  C  4  Z   -0.000221   0.000120   0.000782  -0.001574  -0.000641
  119  C  4 XX    0.000543  -0.000522   0.000126   0.000067  -0.000142
  120  C  4 YY   -0.000360   0.000399  -0.000028   0.000050   0.000070
  121  C  4 ZZ   -0.000183   0.000123  -0.000098  -0.000117   0.000073
  122  C  4 XY   -0.000000  -0.000000  -0.000000   0.000000  -0.000000
  123  C  4 XZ   -0.000000  -0.000000  -0.000000   0.000000  -0.000000
  124  C  4 YZ   -0.000012  -0.000005  -0.000058   0.000106   0.000102
  125  C  4 XX   -0.000051   0.000120  -0.000092   0.000390  -0.000169
  126  C  4 YY    0.002137  -0.001497   0.000283  -0.001320  -0.000987
  127  C  4 ZZ   -0.002086   0.001378  -0.000191   0.000930   0.001156
  128  C  4 XY   -0.000000  -0.000000  -0.000000   0.000000  -0.000000
  129  C  4 XZ   -0.000000  -0.000000  -0.000000   0.000000  -0.000000
  130  C  4 YZ   -0.000641   0.000524  -0.000962   0.000837   0.000338
  131  C  4 XXX  -0.000000  -0.000000  -0.000000   0.000000  -0.000000
  132  C  4 YYY  -0.000475   0.000479  -0.000104  -0.000085   0.000282
  133  C  4 ZZZ   0.000081  -0.000059   0.000027   0.000016  -0.000050
  134  C  4 XXY   0.000017  -0.000044  -0.000098  -0.000099   0.000046
  135  C  4 XXZ  -0.000040   0.000050  -0.000130   0.000101   0.000092
  136  C  4 YYX  -0.000000  -0.000000  -0.000000   0.000000  -0.000000
  137  C  4 YYZ  -0.000069   0.000029   0.000094  -0.000122  -0.000025
  138  C  4 ZZX  -0.000000  -0.000000  -0.000000   0.000000  -0.000000
  139  C  4 ZZY   0.000621  -0.000599   0.000237   0.000213  -0.000424
  140  C  4 XYZ  -0.000000  -0.000000  -0.000000   0.000000  -0.000000
  141  H  5  S    0.000087   0.000092   0.000034   0.000111   0.000036
  142  H  5  S    0.002731   0.001743  -0.000987   0.000899  -0.000537
  143  H  5  S    0.000575  -0.000211  -0.000497  -0.000815  -0.000279
  144  H  5  X   -0.000000  -0.000000  -0.000000   0.000000  -0.000000
  145  H  5  Y   -0.000222  -0.000250  -0.000001   0.000027   0.000080
  146  H  5  Z    0.000010   0.000011   0.000002  -0.000001   0.000001
  147  H  5  X   -0.000000  -0.000000  -0.000000   0.000000  -0.000000
  148  H  5  Y    0.000869   0.000557  -0.000401   0.000220  -0.000076
  149  H  5  Z   -0.000143  -0.000135   0.000269  -0.000193   0.000094
  150  H  5 XX    0.000071   0.000077   0.000030   0.000063  -0.000022
  151  H  5 YY   -0.000140  -0.000171  -0.000018  -0.000011   0.000063
  152  H  5 ZZ    0.000069   0.000094  -0.000012  -0.000052  -0.000041
  153  H  5 XY   -0.000000  -0.000000  -0.000000   0.000000  -0.000000
  154  H  5 XZ   -0.000000  -0.000000  -0.000000   0.000000  -0.000000
  155  H  5 YZ   -0.000008  -0.000009   0.000041  -0.000044   0.000033
  156  H  6  S   -0.000087   0.000092   0.000034   0.000111  -0.000036
  157  H  6  S   -0.002731   0.001743  -0.000987   0.000899   0.000537
  158  H  6  S   -0.000575  -0.000211  -0.000497  -0.000815   0.000279
  159  H  6  X   -0.000000  -0.000000  -0.000000   0.000000  -0.000000
  160  H  6  Y   -0.000222   0.000250   0.000001  -0.000027   0.000080
  161  H  6  Z   -0.000010   0.000011   0.000002  -0.000001  -0.000001
  162  H  6  X   -0.000000  -0.000000  -0.000000   0.000000  -0.000000
  163  H  6  Y    0.000869  -0.000557   0.000401  -0.000220  -0.000076
  164  H  6  Z    0.000143  -0.000135   0.000269  -0.000193  -0.000094
  165  H  6 XX   -0.000071   0.000077   0.000030   0.000063   0.000022
  166  H  6 YY    0.000140  -0.000171  -0.000018  -0.000011  -0.000063
  167  H  6 ZZ   -0.000069   0.000094  -0.000012  -0.000052   0.000041
  168  H  6 XY   -0.000000  -0.000000  -0.000000   0.000000  -0.000000
  169  H  6 XZ   -0.000000  -0.000000  -0.000000   0.000000  -0.000000
  170  H  6 YZ   -0.000008   0.000009  -0.000041   0.000044   0.000033
  171  C  7  S    0.019595   0.020154   0.691178   0.020264   0.691732
  172  C  7  S   -0.000353  -0.000252   0.001149  -0.000055   0.001145
  173  C  7  S    0.000979   0.001008   0.029449   0.000845   0.029133
  174  C  7  S   -0.006526  -0.000494   0.003028   0.000611   0.007389
  175  C  7  X   -0.000000  -0.000000  -0.000000   0.000000  -0.000000
  176  C  7  Y   -0.000215  -0.000107   0.000181  -0.000000  -0.000252
  177  C  7  Z    0.000162   0.000208  -0.000134   0.000013  -0.000095
  178  C  7  X   -0.000000  -0.000000  -0.000000   0.000000  -0.000000
  179  C  7  Y    0.001276   0.000570   0.000044   0.000285   0.000996
  180  C  7  Z   -0.000896  -0.001407   0.001280  -0.000644   0.001095
  181  C  7  X   -0.000000  -0.000000  -0.000000   0.000000  -0.000000
  182  C  7  Y   -0.001119  -0.000023  -0.000201   0.000365   0.001296
  183  C  7  Z   -0.002443  -0.000830   0.000740   0.000086   0.002141
  184  C  7 XX    0.000101   0.000122  -0.000436  -0.000003  -0.000636
  185  C  7 YY    0.000023  -0.000002   0.000172   0.000030   0.000333
  186  C  7 ZZ   -0.000124  -0.000120   0.000264  -0.000026   0.000303
  187  C  7 XY   -0.000000  -0.000000  -0.000000   0.000000  -0.000000
  188  C  7 XZ   -0.000000  -0.000000  -0.000000   0.000000  -0.000000
  189  C  7 YZ    0.000009   0.000102  -0.000067  -0.000026   0.000001
  190  C  7 XX    0.000199  -0.000075   0.000113  -0.000061   0.000026
  191  C  7 YY   -0.000290  -0.000307  -0.000566  -0.000376   0.001464
  192  C  7 ZZ    0.000091   0.000383   0.000453   0.000437  -0.001489
  193  C  7 XY   -0.000000  -0.000000  -0.000000   0.000000  -0.000000
  194  C  7 XZ   -0.000000  -0.000000  -0.000000   0.000000  -0.000000
  195  C  7 YZ    0.003219   0.001086  -0.000541   0.000543  -0.001489
  196  C  7 XXX  -0.000000  -0.000000  -0.000000   0.000000  -0.000000
  197  C  7 YYY  -0.000164  -0.000122   0.000127  -0.000005   0.000728
  198  C  7 ZZZ  -0.000001   0.000050  -0.000014   0.000051  -0.000034
  199  C  7 XXY  -0.000125  -0.000032   0.000138   0.000013  -0.000097
  200  C  7 XXZ   0.000108   0.000102  -0.000004  -0.000008   0.000003
  201  C  7 YYX  -0.000000  -0.000000  -0.000000   0.000000  -0.000000
  202  C  7 YYZ  -0.000107  -0.000169   0.000023  -0.000061   0.000042
  203  C  7 ZZX  -0.000000  -0.000000  -0.000000   0.000000  -0.000000
  204  C  7 ZZY   0.000345   0.000195  -0.000308  -0.000006  -0.000880
  205  C  7 XYZ  -0.000000  -0.000000  -0.000000   0.000000  -0.000000
  206  C  8  S   -0.019595   0.020154   0.691178   0.020264  -0.691732
  207  C  8  S    0.000353  -0.000252   0.001149  -0.000055  -0.001145
  208  C  8  S   -0.000979   0.001008   0.029449   0.000845  -0.029133
  209  C  8  S    0.006526  -0.000494   0.003028   0.000611  -0.007389
  210  C  8  X   -0.000000  -0.000000  -0.000000   0.000000  -0.000000
  211  C  8  Y   -0.000215   0.000107  -0.000181   0.000000  -0.000252
  212  C  8  Z   -0.000162   0.000208  -0.000134   0.000013   0.000095
  213  C  8  X   -0.000000  -0.000000  -0.000000   0.000000  -0.000000
  214  C  8  Y    0.001276  -0.000570  -0.000044  -0.000285   0.000996
  215  C  8  Z    0.000896  -0.001407   0.001280  -0.000644  -0.001095
  216  C  8  X   -0.000000  -0.000000  -0.000000   0.000000  -0.000000
  217  C  8  Y   -0.001119   0.000023   0.000201  -0.000365   0.001296
  218  C  8  Z    0.002443  -0.000830   0.000740   0.000086  -0.002141
  219  C  8 XX   -0.000101   0.000122  -0.000436  -0.000003   0.000636
  220  C  8 YY   -0.000023  -0.000002   0.000172   0.000030  -0.000333
  221  C  8 ZZ    0.000124  -0.000120   0.000264  -0.000026  -0.000303
  222  C  8 XY   -0.000000  -0.000000  -0.000000   0.000000  -0.000000
  223  C  8 XZ   -0.000000  -0.000000  -0.000000   0.000000  -0.000000
  224  C  8 YZ    0.000009  -0.000102   0.000067   0.000026   0.000001
  225  C  8 XX   -0.000199  -0.000075   0.000113  -0.000061  -0.000026
  226  C  8 YY    0.000290  -0.000307  -0.000566  -0.000376  -0.001464
  227  C  8 ZZ   -0.000091   0.000383   0.000453   0.000437   0.001489
  228  C  8 XY   -0.000000  -0.000000  -0.000000   0.000000  -0.000000
  229  C  8 XZ   -0.000000  -0.000000  -0.000000   0.000000  -0.000000
  230  C  8 YZ    0.003219  -0.001086   0.000541  -0.000543  -0.001489
  231  C  8 XXX  -0.000000  -0.000000  -0.000000   0.000000  -0.000000
  232  C  8 YYY  -0.000164   0.000122  -0.000127   0.000005   0.000728
  233  C  8 ZZZ   0.000001   0.000050  -0.000014   0.000051   0.000034
  234  C  8 XXY  -0.000125   0.000032  -0.000138  -0.000013  -0.000097
  235  C  8 XXZ  -0.000108   0.000102  -0.000004  -0.000008  -0.000003
  236  C  8 YYX  -0.000000  -0.000000  -0.000000   0.000000  -0.000000
  237  C  8 YYZ   0.000107  -0.000169   0.000023  -0.000061  -0.000042
  238  C  8 ZZX  -0.000000  -0.000000  -0.000000   0.000000  -0.000000
  239  C  8 ZZY   0.000345  -0.000195   0.000308   0.000006  -0.000880
  240  C  8 XYZ  -0.000000  -0.000000  -0.000000   0.000000  -0.000000
  241  H  9  S   -0.000022  -0.000015   0.000097  -0.000015   0.000041
  242  H  9  S   -0.001768  -0.001438   0.000885  -0.000790   0.002381
  243  H  9  S   -0.000457  -0.000377  -0.000163  -0.000115   0.000302
  244  H  9  X   -0.000000  -0.000000  -0.000000   0.000000  -0.000000
  245  H  9  Y    0.000038   0.000013  -0.000101  -0.000001  -0.000116
  246  H  9  Z    0.000028  -0.000025  -0.000150  -0.000004  -0.000246
  247  H  9  X   -0.000000  -0.000000  -0.000000   0.000000  -0.000000
  248  H  9  Y    0.000151  -0.000215  -0.000045  -0.000216   0.000572
  249  H  9  Z   -0.000624  -0.000464   0.000415  -0.000251   0.000585
  250  H  9 XX   -0.000053  -0.000009   0.000041  -0.000010   0.000057
  251  H  9 YY    0.000070   0.000043  -0.000008   0.000011   0.000099
  252  H  9 ZZ   -0.000017  -0.000035  -0.000034  -0.000001  -0.000155
  253  H  9 XY   -0.000000  -0.000000  -0.000000   0.000000  -0.000000
  254  H  9 XZ   -0.000000  -0.000000  -0.000000   0.000000  -0.000000
  255  H  9 YZ    0.000052   0.000004  -0.000131  -0.000022  -0.000121
  256  H 10  S    0.000022  -0.000015   0.000097  -0.000015  -0.000041
  257  H 10  S    0.001768  -0.001438   0.000885  -0.000790  -0.002381
  258  H 10  S    0.000457  -0.000377  -0.000163  -0.000115  -0.000302
  259  H 10  X   -0.000000  -0.000000  -0.000000   0.000000  -0.000000
  260  H 10  Y    0.000038  -0.000013   0.000101   0.000001  -0.000116
  261  H 10  Z   -0.000028  -0.000025  -0.000150  -0.000004   0.000246
  262  H 10  X   -0.000000  -0.000000  -0.000000   0.000000  -0.000000
  263  H 10  Y    0.000151   0.000215   0.000045   0.000216   0.000572
  264  H 10  Z    0.000624  -0.000464   0.000415  -0.000251  -0.000585
  265  H 10 XX    0.000053  -0.000009   0.000041  -0.000010  -0.000057
  266  H 10 YY   -0.000070   0.000043  -0.000008   0.000011  -0.000099
  267  H 10 ZZ    0.000017  -0.000035  -0.000034  -0.000001   0.000155
  268  H 10 XY   -0.000000  -0.000000  -0.000000   0.000000  -0.000000
  269  H 10 XZ   -0.000000  -0.000000  -0.000000   0.000000  -0.000000
  270  H 10 YZ    0.000052  -0.000004   0.000131   0.000022  -0.000121

                      6          7          8          9         10
                  -11.2475    -1.1727    -1.0311    -1.0157    -0.8470
                     B2         A1         B2         A1         A1  
    1  C  1  S    0.691950  -0.014891  -0.003976   0.013757   0.004993
    2  C  1  S    0.001210   0.216619   0.123212  -0.260831  -0.108278
    3  C  1  S    0.029394   0.043713   0.025954  -0.052707  -0.021678
    4  C  1  S    0.015390   0.042243   0.064065  -0.081154  -0.044471
    5  C  1  X   -0.000000   0.000000   0.000000   0.000000  -0.000000
    6  C  1  Y   -0.000643   0.032208  -0.041854  -0.068955  -0.114733
    7  C  1  Z    0.000734  -0.036183  -0.034748   0.007853  -0.034935
    8  C  1  X   -0.000000   0.000000   0.000000   0.000000  -0.000000
    9  C  1  Y    0.003880   0.024298  -0.035764  -0.058664  -0.118253
   10  C  1  Z   -0.002199  -0.046011  -0.033204   0.020066  -0.031342
   11  C  1  X   -0.000000   0.000000   0.000000   0.000000  -0.000000
   12  C  1  Y    0.005108   0.001001   0.017391  -0.006151  -0.022867
   13  C  1  Z   -0.001361  -0.000311   0.005520   0.000759  -0.005335
   14  C  1 XX   -0.000577  -0.008038  -0.003620   0.008264   0.003741
   15  C  1 YY    0.000831   0.007778   0.001010  -0.012764  -0.008806
   16  C  1 ZZ   -0.000254   0.000260   0.002610   0.004500   0.005065
   17  C  1 XY   -0.000000   0.000000   0.000000   0.000000  -0.000000
   18  C  1 XZ   -0.000000   0.000000   0.000000   0.000000  -0.000000
   19  C  1 YZ    0.000224   0.002619   0.006543  -0.003750   0.001917
   20  C  1 XX   -0.000409  -0.005167  -0.003678   0.006862   0.003830
   21  C  1 YY    0.000476   0.004736   0.006573  -0.007503  -0.004077
   22  C  1 ZZ   -0.000067   0.000431  -0.002894   0.000641   0.000248
   23  C  1 XY   -0.000000   0.000000   0.000000   0.000000  -0.000000
   24  C  1 XZ   -0.000000   0.000000   0.000000   0.000000  -0.000000
   25  C  1 YZ   -0.001991   0.005188   0.006667  -0.006938   0.001051
   26  C  1 XXX  -0.000000   0.000000   0.000000   0.000000  -0.000000
   27  C  1 YYY   0.000542   0.003838   0.002113  -0.004832  -0.003736
   28  C  1 ZZZ  -0.000009  -0.000430  -0.000421   0.000277   0.001666
   29  C  1 XXY  -0.000307  -0.001223   0.000201   0.001668   0.002782
   30  C  1 XXZ   0.000154   0.001918   0.000896  -0.001295   0.000027
   31  C  1 YYX  -0.000000   0.000000   0.000000   0.000000  -0.000000
   32  C  1 YYZ  -0.000142  -0.001342  -0.000331   0.000923  -0.002262
   33  C  1 ZZX  -0.000000   0.000000   0.000000   0.000000  -0.000000
   34  C  1 ZZY  -0.000421  -0.003926  -0.003035   0.004815   0.002231
   35  C  1 XYZ  -0.000000   0.000000   0.000000   0.000000  -0.000000
   36  C  2  S   -0.691950  -0.014891   0.003976   0.013757   0.004993
   37  C  2  S   -0.001210   0.216619  -0.123212  -0.260831  -0.108278
   38  C  2  S   -0.029394   0.043713  -0.025954  -0.052707  -0.021678
   39  C  2  S   -0.015390   0.042243  -0.064065  -0.081154  -0.044471
   40  C  2  X   -0.000000   0.000000   0.000000   0.000000  -0.000000
   41  C  2  Y   -0.000643  -0.032208  -0.041854   0.068955   0.114733
   42  C  2  Z   -0.000734  -0.036183   0.034748   0.007853  -0.034935
   43  C  2  X   -0.000000   0.000000   0.000000   0.000000  -0.000000
   44  C  2  Y    0.003880  -0.024298  -0.035764   0.058664   0.118253
   45  C  2  Z    0.002199  -0.046011   0.033204   0.020066  -0.031342
   46  C  2  X   -0.000000   0.000000   0.000000   0.000000  -0.000000
   47  C  2  Y    0.005108  -0.001001   0.017391   0.006151   0.022867
   48  C  2  Z    0.001361  -0.000311  -0.005520   0.000759  -0.005335
   49  C  2 XX    0.000577  -0.008038   0.003620   0.008264   0.003741
   50  C  2 YY   -0.000831   0.007778  -0.001010  -0.012764  -0.008806
   51  C  2 ZZ    0.000254   0.000260  -0.002610   0.004500   0.005065
   52  C  2 XY   -0.000000   0.000000   0.000000   0.000000  -0.000000
   53  C  2 XZ   -0.000000   0.000000   0.000000   0.000000  -0.000000
   54  C  2 YZ    0.000224  -0.002619   0.006543   0.003750  -0.001917
   55  C  2 XX    0.000409  -0.005167   0.003678   0.006862   0.003830
   56  C  2 YY   -0.000476   0.004736  -0.006573  -0.007503  -0.004077
   57  C  2 ZZ    0.000067   0.000431   0.002894   0.000641   0.000248
   58  C  2 XY   -0.000000   0.000000   0.000000   0.000000  -0.000000
   59  C  2 XZ   -0.000000   0.000000   0.000000   0.000000  -0.000000
   60  C  2 YZ   -0.001991  -0.005188   0.006667   0.006938  -0.001051
   61  C  2 XXX  -0.000000   0.000000   0.000000   0.000000  -0.000000
   62  C  2 YYY   0.000542  -0.003838   0.002113   0.004832   0.003736
   63  C  2 ZZZ   0.000009  -0.000430   0.000421   0.000277   0.001666
   64  C  2 XXY  -0.000307   0.001223   0.000201  -0.001668  -0.002782
   65  C  2 XXZ  -0.000154   0.001918  -0.000896  -0.001295   0.000027
   66  C  2 YYX  -0.000000   0.000000   0.000000   0.000000  -0.000000
   67  C  2 YYZ   0.000142  -0.001342   0.000331   0.000923  -0.002262
   68  C  2 ZZX  -0.000000   0.000000   0.000000   0.000000  -0.000000
   69  C  2 ZZY  -0.000421   0.003926  -0.003035  -0.004815  -0.002231
   70  C  2 XYZ  -0.000000   0.000000   0.000000   0.000000  -0.000000
   71  C  3  S   -0.015386  -0.011332  -0.011033   0.000018  -0.004942
   72  C  3  S    0.000328   0.200909   0.300973   0.017615   0.247329
   73  C  3  S   -0.000248   0.040640   0.060213   0.003579   0.049236
   74  C  3  S   -0.006225   0.065066   0.117194   0.001519   0.148096
   75  C  3  X   -0.000000   0.000000   0.000000   0.000000  -0.000000
   76  C  3  Y    0.000127   0.037946   0.021270  -0.004719  -0.040899
   77  C  3  Z    0.000102  -0.002226  -0.010347  -0.058137   0.006007
   78  C  3  X   -0.000000   0.000000   0.000000   0.000000  -0.000000
   79  C  3  Y    0.000345   0.029318   0.018811   0.001114  -0.045984
   80  C  3  Z    0.000456  -0.006848  -0.010085  -0.053277   0.010917
   81  C  3  X   -0.000000   0.000000   0.000000   0.000000  -0.000000
   82  C  3  Y   -0.002516   0.004522   0.003055  -0.003631  -0.008108
   83  C  3  Z    0.001313  -0.001069   0.006971  -0.006397  -0.005548
   84  C  3 XX    0.000022  -0.007338  -0.009959  -0.000374  -0.007143
   85  C  3 YY    0.000084   0.003777   0.003094  -0.000374   0.004035
   86  C  3 ZZ   -0.000106   0.003560   0.006865   0.000749   0.003108
   87  C  3 XY   -0.000000   0.000000   0.000000   0.000000  -0.000000
   88  C  3 XZ   -0.000000   0.000000   0.000000   0.000000  -0.000000
   89  C  3 YZ   -0.000051   0.000136  -0.000528  -0.006956   0.000275
   90  C  3 XX    0.000619  -0.007900  -0.012095   0.000279  -0.013240
   91  C  3 YY   -0.002342   0.010670   0.009626  -0.003690   0.009712
   92  C  3 ZZ    0.001723  -0.002770   0.002469   0.003411   0.003528
   93  C  3 XY   -0.000000   0.000000   0.000000   0.000000  -0.000000
   94  C  3 XZ   -0.000000   0.000000   0.000000   0.000000  -0.000000
   95  C  3 YZ    0.000016  -0.004589  -0.000733   0.003057   0.004810
   96  C  3 XXX  -0.000000   0.000000   0.000000   0.000000  -0.000000
   97  C  3 YYY   0.000023  -0.002794  -0.006002  -0.000256  -0.005419
   98  C  3 ZZZ   0.000077  -0.000338  -0.000465  -0.000089   0.000005
   99  C  3 XXY   0.000143  -0.001037  -0.000743  -0.000234  -0.000386
  100  C  3 XXZ   0.000058   0.000103  -0.000077   0.000578  -0.000294
  101  C  3 YYX  -0.000000   0.000000   0.000000   0.000000  -0.000000
  102  C  3 YYZ  -0.000161   0.000350   0.000702  -0.000459   0.000287
  103  C  3 ZZX  -0.000000   0.000000   0.000000   0.000000  -0.000000
  104  C  3 ZZY  -0.000174   0.004786   0.008795   0.000578   0.007655
  105  C  3 XYZ  -0.000000   0.000000   0.000000   0.000000  -0.000000
  106  C  4  S    0.015386  -0.011332   0.011033   0.000018  -0.004942
  107  C  4  S   -0.000328   0.200909  -0.300973   0.017615   0.247329
  108  C  4  S    0.000248   0.040640  -0.060213   0.003579   0.049236
  109  C  4  S    0.006225   0.065066  -0.117194   0.001519   0.148096
  110  C  4  X   -0.000000   0.000000   0.000000   0.000000  -0.000000
  111  C  4  Y    0.000127  -0.037946   0.021270   0.004719   0.040899
  112  C  4  Z   -0.000102  -0.002226   0.010347  -0.058137   0.006007
  113  C  4  X   -0.000000   0.000000   0.000000   0.000000  -0.000000
  114  C  4  Y    0.000345  -0.029318   0.018811  -0.001114   0.045984
  115  C  4  Z   -0.000456  -0.006848   0.010085  -0.053277   0.010917
  116  C  4  X   -0.000000   0.000000   0.000000   0.000000  -0.000000
  117  C  4  Y   -0.002516  -0.004522   0.003055   0.003631   0.008108
  118  C  4  Z   -0.001313  -0.001069  -0.006971  -0.006397  -0.005548
  119  C  4 XX   -0.000022  -0.007338   0.009959  -0.000374  -0.007143
  120  C  4 YY   -0.000084   0.003777  -0.003094  -0.000374   0.004035
  121  C  4 ZZ    0.000106   0.003560  -0.006865   0.000749   0.003108
  122  C  4 XY   -0.000000   0.000000   0.000000   0.000000  -0.000000
  123  C  4 XZ   -0.000000   0.000000   0.000000   0.000000  -0.000000
  124  C  4 YZ   -0.000051  -0.000136  -0.000528   0.006956  -0.000275
  125  C  4 XX   -0.000619  -0.007900   0.012095   0.000279  -0.013240
  126  C  4 YY    0.002342   0.010670  -0.009626  -0.003690   0.009712
  127  C  4 ZZ   -0.001723  -0.002770  -0.002469   0.003411   0.003528
  128  C  4 XY   -0.000000   0.000000   0.000000   0.000000  -0.000000
  129  C  4 XZ   -0.000000   0.000000   0.000000   0.000000  -0.000000
  130  C  4 YZ    0.000016   0.004589  -0.000733  -0.003057  -0.004810
  131  C  4 XXX  -0.000000   0.000000   0.000000   0.000000  -0.000000
  132  C  4 YYY   0.000023   0.002794  -0.006002   0.000256   0.005419
  133  C  4 ZZZ  -0.000077  -0.000338   0.000465  -0.000089   0.000005
  134  C  4 XXY   0.000143   0.001037  -0.000743   0.000234   0.000386
  135  C  4 XXZ  -0.000058   0.000103   0.000077   0.000578  -0.000294
  136  C  4 YYX  -0.000000   0.000000   0.000000   0.000000  -0.000000
  137  C  4 YYZ   0.000161   0.000350  -0.000702  -0.000459   0.000287
  138  C  4 ZZX  -0.000000   0.000000   0.000000   0.000000  -0.000000
  139  C  4 ZZY  -0.000174  -0.004786   0.008795  -0.000578  -0.007655
  140  C  4 XYZ  -0.000000   0.000000   0.000000   0.000000  -0.000000
  141  H  5  S    0.000109   0.019423   0.045207   0.004699   0.072498
  142  H  5  S    0.002175  -0.000433   0.034788   0.011495   0.085031
  143  H  5  S   -0.000422  -0.001363   0.003252  -0.000607   0.013964
  144  H  5  X   -0.000000   0.000000   0.000000   0.000000  -0.000000
  145  H  5  Y   -0.000003   0.001358   0.003958   0.000667   0.006884
  146  H  5  Z    0.000034  -0.000067  -0.000270  -0.000978  -0.000017
  147  H  5  X   -0.000000   0.000000   0.000000   0.000000  -0.000000
  148  H  5  Y    0.000731  -0.007851  -0.003479   0.003337   0.004022
  149  H  5  Z   -0.000142  -0.001408  -0.000673   0.002337   0.001839
  150  H  5 XX    0.000079   0.000106  -0.000354  -0.000197  -0.001047
  151  H  5 YY   -0.000011  -0.000898  -0.000126   0.000379   0.001401
  152  H  5 ZZ   -0.000068   0.000792   0.000480  -0.000182  -0.000354
  153  H  5 XY   -0.000000   0.000000   0.000000   0.000000  -0.000000
  154  H  5 XZ   -0.000000   0.000000   0.000000   0.000000  -0.000000
  155  H  5 YZ   -0.000021  -0.000232  -0.000244   0.000047   0.000262
  156  H  6  S   -0.000109   0.019423  -0.045207   0.004699   0.072498
  157  H  6  S   -0.002175  -0.000433  -0.034788   0.011495   0.085031
  158  H  6  S    0.000422  -0.001363  -0.003252  -0.000607   0.013964
  159  H  6  X   -0.000000   0.000000   0.000000   0.000000  -0.000000
  160  H  6  Y   -0.000003  -0.001358   0.003958  -0.000667  -0.006884
  161  H  6  Z   -0.000034  -0.000067   0.000270  -0.000978  -0.000017
  162  H  6  X   -0.000000   0.000000   0.000000   0.000000  -0.000000
  163  H  6  Y    0.000731   0.007851  -0.003479  -0.003337  -0.004022
  164  H  6  Z    0.000142  -0.001408   0.000673   0.002337   0.001839
  165  H  6 XX   -0.000079   0.000106   0.000354  -0.000197  -0.001047
  166  H  6 YY    0.000011  -0.000898   0.000126   0.000379   0.001401
  167  H  6 ZZ    0.000068   0.000792  -0.000480  -0.000182  -0.000354
  168  H  6 XY   -0.000000   0.000000   0.000000   0.000000  -0.000000
  169  H  6 XZ   -0.000000   0.000000   0.000000   0.000000  -0.000000
  170  H  6 YZ   -0.000021   0.000232  -0.000244  -0.000047  -0.000262
  171  C  7  S    0.000356  -0.011201  -0.006318  -0.008747   0.003188
  172  C  7  S   -0.000120   0.196928   0.163235   0.262123  -0.119121
  173  C  7  S   -0.000128   0.039084   0.032283   0.053022  -0.022759
  174  C  7  S    0.005295   0.051765   0.065244   0.094757  -0.083662
  175  C  7  X   -0.000000   0.000000   0.000000   0.000000  -0.000000
  176  C  7  Y   -0.000007   0.012605  -0.047431   0.029144  -0.073733
  177  C  7  Z   -0.000050   0.030115   0.036291  -0.007906   0.054488
  178  C  7  X   -0.000000   0.000000   0.000000   0.000000  -0.000000
  179  C  7  Y   -0.000253   0.011047  -0.048150   0.029369  -0.083136
  180  C  7  Z    0.000188   0.024481   0.032697  -0.009129   0.064399
  181  C  7  X   -0.000000   0.000000   0.000000   0.000000  -0.000000
  182  C  7  Y   -0.000258  -0.000600  -0.008043   0.004217  -0.010217
  183  C  7  Z    0.002241  -0.001410   0.008536  -0.000523   0.008719
  184  C  7 XX    0.000016  -0.007352  -0.005485  -0.008558   0.003543
  185  C  7 YY    0.000025   0.003715  -0.001168   0.008317  -0.006438
  186  C  7 ZZ   -0.000042   0.003636   0.006653   0.000241   0.002895
  187  C  7 XY   -0.000000   0.000000   0.000000   0.000000  -0.000000
  188  C  7 XZ   -0.000000   0.000000   0.000000   0.000000  -0.000000
  189  C  7 YZ   -0.000085  -0.001414  -0.005110  -0.001278  -0.003832
  190  C  7 XX   -0.000383  -0.007409  -0.006223  -0.007844   0.008605
  191  C  7 YY   -0.000884   0.003845   0.003252   0.004112  -0.008723
  192  C  7 ZZ    0.001266   0.003565   0.002971   0.003732   0.000117
  193  C  7 XY   -0.000000   0.000000   0.000000   0.000000  -0.000000
  194  C  7 XZ   -0.000000   0.000000   0.000000   0.000000  -0.000000
  195  C  7 YZ    0.001477   0.001745  -0.001764  -0.001260  -0.006773
  196  C  7 XXX  -0.000000   0.000000   0.000000   0.000000  -0.000000
  197  C  7 YYY  -0.000007   0.004051   0.003341   0.005465  -0.003663
  198  C  7 ZZZ   0.000026   0.000292   0.000739  -0.000752  -0.001134
  199  C  7 XXY   0.000005  -0.000398   0.000651  -0.000497   0.001780
  200  C  7 XXZ  -0.000064  -0.000860  -0.000572   0.000349  -0.000558
  201  C  7 YYX  -0.000000   0.000000   0.000000   0.000000  -0.000000
  202  C  7 YYZ   0.000030   0.000468  -0.000420   0.000660   0.002080
  203  C  7 ZZX  -0.000000   0.000000   0.000000   0.000000  -0.000000
  204  C  7 ZZY   0.000005  -0.005037  -0.005133  -0.006835   0.003135
  205  C  7 XYZ  -0.000000   0.000000   0.000000   0.000000  -0.000000
  206  C  8  S   -0.000356  -0.011201   0.006318  -0.008747   0.003188
  207  C  8  S    0.000120   0.196928  -0.163235   0.262123  -0.119121
  208  C  8  S    0.000128   0.039084  -0.032283   0.053022  -0.022759
  209  C  8  S   -0.005295   0.051765  -0.065244   0.094757  -0.083662
  210  C  8  X   -0.000000   0.000000   0.000000   0.000000  -0.000000
  211  C  8  Y   -0.000007  -0.012605  -0.047431  -0.029144   0.073733
  212  C  8  Z    0.000050   0.030115  -0.036291  -0.007906   0.054488
  213  C  8  X   -0.000000   0.000000   0.000000   0.000000  -0.000000
  214  C  8  Y   -0.000253  -0.011047  -0.048150  -0.029369   0.083136
  215  C  8  Z   -0.000188   0.024481  -0.032697  -0.009129   0.064399
  216  C  8  X   -0.000000   0.000000   0.000000   0.000000  -0.000000
  217  C  8  Y   -0.000258   0.000600  -0.008043  -0.004217   0.010217
  218  C  8  Z   -0.002241  -0.001410  -0.008536  -0.000523   0.008719
  219  C  8 XX   -0.000016  -0.007352   0.005485  -0.008558   0.003543
  220  C  8 YY   -0.000025   0.003715   0.001168   0.008317  -0.006438
  221  C  8 ZZ    0.000042   0.003636  -0.006653   0.000241   0.002895
  222  C  8 XY   -0.000000   0.000000   0.000000   0.000000  -0.000000
  223  C  8 XZ   -0.000000   0.000000   0.000000   0.000000  -0.000000
  224  C  8 YZ   -0.000085   0.001414  -0.005110   0.001278   0.003832
  225  C  8 XX    0.000383  -0.007409   0.006223  -0.007844   0.008605
  226  C  8 YY    0.000884   0.003845  -0.003252   0.004112  -0.008723
  227  C  8 ZZ   -0.001266   0.003565  -0.002971   0.003732   0.000117
  228  C  8 XY   -0.000000   0.000000   0.000000   0.000000  -0.000000
  229  C  8 XZ   -0.000000   0.000000   0.000000   0.000000  -0.000000
  230  C  8 YZ    0.001477  -0.001745  -0.001764   0.001260   0.006773
  231  C  8 XXX  -0.000000   0.000000   0.000000   0.000000  -0.000000
  232  C  8 YYY  -0.000007  -0.004051   0.003341  -0.005465   0.003663
  233  C  8 ZZZ  -0.000026   0.000292  -0.000739  -0.000752  -0.001134
  234  C  8 XXY   0.000005   0.000398   0.000651   0.000497  -0.001780
  235  C  8 XXZ   0.000064  -0.000860   0.000572   0.000349  -0.000558
  236  C  8 YYX  -0.000000   0.000000   0.000000   0.000000  -0.000000
  237  C  8 YYZ  -0.000030   0.000468   0.000420   0.000660   0.002080
  238  C  8 ZZX  -0.000000   0.000000   0.000000   0.000000  -0.000000
  239  C  8 ZZY   0.000005   0.005037  -0.005133   0.006835  -0.003135
  240  C  8 XYZ  -0.000000   0.000000   0.000000   0.000000  -0.000000
  241  H  9  S   -0.000036   0.020122   0.025305   0.044153  -0.031782
  242  H  9  S   -0.001714   0.006730   0.021492   0.043310  -0.032259
  243  H  9  S    0.000366  -0.002638   0.002391   0.004588  -0.005694
  244  H  9  X   -0.000000   0.000000   0.000000   0.000000  -0.000000
  245  H  9  Y    0.000005   0.000672   0.000263   0.002411  -0.003089
  246  H  9  Z    0.000030   0.001262   0.002358   0.003464  -0.001636
  247  H  9  X   -0.000000   0.000000   0.000000   0.000000  -0.000000
  248  H  9  Y   -0.000287  -0.002022   0.000110  -0.000930  -0.004098
  249  H  9  Z   -0.000500  -0.004520  -0.002145  -0.000017   0.002144
  250  H  9 XX   -0.000038   0.000020  -0.000125  -0.000417   0.000397
  251  H  9 YY    0.000019   0.000352   0.000186   0.000189  -0.001191
  252  H  9 ZZ    0.000019  -0.000372  -0.000061   0.000228   0.000794
  253  H  9 XY   -0.000000   0.000000   0.000000   0.000000  -0.000000
  254  H  9 XZ   -0.000000   0.000000   0.000000   0.000000  -0.000000
  255  H  9 YZ   -0.000010  -0.000621  -0.000186   0.000003  -0.001123
  256  H 10  S    0.000036   0.020122  -0.025305   0.044153  -0.031782
  257  H 10  S    0.001714   0.006730  -0.021492   0.043310  -0.032259
  258  H 10  S   -0.000366  -0.002638  -0.002391   0.004588  -0.005694
  259  H 10  X   -0.000000   0.000000   0.000000   0.000000  -0.000000
  260  H 10  Y    0.000005  -0.000672   0.000263  -0.002411   0.003089
  261  H 10  Z   -0.000030   0.001262  -0.002358   0.003464  -0.001636
  262  H 10  X   -0.000000   0.000000   0.000000   0.000000  -0.000000
  263  H 10  Y   -0.000287   0.002022   0.000110   0.000930   0.004098
  264  H 10  Z    0.000500  -0.004520   0.002145  -0.000017   0.002144
  265  H 10 XX    0.000038   0.000020   0.000125  -0.000417   0.000397
  266  H 10 YY   -0.000019   0.000352  -0.000186   0.000189  -0.001191
  267  H 10 ZZ   -0.000019  -0.000372   0.000061   0.000228   0.000794
  268  H 10 XY   -0.000000   0.000000   0.000000   0.000000  -0.000000
  269  H 10 XZ   -0.000000   0.000000   0.000000   0.000000  -0.000000
  270  H 10 YZ   -0.000010   0.000621  -0.000186  -0.000003   0.001123

                     11         12         13         14         15
                   -0.7967    -0.6952    -0.6444    -0.6342    -0.5619
                     B2         A1         B2         A1         B2  
    1  C  1  S    0.002585   0.003062  -0.000799   0.001135   0.000255
    2  C  1  S   -0.176395  -0.070052   0.131539   0.030891  -0.102224
    3  C  1  S   -0.035826  -0.015914   0.027665   0.004641  -0.021163
    4  C  1  S   -0.132043  -0.037402   0.084047   0.051833  -0.105994
    5  C  1  X    0.000000   0.000000   0.000000   0.000000   0.000000
    6  C  1  Y    0.063698  -0.044425  -0.036996  -0.144489   0.042140
    7  C  1  Z    0.032826  -0.064828  -0.036421  -0.048635  -0.000420
    8  C  1  X    0.000000   0.000000   0.000000   0.000000   0.000000
    9  C  1  Y    0.070950  -0.041419  -0.035152  -0.166886   0.058042
   10  C  1  Z    0.040295  -0.080745  -0.039386  -0.055653   0.001945
   11  C  1  X    0.000000   0.000000   0.000000   0.000000   0.000000
   12  C  1  Y    0.008034  -0.014879  -0.022931  -0.052878   0.010412
   13  C  1  Z    0.017835  -0.029448  -0.017921  -0.017964   0.005041
   14  C  1 XX    0.004394   0.000672  -0.002540   0.000582   0.001460
   15  C  1 YY   -0.003361  -0.007663  -0.002466  -0.005242  -0.004051
   16  C  1 ZZ   -0.001033   0.006991   0.005007   0.004660   0.002591
   17  C  1 XY    0.000000   0.000000   0.000000   0.000000   0.000000
   18  C  1 XZ    0.000000   0.000000   0.000000   0.000000   0.000000
   19  C  1 YZ   -0.007833  -0.003462   0.005669   0.005892  -0.002279
   20  C  1 XX    0.007676  -0.001177  -0.004725  -0.003298   0.003318
   21  C  1 YY   -0.007723  -0.006517  -0.000324   0.004568  -0.007568
   22  C  1 ZZ    0.000047   0.007694   0.005049  -0.001270   0.004250
   23  C  1 XY    0.000000   0.000000   0.000000   0.000000   0.000000
   24  C  1 XZ    0.000000   0.000000   0.000000   0.000000   0.000000
   25  C  1 YZ   -0.008700  -0.006886   0.008823   0.007214  -0.002505
   26  C  1 XXX   0.000000   0.000000   0.000000   0.000000   0.000000
   27  C  1 YYY  -0.002564  -0.000610   0.002789  -0.002256  -0.000303
   28  C  1 ZZZ  -0.000837  -0.000616  -0.002452   0.002251  -0.002740
   29  C  1 XXY  -0.001096   0.000752   0.000570   0.003571  -0.000904
   30  C  1 XXZ  -0.002276   0.002057   0.001526   0.001683  -0.001185
   31  C  1 YYX   0.000000   0.000000   0.000000   0.000000   0.000000
   32  C  1 YYZ   0.003399  -0.001230   0.001764  -0.004702   0.004861
   33  C  1 ZZX   0.000000   0.000000   0.000000   0.000000   0.000000
   34  C  1 ZZY   0.004536   0.000067  -0.004312  -0.000544   0.001309
   35  C  1 XYZ   0.000000   0.000000   0.000000   0.000000   0.000000
   36  C  2  S   -0.002585   0.003062   0.000799   0.001135  -0.000255
   37  C  2  S    0.176395  -0.070052  -0.131539   0.030891   0.102224
   38  C  2  S    0.035826  -0.015914  -0.027665   0.004641   0.021163
   39  C  2  S    0.132043  -0.037402  -0.084047   0.051833   0.105994
   40  C  2  X    0.000000   0.000000   0.000000   0.000000   0.000000
   41  C  2  Y    0.063698   0.044425  -0.036996   0.144489   0.042140
   42  C  2  Z   -0.032826  -0.064828   0.036421  -0.048635   0.000420
   43  C  2  X    0.000000   0.000000   0.000000   0.000000   0.000000
   44  C  2  Y    0.070950   0.041419  -0.035152   0.166886   0.058042
   45  C  2  Z   -0.040295  -0.080745   0.039386  -0.055653  -0.001945
   46  C  2  X    0.000000   0.000000   0.000000   0.000000   0.000000
   47  C  2  Y    0.008034   0.014879  -0.022931   0.052878   0.010412
   48  C  2  Z   -0.017835  -0.029448   0.017921  -0.017964  -0.005041
   49  C  2 XX   -0.004394   0.000672   0.002540   0.000582  -0.001460
   50  C  2 YY    0.003361  -0.007663   0.002466  -0.005242   0.004051
   51  C  2 ZZ    0.001033   0.006991  -0.005007   0.004660  -0.002591
   52  C  2 XY    0.000000   0.000000   0.000000   0.000000   0.000000
   53  C  2 XZ    0.000000   0.000000   0.000000   0.000000   0.000000
   54  C  2 YZ   -0.007833   0.003462   0.005669  -0.005892  -0.002279
   55  C  2 XX   -0.007676  -0.001177   0.004725  -0.003298  -0.003318
   56  C  2 YY    0.007723  -0.006517   0.000324   0.004568   0.007568
   57  C  2 ZZ   -0.000047   0.007694  -0.005049  -0.001270  -0.004250
   58  C  2 XY    0.000000   0.000000   0.000000   0.000000   0.000000
   59  C  2 XZ    0.000000   0.000000   0.000000   0.000000   0.000000
   60  C  2 YZ   -0.008700   0.006886   0.008823  -0.007214  -0.002505
   61  C  2 XXX   0.000000   0.000000   0.000000   0.000000   0.000000
   62  C  2 YYY  -0.002564   0.000610   0.002789   0.002256  -0.000303
   63  C  2 ZZZ   0.000837  -0.000616   0.002452   0.002251   0.002740
   64  C  2 XXY  -0.001096  -0.000752   0.000570  -0.003571  -0.000904
   65  C  2 XXZ   0.002276   0.002057  -0.001526   0.001683   0.001185
   66  C  2 YYX   0.000000   0.000000   0.000000   0.000000   0.000000
   67  C  2 YYZ  -0.003399  -0.001230  -0.001764  -0.004702  -0.004861
   68  C  2 ZZX   0.000000   0.000000   0.000000   0.000000   0.000000
   69  C  2 ZZY   0.004536  -0.000067  -0.004312   0.000544   0.001309
   70  C  2 XYZ   0.000000   0.000000   0.000000   0.000000   0.000000
   71  C  3  S    0.001144   0.000797   0.000487   0.000142  -0.000143
   72  C  3  S   -0.066734  -0.004849  -0.063168  -0.010104   0.082875
   73  C  3  S   -0.013214  -0.002462  -0.015037  -0.002955   0.017396
   74  C  3  S   -0.022675  -0.033315  -0.092533  -0.009546   0.051170
   75  C  3  X    0.000000   0.000000   0.000000   0.000000   0.000000
   76  C  3  Y    0.000514   0.114275   0.168227  -0.004683   0.052994
   77  C  3  Z   -0.117248  -0.006231   0.022574   0.154365  -0.110518
   78  C  3  X    0.000000   0.000000   0.000000   0.000000   0.000000
   79  C  3  Y    0.000661   0.146265   0.208037  -0.005870   0.066479
   80  C  3  Z   -0.131467  -0.004839   0.028115   0.187123  -0.129231
   81  C  3  X    0.000000   0.000000   0.000000   0.000000   0.000000
   82  C  3  Y    0.008496   0.038433   0.079850  -0.004188   0.029131
   83  C  3  Z   -0.025858  -0.004481   0.012527   0.054997  -0.052257
   84  C  3 XX    0.002211  -0.000676   0.000421  -0.000138  -0.001556
   85  C  3 YY   -0.002164  -0.001470  -0.010698  -0.000781   0.002039
   86  C  3 ZZ   -0.000047   0.002146   0.010277   0.000918  -0.000484
   87  C  3 XY    0.000000   0.000000   0.000000   0.000000   0.000000
   88  C  3 XZ    0.000000   0.000000   0.000000   0.000000   0.000000
   89  C  3 YZ   -0.010149  -0.001997   0.003053   0.013127  -0.010496
   90  C  3 XX    0.003102   0.000475   0.003886  -0.000672  -0.001395
   91  C  3 YY   -0.001210  -0.002317  -0.017488   0.001914   0.002542
   92  C  3 ZZ   -0.001893   0.001842   0.013602  -0.001242  -0.001147
   93  C  3 XY    0.000000   0.000000   0.000000   0.000000   0.000000
   94  C  3 XZ    0.000000   0.000000   0.000000   0.000000   0.000000
   95  C  3 YZ   -0.011302  -0.001606   0.003591   0.015120  -0.011452
   96  C  3 XXX   0.000000   0.000000   0.000000   0.000000   0.000000
   97  C  3 YYY   0.001625   0.001705   0.001119  -0.000391  -0.000777
   98  C  3 ZZZ  -0.002554   0.001294   0.000339   0.003179  -0.001244
   99  C  3 XXY   0.000152  -0.003799  -0.003430   0.000082  -0.001323
  100  C  3 XXZ   0.002478  -0.000032  -0.000827  -0.004062   0.002494
  101  C  3 YYX   0.000000   0.000000   0.000000   0.000000   0.000000
  102  C  3 YYZ   0.000949  -0.001704   0.000373  -0.000202  -0.000825
  103  C  3 ZZX   0.000000   0.000000   0.000000   0.000000   0.000000
  104  C  3 ZZY  -0.002333   0.001512   0.001929   0.000443   0.002366
  105  C  3 XYZ   0.000000   0.000000   0.000000   0.000000   0.000000
  106  C  4  S   -0.001144   0.000797  -0.000487   0.000142   0.000143
  107  C  4  S    0.066734  -0.004849   0.063168  -0.010104  -0.082875
  108  C  4  S    0.013214  -0.002462   0.015037  -0.002955  -0.017396
  109  C  4  S    0.022675  -0.033315   0.092533  -0.009546  -0.051170
  110  C  4  X    0.000000   0.000000   0.000000   0.000000   0.000000
  111  C  4  Y    0.000514  -0.114275   0.168227   0.004683   0.052994
  112  C  4  Z    0.117248  -0.006231  -0.022574   0.154365   0.110518
  113  C  4  X    0.000000   0.000000   0.000000   0.000000   0.000000
  114  C  4  Y    0.000661  -0.146265   0.208037   0.005870   0.066479
  115  C  4  Z    0.131467  -0.004839  -0.028115   0.187123   0.129231
  116  C  4  X    0.000000   0.000000   0.000000   0.000000   0.000000
  117  C  4  Y    0.008496  -0.038433   0.079850   0.004188   0.029131
  118  C  4  Z    0.025858  -0.004481  -0.012527   0.054997   0.052257
  119  C  4 XX   -0.002211  -0.000676  -0.000421  -0.000138   0.001556
  120  C  4 YY    0.002164  -0.001470   0.010698  -0.000781  -0.002039
  121  C  4 ZZ    0.000047   0.002146  -0.010277   0.000918   0.000484
  122  C  4 XY    0.000000   0.000000   0.000000   0.000000   0.000000
  123  C  4 XZ    0.000000   0.000000   0.000000   0.000000   0.000000
  124  C  4 YZ   -0.010149   0.001997   0.003053  -0.013127  -0.010496
  125  C  4 XX   -0.003102   0.000475  -0.003886  -0.000672   0.001395
  126  C  4 YY    0.001210  -0.002317   0.017488   0.001914  -0.002542
  127  C  4 ZZ    0.001893   0.001842  -0.013602  -0.001242   0.001147
  128  C  4 XY    0.000000   0.000000   0.000000   0.000000   0.000000
  129  C  4 XZ    0.000000   0.000000   0.000000   0.000000   0.000000
  130  C  4 YZ   -0.011302   0.001606   0.003591  -0.015120  -0.011452
  131  C  4 XXX   0.000000   0.000000   0.000000   0.000000   0.000000
  132  C  4 YYY   0.001625  -0.001705   0.001119   0.000391  -0.000777
  133  C  4 ZZZ   0.002554   0.001294  -0.000339   0.003179   0.001244
  134  C  4 XXY   0.000152   0.003799  -0.003430  -0.000082  -0.001323
  135  C  4 XXZ  -0.002478  -0.000032   0.000827  -0.004062  -0.002494
[...]
  247  H  9  X    0.000000
  248  H  9  Y    0.207672
  249  H  9  Z    0.013248
  250  H  9 XX   -0.052081
  251  H  9 YY    0.056232
  252  H  9 ZZ   -0.004152
  253  H  9 XY    0.000000
  254  H  9 XZ    0.000000
  255  H  9 YZ   -0.020383
  256  H 10  S   -0.012168
  257  H 10  S   -0.072451
  258  H 10  S   -0.047534
  259  H 10  X    0.000000
  260  H 10  Y   -0.131420
  261  H 10  Z   -0.032091
  262  H 10  X    0.000000
  263  H 10  Y   -0.207672
  264  H 10  Z    0.013248
  265  H 10 XX   -0.052081
  266  H 10 YY    0.056232
  267  H 10 ZZ   -0.004152
  268  H 10 XY    0.000000
  269  H 10 XZ    0.000000
  270  H 10 YZ    0.020383

 THE CIS NATURAL ORBITALS HAVE BEEN PUNCHED.

 ..... DONE WITH CIS ENERGY .....

 STEP CPU TIME =   498.51 TOTAL CPU TIME =      561.8 (    9.4 MIN)
 TOTAL WALL CLOCK TIME=      639.3 SECONDS, CPU UTILIZATION IS  87.88%

     -------------------------------------------------------------
     CIS   PROPERTIES...FOR THE WAVEFUNCTION OF EXCITED STATE    1
                 USING THE EXPECTATION VALUE DENSITY
     -------------------------------------------------------------

          -----------------
          ENERGY COMPONENTS
          -----------------

         WAVEFUNCTION NORMALIZATION =       1.0000000000

                ONE ELECTRON ENERGY =    -679.9938650493
                TWO ELECTRON ENERGY =     262.7705729497
           NUCLEAR REPULSION ENERGY =     187.7935431231
                                      ------------------
                       TOTAL ENERGY =    -229.4297489764

 ELECTRON-ELECTRON POTENTIAL ENERGY =     262.7705729497
  NUCLEUS-ELECTRON POTENTIAL ENERGY =    -909.5162739172
   NUCLEUS-NUCLEUS POTENTIAL ENERGY =     187.7935431231
                                      ------------------
             TOTAL POTENTIAL ENERGY =    -458.9521578444
               TOTAL KINETIC ENERGY =     229.5224088680
                 VIRIAL RATIO (V/T) =       1.9995962926

          ---------------------------------------
          MULLIKEN AND LOWDIN POPULATION ANALYSES
          ---------------------------------------

               ----- POPULATIONS IN EACH AO -----
                             MULLIKEN      LOWDIN
              1  C  1  S      1.95635     1.56193
              2  C  1  S      0.83741     0.44909
              3  C  1  S      0.16560     0.29086
              4  C  1  S      0.26298     0.15389
              5  C  1  X      0.21861     0.17467
              6  C  1  Y      0.33075     0.26336
              7  C  1  Z      0.24367     0.20133
              8  C  1  X      0.46700     0.23873
              9  C  1  Y      0.48590     0.27706
             10  C  1  Z      0.43732     0.21863
             11  C  1  X      0.25381     0.23431
             12  C  1  Y      0.06554     0.16272
             13  C  1  Z      0.18641     0.16118
             14  C  1 XX      0.00369     0.08331
             15  C  1 YY      0.00551     0.12460
             16  C  1 ZZ      0.00395     0.09382
             17  C  1 XY      0.00144     0.00342
             18  C  1 XZ      0.00777     0.00112
             19  C  1 YZ      0.00000     0.00832
             20  C  1 XX      0.00555     0.05482
             21  C  1 YY      0.00512     0.13731
             22  C  1 ZZ      0.02101     0.09575
             23  C  1 XY      0.00936     0.05347
             24  C  1 XZ      0.02748     0.02206
             25  C  1 YZ      0.00000     0.09063
             26  C  1 XXX     0.00225     0.11356
             27  C  1 YYY     0.00194     0.19660
             28  C  1 ZZZ     0.00059     0.13284
             29  C  1 XXY     0.00177     0.06419
             30  C  1 XXZ     0.00143     0.05323
             31  C  1 YYX     0.00089     0.08390
             32  C  1 YYZ     0.00079     0.07391
             33  C  1 ZZX     0.00000     0.06124
             34  C  1 ZZY     0.00000     0.08398
             35  C  1 XYZ     0.00000     0.00205
             36  C  2  S      1.95635     1.56193
             37  C  2  S      0.83741     0.44909
             38  C  2  S      0.16560     0.29086
             39  C  2  S      0.26298     0.15389
             40  C  2  X      0.21861     0.17467
             41  C  2  Y      0.33075     0.26336
             42  C  2  Z      0.24367     0.20133
             43  C  2  X      0.46700     0.23873
             44  C  2  Y      0.48590     0.27706
             45  C  2  Z      0.43732     0.21863
             46  C  2  X      0.25381     0.23431
             47  C  2  Y      0.06554     0.16272
             48  C  2  Z      0.18641     0.16118
             49  C  2 XX      0.00369     0.08331
             50  C  2 YY      0.00551     0.12460
             51  C  2 ZZ      0.00395     0.09382
             52  C  2 XY      0.00144     0.00342
             53  C  2 XZ      0.00777     0.00112
             54  C  2 YZ      0.00000     0.00832
             55  C  2 XX      0.00555     0.05482
             56  C  2 YY      0.00512     0.13731
             57  C  2 ZZ      0.02101     0.09575
             58  C  2 XY      0.00936     0.05347
             59  C  2 XZ      0.02748     0.02206
             60  C  2 YZ      0.00000     0.09063
             61  C  2 XXX     0.00225     0.11356
             62  C  2 YYY     0.00194     0.19660
             63  C  2 ZZZ     0.00059     0.13284
             64  C  2 XXY     0.00177     0.06419
             65  C  2 XXZ     0.00143     0.05323
             66  C  2 YYX     0.00089     0.08390
             67  C  2 YYZ     0.00079     0.07391
             68  C  2 ZZX     0.00000     0.06124
             69  C  2 ZZY     0.00000     0.08398
             70  C  2 XYZ     0.00000     0.00205
             71  C  3  S      1.95675     1.55651
             72  C  3  S      0.83057     0.43412
             73  C  3  S      0.15832     0.27654
             74  C  3  S      0.33395     0.14105
             75  C  3  X      0.21102     0.16987
             76  C  3  Y      0.30684     0.23540
             77  C  3  Z      0.29564     0.22980
             78  C  3  X      0.46116     0.23273
             79  C  3  Y      0.55089     0.27685
             80  C  3  Z      0.48950     0.26745
             81  C  3  X      0.29846     0.25017
             82  C  3  Y      0.13789     0.16567
             83  C  3  Z      0.06040     0.15204
             84  C  3 XX      0.00683     0.07215
             85  C  3 YY      0.00390     0.09831
             86  C  3 ZZ      0.00145     0.09636
             87  C  3 XY      0.00264     0.00126
             88  C  3 XZ      0.00848     0.00235
             89  C  3 YZ      0.00000     0.01041
             90  C  3 XX      0.02144     0.04387
             91  C  3 YY      0.01165     0.12818
             92  C  3 ZZ      0.00794     0.12846
             93  C  3 XY      0.02049     0.01354
             94  C  3 XZ      0.00659     0.05212
             95  C  3 YZ      0.00000     0.06483
             96  C  3 XXX     0.00059     0.11334
             97  C  3 YYY     0.00119     0.18101
             98  C  3 ZZZ     0.00109     0.17530
             99  C  3 XXY     0.00178     0.06057
            100  C  3 XXZ     0.00277     0.06019
            101  C  3 YYX     0.00128     0.05741
            102  C  3 YYZ     0.00098     0.09379
            103  C  3 ZZX     0.00000     0.07255
            104  C  3 ZZY     0.00000     0.09246
            105  C  3 XYZ     0.00000     0.00436
            106  C  4  S      1.95675     1.55651
            107  C  4  S      0.83057     0.43412
            108  C  4  S      0.15832     0.27654
            109  C  4  S      0.33395     0.14105
            110  C  4  X      0.21102     0.16987
            111  C  4  Y      0.30684     0.23540
            112  C  4  Z      0.29564     0.22980
            113  C  4  X      0.46116     0.23273
            114  C  4  Y      0.55089     0.27685
            115  C  4  Z      0.48950     0.26745
            116  C  4  X      0.29846     0.25017
            117  C  4  Y      0.13789     0.16567
            118  C  4  Z      0.06040     0.15204
            119  C  4 XX      0.00683     0.07215
            120  C  4 YY      0.00390     0.09831
            121  C  4 ZZ      0.00145     0.09636
            122  C  4 XY      0.00264     0.00126
            123  C  4 XZ      0.00848     0.00235
            124  C  4 YZ      0.00000     0.01041
            125  C  4 XX      0.02144     0.04387
            126  C  4 YY      0.01165     0.12818
            127  C  4 ZZ      0.00794     0.12846
            128  C  4 XY      0.02049     0.01354
            129  C  4 XZ      0.00659     0.05212
            130  C  4 YZ      0.00000     0.06483
            131  C  4 XXX     0.00059     0.11334
            132  C  4 YYY     0.00119     0.18101
            133  C  4 ZZZ     0.00109     0.17530
            134  C  4 XXY     0.00178     0.06057
            135  C  4 XXZ     0.00277     0.06019
            136  C  4 YYX     0.00128     0.05741
            137  C  4 YYZ     0.00098     0.09379
            138  C  4 ZZX     0.00000     0.07255
            139  C  4 ZZY     0.00000     0.09246
            140  C  4 XYZ     0.00000     0.00436
            141  H  5  S      0.26835     0.20631
            142  H  5  S      0.43726     0.25461
            143  H  5  S      0.07963     0.12955
            144  H  5  X      0.00105     0.00156
            145  H  5  Y      0.00753     0.01117
            146  H  5  Z      0.00081     0.00079
            147  H  5  X      0.00927     0.02999
            148  H  5  Y     -0.00087     0.04466
            149  H  5  Z      0.00663     0.01976
            150  H  5 XX      0.00019     0.07352
            151  H  5 YY      0.00049     0.12522
            152  H  5 ZZ      0.00053     0.07046
            153  H  5 XY      0.00001     0.00407
            154  H  5 XZ      0.00095     0.00004
            155  H  5 YZ      0.00000     0.00377
            156  H  6  S      0.26835     0.20631
            157  H  6  S      0.43726     0.25461
            158  H  6  S      0.07963     0.12955
            159  H  6  X      0.00105     0.00156
            160  H  6  Y      0.00753     0.01117
            161  H  6  Z      0.00081     0.00079
            162  H  6  X      0.00927     0.02999
            163  H  6  Y     -0.00087     0.04466
            164  H  6  Z      0.00663     0.01976
            165  H  6 XX      0.00019     0.07352
            166  H  6 YY      0.00049     0.12522
            167  H  6 ZZ      0.00053     0.07046
            168  H  6 XY      0.00001     0.00407
            169  H  6 XZ      0.00095     0.00004
            170  H  6 YZ      0.00000     0.00377
            171  C  7  S      1.95650     1.55873
            172  C  7  S      0.82655     0.43487
            173  C  7  S      0.15640     0.28066
            174  C  7  S      0.29705     0.13842
            175  C  7  X      0.20412     0.16423
            176  C  7  Y      0.30035     0.23873
            177  C  7  Z      0.29889     0.22952
            178  C  7  X      0.45189     0.23174
            179  C  7  Y      0.51882     0.27492
            180  C  7  Z      0.52947     0.26789
            181  C  7  X      0.30164     0.25681
            182  C  7  Y      0.08019     0.14649
            183  C  7  Z      0.12362     0.16073
            184  C  7 XX      0.00642     0.07377
            185  C  7 YY      0.00411     0.10383
            186  C  7 ZZ      0.00224     0.09600
            187  C  7 XY      0.00166     0.00195
            188  C  7 XZ      0.00802     0.00150
            189  C  7 YZ      0.00000     0.00833
            190  C  7 XX      0.01496     0.04543
            191  C  7 YY      0.00414     0.11930
            192  C  7 ZZ      0.01720     0.11703
            193  C  7 XY      0.01057     0.04460
            194  C  7 XZ      0.02336     0.02307
            195  C  7 YZ      0.00000     0.08649
            196  C  7 XXX     0.00155     0.11237
            197  C  7 YYY     0.00157     0.18628
            198  C  7 ZZZ     0.00084     0.17411
            199  C  7 XXY     0.00189     0.06341
            200  C  7 XXZ     0.00246     0.05985
            201  C  7 YYX     0.00068     0.06940
            202  C  7 YYZ     0.00102     0.09123
            203  C  7 ZZX     0.00000     0.06161
            204  C  7 ZZY     0.00000     0.09108
            205  C  7 XYZ     0.00000     0.00195
            206  C  8  S      1.95650     1.55873
            207  C  8  S      0.82655     0.43487
            208  C  8  S      0.15640     0.28066
            209  C  8  S      0.29705     0.13842
            210  C  8  X      0.20412     0.16423
            211  C  8  Y      0.30035     0.23873
            212  C  8  Z      0.29889     0.22952
            213  C  8  X      0.45189     0.23174
            214  C  8  Y      0.51882     0.27492
            215  C  8  Z      0.52947     0.26789
            216  C  8  X      0.30164     0.25681
            217  C  8  Y      0.08019     0.14649
            218  C  8  Z      0.12362     0.16073
            219  C  8 XX      0.00642     0.07377
            220  C  8 YY      0.00411     0.10383
            221  C  8 ZZ      0.00224     0.09600
            222  C  8 XY      0.00166     0.00195
            223  C  8 XZ      0.00802     0.00150
            224  C  8 YZ      0.00000     0.00833
            225  C  8 XX      0.01496     0.04543
            226  C  8 YY      0.00414     0.11930
            227  C  8 ZZ      0.01720     0.11703
            228  C  8 XY      0.01057     0.04460
            229  C  8 XZ      0.02336     0.02307
            230  C  8 YZ      0.00000     0.08649
            231  C  8 XXX     0.00155     0.11237
            232  C  8 YYY     0.00157     0.18628
            233  C  8 ZZZ     0.00084     0.17411
            234  C  8 XXY     0.00189     0.06341
            235  C  8 XXZ     0.00246     0.05985
            236  C  8 YYX     0.00068     0.06940
            237  C  8 YYZ     0.00102     0.09123
            238  C  8 ZZX     0.00000     0.06161
            239  C  8 ZZY     0.00000     0.09108
            240  C  8 XYZ     0.00000     0.00195
            241  H  9  S      0.27124     0.20236
            242  H  9  S      0.44873     0.25417
            243  H  9  S      0.08713     0.13096
            244  H  9  X      0.00110     0.00163
            245  H  9  Y      0.00238     0.00362
            246  H  9  Z      0.00580     0.00756
            247  H  9  X      0.01001     0.03115
            248  H  9  Y      0.00555     0.02701
            249  H  9  Z      0.00136     0.04077
            250  H  9 XX      0.00079     0.07220
            251  H  9 YY      0.00023     0.08424
            252  H  9 ZZ      0.00014     0.10893
            253  H  9 XY      0.00049     0.00090
            254  H  9 XZ      0.00065     0.00321
            255  H  9 YZ      0.00000     0.00660
            256  H 10  S      0.27124     0.20236
            257  H 10  S      0.44873     0.25417
            258  H 10  S      0.08713     0.13096
            259  H 10  X      0.00110     0.00163
            260  H 10  Y      0.00238     0.00362
            261  H 10  Z      0.00580     0.00756
            262  H 10  X      0.01001     0.03115
            263  H 10  Y      0.00555     0.02701
            264  H 10  Z      0.00136     0.04077
            265  H 10 XX      0.00079     0.07220
            266  H 10 YY      0.00023     0.08424
            267  H 10 ZZ      0.00014     0.10893
            268  H 10 XY      0.00049     0.00090
            269  H 10 XZ      0.00065     0.00321
            270  H 10 YZ      0.00000     0.00660

          ----- MULLIKEN ATOMIC OVERLAP POPULATIONS -----
          (OFF-DIAGONAL ELEMENTS NEED TO BE MULTIPLIED BY 2)

             1           2           3           4           5

    1    5.2413189
    2    0.5176822   5.2413189
    3    0.4685172  -0.0800059   4.9231183
    4   -0.0800059   0.4685172  -0.0012589   4.9231183
    5   -0.0325916   0.0045859   0.4230126  -0.0013700   0.4576579
    6    0.0045859  -0.0325916  -0.0013700   0.4230126   0.0000241
    7   -0.0679112  -0.0473676   0.5615800  -0.0601644  -0.0398032
    8   -0.0473676  -0.0679112  -0.0601644   0.5615800   0.0041709
    9    0.0110752  -0.0034006  -0.0471179   0.0061498  -0.0037786
   10   -0.0034006   0.0110752   0.0061498  -0.0471179  -0.0000739

             6           7           8           9          10

    6    0.4576579
    7    0.0041709   4.9002213
    8   -0.0398032   0.5094681   4.9002213
    9   -0.0000739   0.4313625  -0.0433558   0.4892664
   10   -0.0037786  -0.0433558   0.4313625  -0.0045253   0.4892664

          TOTAL MULLIKEN AND LOWDIN ATOMIC POPULATIONS
       ATOM         MULL.POP.    CHARGE          LOW.POP.     CHARGE
    1 C             6.011902   -0.011902         6.021889   -0.021889
    2 C             6.011902   -0.011902         6.021889   -0.021889
    3 C             6.192461   -0.192461         6.011006   -0.011006
    4 C             6.192461   -0.192461         6.011006   -0.011006
    5 H             0.811834    0.188166         0.975479    0.024521
    6 H             0.811834    0.188166         0.975479    0.024521
    7 C             6.148201   -0.148201         6.016324   -0.016324
    8 C             6.148201   -0.148201         6.016324   -0.016324
    9 H             0.835602    0.164398         0.975302    0.024698
   10 H             0.835602    0.164398         0.975302    0.024698

          MULLIKEN SPHERICAL HARMONIC POPULATIONS
       ATOM           S       P       D      F      G      H      I    TOTAL
    1 C             3.22    2.69    0.09   0.01   0.00   0.00   0.00    6.01
    2 C             3.22    2.69    0.09   0.01   0.00   0.00   0.00    6.01
    3 C             3.28    2.81    0.09   0.01   0.00   0.00   0.00    6.19
    4 C             3.28    2.81    0.09   0.01   0.00   0.00   0.00    6.19
    5 H             0.79    0.02    0.00   0.00   0.00   0.00   0.00    0.81
    6 H             0.79    0.02    0.00   0.00   0.00   0.00   0.00    0.81
    7 C             3.24    2.81    0.09   0.01   0.00   0.00   0.00    6.15
    8 C             3.24    2.81    0.09   0.01   0.00   0.00   0.00    6.15
    9 H             0.81    0.03    0.00   0.00   0.00   0.00   0.00    0.84
   10 H             0.81    0.03    0.00   0.00   0.00   0.00   0.00    0.84

          ---------------------
          ELECTROSTATIC MOMENTS
          ---------------------

 POINT   1           X           Y           Z (BOHR)    CHARGE
                -0.000000    0.000000   -0.106657       -0.00 (A.U.)
         DX          DY          DZ         /D/  (DEBYE)
    -0.000000   -0.000000   -1.993723    1.993723
 ...... END OF PROPERTY EVALUATION ......
 STEP CPU TIME =     0.13 TOTAL CPU TIME =      562.0 (    9.4 MIN)
 TOTAL WALL CLOCK TIME=      639.4 SECONDS, CPU UTILIZATION IS  87.88%
              4174641  WORDS OF DYNAMIC MEMORY USED
 EXECUTION OF GAMESS TERMINATED NORMALLY Mon Nov 28 18:07:29 2016
 DDI: 263640 bytes (0.3 MB / 0 MWords) used by master data server.

 ----------------------------------------
 CPU timing information for all processes
 ========================================
 0: 544.148 + 17.812 = 561.960
 ----------------------------------------
 ddikick.x: exited gracefully.
unset echo
----- accounting info -----
Files used on the master node compute-3-0 were:
-rw-rw-r-- 1 sarom sarom    2496328 Nov 29  2016 .//cis-c6h4.dat
-rw-rw-r-- 1 sarom sarom       1544 Nov 28  2016 .//cis-c6h4.F05
-rw-rw-r-- 1 sarom sarom 4464777632 Nov 29  2016 .//cis-c6h4.F08
-rw-rw-r-- 1 sarom sarom    8049120 Nov 29  2016 .//cis-c6h4.F10
-rw-rw-r-- 1 sarom sarom     241960 Nov 29  2016 .//cis-c6h4.F12
-rw-rw-r-- 1 sarom sarom       1544 Nov 28 17:27 .//cis-c6h4.inp
-rw-rw-r-- 1 sarom sarom    1926845 Nov 29  2016 .//cis-c6h4.log
Mon Nov 28 18:07:33 CST 2016
0.208u 0.912s 10:44.35 0.1%	0+0k 0+136io 0pf+0w
