-catch_rsh /opt/gridengine/default/spool/compute-0-6/active_jobs/23471.1/pe_hostfile
compute-0-6
The primary node assigned by SGE to this run is compute-0-6
Warning: no access to tty (Bad file descriptor).
Thus no job control in this shell.
source /home/sarom/gamess.github.2017-05-31.14.06/install.info
setenv GMS_PATH /home/sarom/gamess.github.2017-05-31.14.06
setenv GMS_BUILD_DIR /home/sarom/gamess.github.2017-05-31.14.06
setenv GMS_TARGET linux64
setenv GMS_FORTRAN gfortran
setenv GMS_GFORTRAN_VERNO 4.4
setenv GMS_MATHLIB mkl-so
setenv GMS_MATHLIB_PATH /share/apps/intel/compilers_and_libraries_2017.1.132/linux/mkl/lib/intel64
setenv GMS_MKL_VERNO 12
setenv GMS_DDI_COMM sockets
setenv GMS_LIBCCHEM false
setenv GMS_EIGEN_PATH
setenv GMS_PHI false
setenv GMS_SHMTYPE sysv
setenv GMS_OPENMP false
unset echo
guga-inh2-grad
tests/ci
----- GAMESS execution script 'rungms' -----
This job is running on host compute-0-6.local
under operating system Linux at Fri Jun 2 00:44:42 CDT 2017
Available scratch disk space (Kbyte units) at beginning of the job is
Filesystem           1K-blocks      Used Available Use% Mounted on
/dev/sda1             16126920   3867324  11440396  26% /
GAMESS temporary binary files will be written to /scratch
GAMESS supplementary output files will be written to /home/sarom/restart
Copying input file guga-inh2-grad.inp to your run's scratch directory...
cp tests/ci/guga-inh2-grad.inp /scratch/guga-inh2-grad.F05
unset echo
The generated host list is
compute-0-6.local
/home/sarom/gamess.github.2017-05-31.14.06/ddikick.x /home/sarom/gamess.github.2017-05-31.14.06/gamess.00.x guga-inh2-grad -ddi 1 1 compute-0-6.local -scr /scratch

 Distributed Data Interface kickoff program.
 Initiating 1 compute processes on 1 nodes to run the following command:
 /home/sarom/gamess.github.2017-05-31.14.06/gamess.00.x guga-inh2-grad 

          ******************************************************
          *         GAMESS VERSION = 20 APR 2017 (R1)          *
          *             FROM IOWA STATE UNIVERSITY             *
          * M.W.SCHMIDT, K.K.BALDRIDGE, J.A.BOATZ, S.T.ELBERT, *
          *   M.S.GORDON, J.H.JENSEN, S.KOSEKI, N.MATSUNAGA,   *
          *          K.A.NGUYEN, S.J.SU, T.L.WINDUS,           *
          *       TOGETHER WITH M.DUPUIS, J.A.MONTGOMERY       *
          *         J.COMPUT.CHEM.  14, 1347-1363(1993)        *
          **************** 64 BIT LINUX VERSION ****************

  SINCE 1993, STUDENTS AND POSTDOCS WORKING AT IOWA STATE UNIVERSITY
  AND ALSO IN THEIR VARIOUS JOBS AFTER LEAVING ISU HAVE MADE IMPORTANT
  CONTRIBUTIONS TO THE CODE:
     IVANA ADAMOVIC, CHRISTINE AIKENS, YURI ALEXEEV, POOJA ARORA,
     ANDREY ASADCHEV, ROB BELL, PRADIPTA BANDYOPADHYAY, JONATHAN BENTZ,
     BRETT BODE, KURT BRORSEN, CALEB CARLIN, GALINA CHABAN, WEI CHEN,
     CHEOL HO CHOI, PAUL DAY, ALBERT DEFUSCO, NUWAN DESILVA, TIM DUDLEY,
     DMITRI FEDOROV, GRAHAM FLETCHER, MARK FREITAG, KURT GLAESEMANN,
     DAN KEMP, GRANT MERRILL, NORIYUKI MINEZAWA, JONATHAN MULLIN,
     TAKESHI NAGATA, SEAN NEDD, HEATHER NETZLOFF, BOSILJKA NJEGIC, RYAN OLSON,
     MIKE PAK, SPENCER PRUITT, LUKE ROSKOP, JIM SHOEMAKER, LYUDMILA SLIPCHENKO,
     TONY SMITH, SAROM SOK LEANG, JIE SONG, TETSUYA TAKETSUGU, SIMON WEBB,
     PENG XU, SOOHAENG YOO, FEDERICO ZAHARIEV

  ADDITIONAL CODE HAS BEEN PROVIDED BY COLLABORATORS IN OTHER GROUPS:
     IOWA STATE UNIVERSITY:
          JOE IVANIC, AARON WEST, LAIMUTIS BYTAUTAS, KLAUS RUEDENBERG
     UNIVERSITY OF TOKYO: KIMIHIKO HIRAO, TAKAHITO NAKAJIMA,
          TAKAO TSUNEDA, MUNEAKI KAMIYA, SUSUMU YANAGISAWA,
          KIYOSHI YAGI, MAHITO CHIBA, SEIKEN TOKURA, NAOAKI KAWAKAMI
     UNIVERSITY OF AARHUS: FRANK JENSEN
     UNIVERSITY OF IOWA: VISVALDAS KAIRYS, HUI LI
     NATIONAL INST. OF STANDARDS AND TECHNOLOGY: WALT STEVENS, DAVID GARMER
     UNIVERSITY OF PISA: BENEDETTA MENNUCCI, JACOPO TOMASI
     UNIVERSITY OF MEMPHIS: HENRY KURTZ, PRAKASHAN KORAMBATH
     UNIVERSITY OF ALBERTA: TOBY ZENG, MARIUSZ KLOBUKOWSKI
     UNIVERSITY OF NEW ENGLAND: MARK SPACKMAN
     MIE UNIVERSITY: HIROAKI UMEDA
     NAT. INST. OF ADVANCED INDUSTRIAL SCIENCE AND TECHNOLOGY: KAZUO KITAURA
     MICHIGAN STATE UNIVERSITY:
          KAROL KOWALSKI, MARTA WLOCH, JEFFREY GOUR, JESSE LUTZ,
          WEI LI, PIOTR PIECUCH
     UNIVERSITY OF SILESIA: MONIKA MUSIAL, STANISLAW KUCHARSKI
     FACULTES UNIVERSITAIRES NOTRE-DAME DE LA PAIX:
          OLIVIER QUINET, BENOIT CHAMPAGNE
     UNIVERSITY OF CALIFORNIA - SANTA BARBARA: BERNARD KIRTMAN
     INSTITUTE FOR MOLECULAR SCIENCE:
          KAZUYA ISHIMURA, MICHIO KATOUDA, AND SHIGERU NAGASE
     UNIVERSITY OF NOTRE DAME: ANNA POMOGAEVA, DAN CHIPMAN
     KYUSHU UNIVERSITY:
          HARUYUKI NAKANO,
          FENG LONG GU, JACEK KORCHOWIEC, MARCIN MAKOWSKI, AND YURIKO AOKI,
          HIROTOSHI MORI AND EISAKU MIYOSHI
     PENNSYLVANIA STATE UNIVERSITY:
          TZVETELIN IORDANOV, CHET SWALINA, JONATHAN SKONE,
          SHARON HAMMES-SCHIFFER
     WASEDA UNIVERSITY:
          MASATO KOBAYASHI, TOMOKO AKAMA, TSUGUKI TOUMA,
          TAKESHI YOSHIKAWA, YASUHIRO IKABATA, JUNJI SEINO,
          YUYA NAKAJIMA, HIROMI NAKAI
     NANJING UNIVERSITY: SHUHUA LI
     UNIVERSITY OF NEBRASKA:
          PEIFENG SU, DEJUN SI, NANDUN THELLAMUREGE, YALI WANG, HUI LI
     UNIVERSITY OF ZURICH: ROBERTO PEVERATI, KIM BALDRIDGE
     N. COPERNICUS UNIVERSITY AND JACKSON STATE UNIVERSITY:
          MARIA BARYSZ
     UNIVERSITY OF COPENHAGEN: Jimmy Kromann, CASPER STEINMANN
     TOKYO INSTITUTE OF TECHNOLOGY: HIROYA NAKATA
     NAGOYA UNIVERSITY: YOSHIO NISHIMOTO, STEPHAN IRLE
     MOSCOW STATE UNIVERSITY: VLADIMIR MIRONOV

 EXECUTION OF GAMESS BEGUN Fri Jun  2 00:44:42 2017

            ECHO OF THE FIRST FEW INPUT CARDS -
 INPUT CARD>!  This artificial anion, InH2-, is meant to be a short test of                 
 INPUT CARD>!  ECP CI gradients for a case with a semi-core ECP basis set.                  
 INPUT CARD>!  There are extra complications from ECP, so it is good to keep                
 INPUT CARD>!  this test case as well, as the non-ECP gradients.                            
 INPUT CARD>!  There are 38 AOs, and 1009 configurations in the CI-SD.                      
 INPUT CARD>!                                                                               
 INPUT CARD>!      NSERCH:   0  E=     -189.4241465219, R.M.S.=  0.0012192                  
 INPUT CARD>!      NSERCH:   1  E=     -189.4241489228, R.M.S.=  0.0007540                  
 INPUT CARD>!      NSERCH:   2  E=     -189.4241848774, R.M.S.=  0.0005093                  
 INPUT CARD>!      NSERCH:   3  E=     -189.4241963869, R.M.S.=  0.0001234                  
 INPUT CARD>!      NSERCH:   4  E=     -189.4241969028, R.M.S.=  0.0000148                  
 INPUT CARD>!      NSERCH:   5  E=     -189.4241969141, R.M.S.=  0.0000005                  
 INPUT CARD>!                                                                               
 INPUT CARD>!  This run takes 4 seconds on a 2.66 GHz Cloverton (18 Jun 2014)               
 INPUT CARD>!  answers haven't changed since 2009 (and probably a decade before that)       
 INPUT CARD>!                                                                               
 INPUT CARD> $contrl scftyp=rhf cityp=guga runtyp=optimize pp=sbkjc icharg=-1 $end          
 INPUT CARD> $system mwords=1 $end                                                          
 INPUT CARD> $statpt opttol=0.00001 $end                                                    
 INPUT CARD> $cidrt  group=c2v nfzc=9 ndoc=3 nval=26 iexcit=2 $end                          
 INPUT CARD> $basis  gbasis=sbkjc $end                                                      
 INPUT CARD> $guess  guess=huckel $end                                                      
 INPUT CARD> $data                                                                          
 INPUT CARD>InH2- ion                                                                       
 INPUT CARD>Cnv 2                                                                           
 INPUT CARD>                                                                                
 INPUT CARD>In    49.0    .0000000000    .0000000000   -.5570192213                         
 INPUT CARD>H      1.0    .0000000000   1.3931525578    .7800454108                         
 INPUT CARD> $end                                                                           
    1000000 WORDS OF MEMORY AVAILABLE

     BASIS OPTIONS
     -------------
     GBASIS=SBKJC        IGAUSS=       0      POLAR=NONE    
     NDFUNC=       0     NFFUNC=       0     DIFFSP=       F
     NPFUNC=       0      DIFFS=       F     BASNAM=        


     RUN TITLE
     ---------
 InH2- ion                                                                       

 THE POINT GROUP OF THE MOLECULE IS CNV     
 THE ORDER OF THE PRINCIPAL AXIS IS     2

 ATOM      ATOMIC                      COORDINATES (BOHR)
           CHARGE         X                   Y                   Z
 IN         49.0     0.0000000000        0.0000000000       -1.0526136982
 H           1.0    -0.0000000000       -2.6326765933        1.4740720844
 H           1.0     0.0000000000        2.6326765933        1.4740720844

          INTERNUCLEAR DISTANCES (ANGS.)
          ------------------------------

                1 IN         2 H          3 H     

   1 IN      0.0000000    1.9309624 *  1.9309624 *
   2 H       1.9309624 *  0.0000000    2.7863051 *
   3 H       1.9309624 *  2.7863051 *  0.0000000  

  * ... LESS THAN  3.000


     ATOMIC BASIS SET
     ----------------
 THE CONTRACTED PRIMITIVE FUNCTIONS HAVE BEEN UNNORMALIZED
 THE CONTRACTED BASIS FUNCTIONS ARE NOW NORMALIZED TO UNITY

  SHELL TYPE  PRIMITIVE        EXPONENT          CONTRACTION COEFFICIENT(S)

 IN        

      1   L       1            71.7600000    0.000733000197   -0.004512997962
      1   L       2             7.6540000    1.089781292156    0.031614985726
      1   L       3             5.6160000   -2.731089732168   -0.338005847388
      1   L       4             2.1040000    2.112844566425    1.213463452114

      2   D       5            17.1600000    0.014892998542
      2   D       6             3.1270000    0.388134962005
      2   D       7             1.4750000    0.662638935134

      3   L       8             0.0826700    1.000000000000    1.000000000000

      4   L       9             2.6100000   -0.099690000694   -0.110317052469
      4   L      10             0.1901000    1.031230007182    1.013900482234

      5   L      11             0.8410000    1.000000000000    1.000000000000

      6   D      12             0.6452000    1.000000000000

      7   D      13             0.2754000    1.000000000000

 H         

     10   S      14            13.0077340    0.033494604338
     10   S      15             1.9620794    0.234726953484
     10   S      16             0.4445290    0.813757326146

     11   S      17             0.1219492    1.000000000000

 TOTAL NUMBER OF BASIS SET SHELLS             =   11
 NUMBER OF CARTESIAN GAUSSIAN BASIS FUNCTIONS =   38
 NUMBER OF ELECTRONS                          =   52
 CHARGE OF MOLECULE                           =   -1
 SPIN MULTIPLICITY                            =    1
 NUMBER OF OCCUPIED ORBITALS (ALPHA)          =   26
 NUMBER OF OCCUPIED ORBITALS (BETA )          =   26
 TOTAL NUMBER OF ATOMS                        =    3
 THE NUCLEAR REPULSION ENERGY IS       27.0466683836
 NOTE THIS RUN IS USING CORE POTENTIALS, AND THE NUMBER OF ELECTRONS,
 OCCUPIED ORBITALS, AND NUCLEAR REPULSION ENERGY WILL BE ADJUSTED BELOW
 AFTER REMOVAL OF THE CORE CHARGES.

     $CONTRL OPTIONS
     ---------------
 SCFTYP=RHF          RUNTYP=OPTIMIZE     EXETYP=RUN     
 MPLEVL=       0     CITYP =GUGA         CCTYP =NONE         VBTYP =NONE    
 DFTTYP=NONE         TDDFT =NONE    
 MULT  =       1     ICHARG=      -1     NZVAR =       0     COORD =UNIQUE  
 PP    =SBKJC        RELWFN=NONE         LOCAL =NONE         NUMGRD=       F
 ISPHER=      -1     NOSYM =       0     MAXIT =      30     UNITS =ANGS    
 PLTORB=       F     MOLPLT=       F     AIMPAC=       F     FRIEND=        
 NPRINT=       7     IREST =       0     GEOM  =INPUT   
 NORMF =       0     NORMP =       0     ITOL  =      20     ICUT  =       9
 INTTYP=BEST         GRDTYP=BEST         QMTTOL= 1.0E-06

     $SYSTEM OPTIONS
     ---------------
  REPLICATED MEMORY=     1000000 WORDS (ON EVERY NODE).
 DISTRIBUTED MEMDDI=           0 MILLION WORDS IN AGGREGATE,
 MEMDDI DISTRIBUTED OVER   1 PROCESSORS IS           0 WORDS/PROCESSOR.
 TOTAL MEMORY REQUESTED ON EACH PROCESSOR=     1000000 WORDS.
 TIMLIM=      525600.00 MINUTES, OR     365.0 DAYS.
 PARALL= F  BALTYP=  DLB     KDIAG=    0  COREFL= F
 MXSEQ2=     300 MXSEQ3=     150  mem10=         0

          --------------
          ECP POTENTIALS
          --------------

 PARAMETERS FOR "SBKJC-49" ON ATOM    1 WITH ZCORE  28 AND LMAX  3 ARE
 FOR L= 3      COEFF    N           ZETA
    1       -8.84031    1       10.58987
 FOR L= 0      COEFF    N           ZETA
    1        6.90124    0        1.73883
    2      -68.48319    2        3.62806
    3      101.77272    2        5.30270
 FOR L= 1      COEFF    N           ZETA
    1        3.98554    0        1.43045
    2     -129.78594    2        3.74447
    3      171.90487    2        4.47679
 FOR L= 2      COEFF    N           ZETA
    1        3.49244    0       29.16072
    2       68.27816    2        7.26566

 THE ECP RUN REMOVES   28 CORE ELECTRONS, AND THE SAME NUMBER OF PROTONS.
 NUMBER OF ELECTRONS KEPT IN THE CALCULATION IS =   24
 NUMBER OF OCCUPIED ORBITALS (ALPHA) KEPT IS    =   12
 NUMBER OF OCCUPIED ORBITALS (BETA ) KEPT IS    =   12
 THE ADJUSTED NUCLEAR REPULSION ENERGY=       11.6999554690
          ECP ANGULAR INTS.........     0.00 SECONDS

          ----------------
          PROPERTIES INPUT
          ----------------

     MOMENTS            FIELD           POTENTIAL          DENSITY
 IEMOM =       1   IEFLD =       0   IEPOT =       0   IEDEN =       0
 WHERE =COMASS     WHERE =NUCLEI     WHERE =NUCLEI     WHERE =NUCLEI  
 OUTPUT=BOTH       OUTPUT=BOTH       OUTPUT=BOTH       OUTPUT=BOTH    
 IEMINT=       0   IEFINT=       0                     IEDINT=       0
                                                       MORB  =       0
          EXTRAPOLATION IN EFFECT
          SOSCF IN EFFECT
 ORBITAL PRINTING OPTION: NPREO=     1    38     2     1

     -------------------------------
     INTEGRAL TRANSFORMATION OPTIONS
     -------------------------------
     NWORD  =            0
     CUTOFF = 1.0E-09     MPTRAN =       0
     DIRTRF =       F     AOINTS =DUP     

          ----------------------
          INTEGRAL INPUT OPTIONS
          ----------------------
 NOPK  =       1 NORDER=       0 SCHWRZ=       F

     ------------------------------------------
     THE POINT GROUP IS CNV, NAXIS= 2, ORDER= 4
     ------------------------------------------

     DIMENSIONS OF THE SYMMETRY SUBSPACES ARE
 A1  =   19     A2  =    3     B1  =    7     B2  =    9

 ..... DONE SETTING UP THE RUN .....
 STEP CPU TIME =     0.02 TOTAL CPU TIME =        0.0 (    0.0 MIN)
 TOTAL WALL CLOCK TIME=        0.0 SECONDS, CPU UTILIZATION IS  66.67%


          -----------------------------
          STATIONARY POINT LOCATION RUN
          -----------------------------

 OBTAINING INITIAL HESSIAN, HESS=GUESS   
 CARTESIAN COORDINATE OPTIMIZATION USING BADGER'S RULE FORCE CONSTANT GUESS

          PARAMETERS CONTROLLING GEOMETRY SEARCH ARE
          METHOD =QA                  UPHESS =BFGS    
          NNEG   =         0          NFRZ   =         0
          NSTEP  =        50          IFOLOW =         1
          HESS   =GUESS               RESTAR =         F
          IHREP  =         0          HSSEND =         F
          NPRT   =         0          NPUN   =         0
          OPTTOL = 1.000E-05          RMIN   = 1.500E-03
          RMAX   = 1.000E-01          RLIM   = 7.000E-02
          DXMAX  = 3.000E-01          PURIFY =         F
          MOVIE  =         F          TRUPD  =         T
          TRMAX  = 5.000E-01          TRMIN  = 5.000E-02
          ITBMAT =         5          STPT   =         F
          STSTEP = 1.000E-02          PROJCT=          T

 BEGINNING GEOMETRY SEARCH POINT NSERCH=   0 ...

 COORDINATES OF SYMMETRY UNIQUE ATOMS (ANGS)
   ATOM   CHARGE       X              Y              Z
 ------------------------------------------------------------
 IN         49.0   0.0000000000   0.0000000000  -0.5570192213
 H           1.0   0.0000000000   1.3931525578   0.7800454108
 COORDINATES OF ALL ATOMS ARE (ANGS)
   ATOM   CHARGE       X              Y              Z
 ------------------------------------------------------------
 IN         49.0   0.0000000000   0.0000000000  -0.5570192213
 H           1.0  -0.0000000000  -1.3931525578   0.7800454108
 H           1.0   0.0000000000   1.3931525578   0.7800454108

          ********************
          1 ELECTRON INTEGRALS
          ********************
 TIME TO DO ORDINARY INTEGRALS=      0.00
 TIME TO DO      ECP INTEGRALS=      0.00
 ...... END OF ONE-ELECTRON INTEGRALS ......
 STEP CPU TIME =     0.00 TOTAL CPU TIME =        0.0 (    0.0 MIN)
 TOTAL WALL CLOCK TIME=        0.0 SECONDS, CPU UTILIZATION IS  66.67%

          -------------
          GUESS OPTIONS
          -------------
          GUESS =HUCKEL            NORB  =       0          NORDER=       0
          MIX   =       F          PRTMO =       F          PUNMO =       F
          TOLZ  = 1.0E-08          TOLE  = 1.0E-05
          SYMDEN=       F          PURIFY=       F

 INITIAL GUESS ORBITALS GENERATED BY HUCKEL   ROUTINE.
 HUCKEL GUESS REQUIRES     16972 WORDS.

 SYMMETRIES FOR INITIAL GUESS ORBITALS FOLLOW.   BOTH SET(S).
    12 ORBITALS ARE OCCUPIED (    4 CORE ORBITALS).
     5=B2       6=A1       7=A2       8=B1       9=A1      10=A1      11=B2  
    12=A1      13=B1      14=B2      15=A1      16=A1      17=A1      18=A1  
    19=A1      20=A1      21=A1      22=A1  
 ...... END OF INITIAL ORBITAL SELECTION ......
 STEP CPU TIME =     0.00 TOTAL CPU TIME =        0.0 (    0.0 MIN)
 TOTAL WALL CLOCK TIME=        0.0 SECONDS, CPU UTILIZATION IS  66.67%

                    ----------------------
                    AO INTEGRAL TECHNOLOGY
                    ----------------------
     S,P,L SHELL ROTATED AXIS INTEGRALS, REPROGRAMMED BY
        KAZUYA ISHIMURA (IMS) AND JOSE SIERRA (SYNSTAR).
     S,P,D,L SHELL ROTATED AXIS INTEGRALS PROGRAMMED BY
        KAZUYA ISHIMURA (INSTITUTE FOR MOLECULAR SCIENCE).
     S,P,D,F,G SHELL TO TOTAL QUARTET ANGULAR MOMENTUM SUM 5,
        ERIC PROGRAM BY GRAHAM FLETCHER (ELORET AND NASA ADVANCED
        SUPERCOMPUTING DIVISION, AMES RESEARCH CENTER).
     S,P,D,F,G,L SHELL GENERAL RYS QUADRATURE PROGRAMMED BY
        MICHEL DUPUIS (PACIFIC NORTHWEST NATIONAL LABORATORY).

          --------------------
          2 ELECTRON INTEGRALS
          --------------------

 THE -PK- OPTION IS OFF, THE INTEGRALS ARE NOT IN SUPERMATRIX FORM.
 STORING   15000 INTEGRALS/RECORD ON DISK, USING 12 BYTES/INTEGRAL.
 TWO ELECTRON INTEGRAL EVALUATION REQUIRES   90462 WORDS OF MEMORY.
 II,JST,KST,LST =  1  1  1  1 NREC =         1 INTLOC =    1
 II,JST,KST,LST =  2  1  1  1 NREC =         1 INTLOC =   17
 II,JST,KST,LST =  3  1  1  1 NREC =         1 INTLOC =  269
 II,JST,KST,LST =  4  1  1  1 NREC =         1 INTLOC =  880
 II,JST,KST,LST =  5  1  1  1 NREC =         1 INTLOC = 2257
 II,JST,KST,LST =  6  1  1  1 NREC =         1 INTLOC = 4868
 II,JST,KST,LST =  7  1  1  1 NREC =         1 INTLOC =12014
 II,JST,KST,LST =  8  1  1  1 NREC =         2 INTLOC =10415
 II,JST,KST,LST =  9  1  1  1 NREC =         2 INTLOC =10415
 II,JST,KST,LST = 10  1  1  1 NREC =         2 INTLOC =10415
 II,JST,KST,LST = 11  1  1  1 NREC =         3 INTLOC = 7724
 TOTAL NUMBER OF NONZERO TWO-ELECTRON INTEGRALS =               52453
          4 INTEGRAL RECORDS WERE STORED ON DISK FILE  8.
  ...... END OF TWO-ELECTRON INTEGRALS .....
 STEP CPU TIME =     0.03 TOTAL CPU TIME =        0.0 (    0.0 MIN)
 TOTAL WALL CLOCK TIME=        0.1 SECONDS, CPU UTILIZATION IS  83.33%

          --------------------------
                 RHF SCF CALCULATION
          --------------------------

     NUCLEAR ENERGY =        11.6999554690
     MAXIT =   30     NPUNCH=    2
     EXTRAP=T  DAMP=F  SHIFT=F  RSTRCT=F  DIIS=F  DEM=F  SOSCF=T
     DENSITY MATRIX CONV=  1.00E-06
     SOSCF WILL OPTIMIZE     312 ORBITAL ROTATIONS, SOGTOL=   0.250
     MEMORY REQUIRED FOR RHF ITERS=     41888 WORDS.

 ITER EX DEM     TOTAL ENERGY        E CHANGE  DENSITY CHANGE     ORB. GRAD
   1  0  0     -188.1038895162  -188.1038895162  58.952048821   0.000000000
          ---------------START SECOND ORDER SCF---------------
   2  1  0     -189.2074703985    -1.1035808823   1.329948571   0.173854148
   3  2  0     -189.2823433827    -0.0748729842   0.782567172   0.105982854
   4  3  0     -189.3535540154    -0.0712106328   0.037106836   0.006084739
   5  4  0     -189.3538486514    -0.0002946360   0.004483298   0.000553542
   6  5  0     -189.3538543646    -0.0000057132   0.002806285   0.000121526
   7  6  0     -189.3538547525    -0.0000003879   0.000348683   0.000020045
   8  7  0     -189.3538547568    -0.0000000043   0.000054252   0.000003936
   9  8  0     -189.3538547570    -0.0000000002   0.000009003   0.000000590
  10  9  0     -189.3538547571    -0.0000000000   0.000003653   0.000000183
  11 10  0     -189.3538547571    -0.0000000000   0.000000296   0.000000038
  12 11  0     -189.3538547571    -0.0000000000   0.000000057   0.000000010

          -----------------
          DENSITY CONVERGED
          -----------------
     TIME TO FORM FOCK OPERATORS=       0.0 SECONDS (       0.0 SEC/ITER)
     TIME TO SOLVE SCF EQUATIONS=       0.0 SECONDS (       0.0 SEC/ITER)

 FINAL RHF ENERGY IS     -189.3538547571 AFTER  12 ITERATIONS

          ------------
          EIGENVECTORS
          ------------

                      1          2          3          4          5
                   -5.0542    -3.3319    -3.3250    -3.3219    -0.7685
                     A1         B1         B2         A1         A1  
    1  IN 1  S    0.411558  -0.000000   0.000000  -0.003974  -0.001646
    2  IN 1  X   -0.000000   0.579602   0.000000  -0.000000  -0.000000
    3  IN 1  Y   -0.000000  -0.000000   0.582002  -0.000000  -0.000000
    4  IN 1  Z    0.003404  -0.000000   0.000000   0.582907   0.000890
    5  IN 1 XX    0.018259  -0.000000   0.000000  -0.003334   0.660190
    6  IN 1 YY    0.017173  -0.000000   0.000000  -0.002040  -0.412422
    7  IN 1 ZZ    0.016667  -0.000000   0.000000   0.002645  -0.251281
    8  IN 1 XY   -0.000000  -0.000000   0.000000  -0.000000  -0.000000
    9  IN 1 XZ   -0.000000   0.002741   0.000000  -0.000000  -0.000000
   10  IN 1 YZ   -0.000000  -0.000000   0.004244  -0.000000  -0.000000
   11  IN 1  S   -0.013532  -0.000000   0.000000  -0.003932   0.011286
   12  IN 1  X   -0.000000  -0.009767   0.000000  -0.000000  -0.000000
   13  IN 1  Y   -0.000000  -0.000000  -0.009799  -0.000000  -0.000000
   14  IN 1  Z   -0.000913  -0.000000   0.000000  -0.010002   0.011349
   15  IN 1  S    0.156828  -0.000000   0.000000   0.026963   0.012775
   16  IN 1  X   -0.000000   0.035289   0.000000  -0.000000  -0.000000
   17  IN 1  Y   -0.000000  -0.000000   0.034207  -0.000000  -0.000000
   18  IN 1  Z    0.000400  -0.000000   0.000000   0.033688  -0.002981
   19  IN 1  S    0.560335  -0.000000   0.000000  -0.007803  -0.004279
   20  IN 1  X   -0.000000   0.457049   0.000000  -0.000000  -0.000000
   21  IN 1  Y   -0.000000  -0.000000   0.454876  -0.000000  -0.000000
   22  IN 1  Z    0.004011  -0.000000   0.000000   0.454099   0.002487
   23  IN 1 XX   -0.021056  -0.000000   0.000000  -0.004099   0.345725
   24  IN 1 YY   -0.022404  -0.000000   0.000000  -0.004772  -0.213137
   25  IN 1 ZZ   -0.023001  -0.000000   0.000000  -0.000981  -0.129291
   26  IN 1 XY   -0.000000  -0.000000   0.000000  -0.000000  -0.000000
   27  IN 1 XZ   -0.000000   0.002199   0.000000  -0.000000  -0.000000
   28  IN 1 YZ   -0.000000  -0.000000   0.001203  -0.000000  -0.000000
   29  IN 1 XX   -0.033769  -0.000000   0.000000  -0.006012   0.124174
   30  IN 1 YY   -0.033698  -0.000000   0.000000  -0.006359  -0.085634
   31  IN 1 ZZ   -0.033567  -0.000000   0.000000  -0.007098  -0.053961
   32  IN 1 XY   -0.000000  -0.000000   0.000000  -0.000000  -0.000000
   33  IN 1 XZ   -0.000000  -0.000436   0.000000  -0.000000  -0.000000
   34  IN 1 YZ   -0.000000  -0.000000  -0.000508  -0.000000  -0.000000
   35  H  2  S   -0.000267  -0.000000   0.000299  -0.000239  -0.016328
   36  H  2  S    0.000968  -0.000000  -0.000985   0.001390  -0.013589
   37  H  3  S   -0.000267  -0.000000  -0.000299  -0.000239  -0.016328
   38  H  3  S    0.000968  -0.000000   0.000985   0.001390  -0.013589

                      6          7          8          9         10
                   -0.7650    -0.7614    -0.7588    -0.7528    -0.2743
                     A2         B1         B2         A1         A1  
    1  IN 1  S   -0.000000   0.000000   0.000000   0.001242  -0.097919
    2  IN 1  X   -0.000000  -0.005117   0.000000   0.000000  -0.000000
    3  IN 1  Y   -0.000000   0.000000  -0.003039   0.000000  -0.000000
    4  IN 1  Z   -0.000000   0.000000   0.000000  -0.005327  -0.030064
    5  IN 1 XX   -0.000000   0.000000   0.000000  -0.092720  -0.001130
    6  IN 1 YY   -0.000000   0.000000   0.000000  -0.529110  -0.065107
    7  IN 1 ZZ   -0.000000   0.000000   0.000000   0.623826  -0.058173
    8  IN 1 XY    0.670284   0.000000   0.000000   0.000000  -0.000000
    9  IN 1 XZ   -0.000000   0.670829   0.000000   0.000000  -0.000000
   10  IN 1 YZ   -0.000000   0.000000   0.666475   0.000000  -0.000000
   11  IN 1  S   -0.000000   0.000000   0.000000   0.003080   0.395960
   12  IN 1  X   -0.000000  -0.002838   0.000000   0.000000  -0.000000
   13  IN 1  Y   -0.000000   0.000000  -0.015593   0.000000  -0.000000
   14  IN 1  Z   -0.000000   0.000000   0.000000  -0.003134  -0.007090
   15  IN 1  S   -0.000000   0.000000   0.000000  -0.010975   0.708681
   16  IN 1  X   -0.000000   0.003277   0.000000   0.000000  -0.000000
   17  IN 1  Y   -0.000000   0.000000   0.005065   0.000000  -0.000000
   18  IN 1  Z   -0.000000   0.000000   0.000000   0.003362   0.074051
   19  IN 1  S   -0.000000   0.000000   0.000000   0.002259  -0.298871
   20  IN 1  X   -0.000000   0.000180   0.000000   0.000000  -0.000000
   21  IN 1  Y   -0.000000   0.000000  -0.004190   0.000000  -0.000000
   22  IN 1  Z   -0.000000   0.000000   0.000000   0.000005  -0.027303
   23  IN 1 XX   -0.000000   0.000000   0.000000  -0.047802  -0.037809
   24  IN 1 YY   -0.000000   0.000000   0.000000  -0.271706  -0.074754
   25  IN 1 ZZ   -0.000000   0.000000   0.000000   0.319815  -0.071045
   26  IN 1 XY    0.347760   0.000000   0.000000   0.000000  -0.000000
   27  IN 1 XZ   -0.000000   0.346954   0.000000   0.000000  -0.000000
   28  IN 1 YZ   -0.000000   0.000000   0.343347   0.000000  -0.000000
   29  IN 1 XX   -0.000000   0.000000   0.000000  -0.017171  -0.122250
   30  IN 1 YY   -0.000000   0.000000   0.000000  -0.103500  -0.106567
   31  IN 1 ZZ   -0.000000   0.000000   0.000000   0.124838  -0.107162
   32  IN 1 XY    0.131791   0.000000   0.000000   0.000000  -0.000000
   33  IN 1 XZ   -0.000000   0.132119   0.000000   0.000000  -0.000000
   34  IN 1 YZ   -0.000000   0.000000   0.131747   0.000000  -0.000000
   35  H  2  S   -0.000000   0.000000  -0.028622   0.000810   0.213712
   36  H  2  S   -0.000000   0.000000  -0.018348   0.000673   0.198307
   37  H  3  S   -0.000000   0.000000   0.028622   0.000810   0.213712
   38  H  3  S   -0.000000   0.000000   0.018348   0.000673   0.198307

                     11         12         13         14         15
                   -0.1365    -0.0346     0.2484     0.3458     0.3929
                     B2         A1         B1         B2         A1  
    1  IN 1  S    0.000000  -0.074363  -0.000000  -0.000000  -0.065636
    2  IN 1  X    0.000000  -0.000000  -0.143422  -0.000000   0.000000
    3  IN 1  Y    0.083722  -0.000000  -0.000000  -0.119735   0.000000
    4  IN 1  Z    0.000000   0.104842  -0.000000  -0.000000  -0.098229
    5  IN 1 XX    0.000000  -0.071285  -0.000000  -0.000000  -0.119353
    6  IN 1 YY    0.000000  -0.015082  -0.000000  -0.000000  -0.006054
    7  IN 1 ZZ    0.000000  -0.017399  -0.000000  -0.000000  -0.014508
    8  IN 1 XY    0.000000  -0.000000  -0.000000  -0.000000   0.000000
    9  IN 1 XZ    0.000000  -0.000000  -0.000298  -0.000000   0.000000
   10  IN 1 YZ    0.102023  -0.000000  -0.000000   0.093715   0.000000
   11  IN 1  S    0.000000   0.780988  -0.000000  -0.000000   1.280163
   12  IN 1  X    0.000000  -0.000000   1.020576  -0.000000   0.000000
   13  IN 1  Y   -0.169553  -0.000000  -0.000000   1.499420   0.000000
   14  IN 1  Z    0.000000  -0.416205  -0.000000  -0.000000   1.538100
   15  IN 1  S    0.000000   0.536151  -0.000000  -0.000000   0.844736
   16  IN 1  X    0.000000  -0.000000  -0.013736  -0.000000   0.000000
   17  IN 1  Y   -0.151630  -0.000000  -0.000000  -0.112344   0.000000
   18  IN 1  Z    0.000000  -0.132765  -0.000000  -0.000000  -0.103416
   19  IN 1  S    0.000000  -0.272359  -0.000000  -0.000000  -0.297052
   20  IN 1  X    0.000000  -0.000000  -0.054021  -0.000000   0.000000
   21  IN 1  Y    0.059157  -0.000000  -0.000000  -0.031129   0.000000
   22  IN 1  Z    0.000000   0.059850  -0.000000  -0.000000  -0.027066
   23  IN 1 XX    0.000000  -0.071375  -0.000000  -0.000000  -0.150592
   24  IN 1 YY    0.000000  -0.035838  -0.000000  -0.000000  -0.103251
   25  IN 1 ZZ    0.000000  -0.038157  -0.000000  -0.000000  -0.111225
   26  IN 1 XY    0.000000  -0.000000  -0.000000  -0.000000   0.000000
   27  IN 1 XZ    0.000000  -0.000000  -0.000930  -0.000000   0.000000
   28  IN 1 YZ    0.058919  -0.000000  -0.000000   0.028467   0.000000
   29  IN 1 XX    0.000000  -0.116342  -0.000000  -0.000000  -0.193015
   30  IN 1 YY    0.000000  -0.143966  -0.000000  -0.000000  -0.176438
   31  IN 1 ZZ    0.000000  -0.142066  -0.000000  -0.000000  -0.170149
   32  IN 1 XY    0.000000  -0.000000  -0.000000  -0.000000   0.000000
   33  IN 1 XZ    0.000000  -0.000000   0.001574  -0.000000   0.000000
   34  IN 1 YZ   -0.032912  -0.000000  -0.000000   0.035269   0.000000
   35  H  2  S    0.280828  -0.153674  -0.000000   0.105416  -0.080085
   36  H  2  S    0.358749  -0.256849  -0.000000   0.799046  -1.134692
   37  H  3  S   -0.280828  -0.153674  -0.000000  -0.105416  -0.080085
   38  H  3  S   -0.358749  -0.256849  -0.000000  -0.799046  -1.134692

                     16         17         18         19         20
                    0.5570     0.6980     0.7091     0.7287     0.9364
                     A1         B2         A1         B1         B2  
    1  IN 1  S    0.123418  -0.000000   0.021961  -0.000000   0.000000
    2  IN 1  X   -0.000000  -0.000000  -0.000000  -0.048852   0.000000
    3  IN 1  Y   -0.000000  -0.022344  -0.000000  -0.000000   0.060743
    4  IN 1  Z   -0.027193  -0.000000  -0.020517  -0.000000   0.000000
    5  IN 1 XX    0.053810  -0.000000   0.043717  -0.000000   0.000000
    6  IN 1 YY    0.124483  -0.000000  -0.007955  -0.000000   0.000000
    7  IN 1 ZZ    0.111504  -0.000000  -0.014314  -0.000000   0.000000
    8  IN 1 XY   -0.000000  -0.000000  -0.000000  -0.000000   0.000000
    9  IN 1 XZ   -0.000000  -0.000000  -0.000000  -0.007198   0.000000
   10  IN 1 YZ   -0.000000  -0.045486  -0.000000  -0.000000  -0.129544
   11  IN 1  S    3.460767  -0.000000   0.455613  -0.000000   0.000000
   12  IN 1  X   -0.000000  -0.000000  -0.000000  -1.458977   0.000000
   13  IN 1  Y   -0.000000  -1.164607  -0.000000  -0.000000   1.385208
   14  IN 1  Z    0.668627  -0.000000  -1.280009  -0.000000   0.000000
   15  IN 1  S   -2.494419  -0.000000  -0.184129  -0.000000   0.000000
   16  IN 1  X   -0.000000  -0.000000  -0.000000   1.883222   0.000000
   17  IN 1  Y   -0.000000   1.644358  -0.000000  -0.000000  -0.982227
   18  IN 1  Z   -0.105565  -0.000000   1.680544  -0.000000   0.000000
   19  IN 1  S   -0.132849  -0.000000   0.002070  -0.000000   0.000000
   20  IN 1  X   -0.000000  -0.000000  -0.000000  -0.305062   0.000000
   21  IN 1  Y   -0.000000  -0.264366  -0.000000  -0.000000   0.129339
   22  IN 1  Z   -0.000349  -0.000000  -0.265678  -0.000000   0.000000
   23  IN 1 XX    0.152873  -0.000000   0.065124  -0.000000   0.000000
   24  IN 1 YY    0.236634  -0.000000  -0.042461  -0.000000   0.000000
   25  IN 1 ZZ    0.222992  -0.000000  -0.038518  -0.000000   0.000000
   26  IN 1 XY   -0.000000  -0.000000  -0.000000  -0.000000   0.000000
   27  IN 1 XZ   -0.000000  -0.000000  -0.000000  -0.004442   0.000000
   28  IN 1 YZ   -0.000000  -0.092892  -0.000000  -0.000000  -0.304434
   29  IN 1 XX   -0.385013  -0.000000  -0.215968  -0.000000   0.000000
   30  IN 1 YY   -0.506231  -0.000000   0.039133  -0.000000   0.000000
   31  IN 1 ZZ   -0.480277  -0.000000   0.035573  -0.000000   0.000000
   32  IN 1 XY   -0.000000  -0.000000  -0.000000  -0.000000   0.000000
   33  IN 1 XZ   -0.000000  -0.000000  -0.000000   0.013940   0.000000
   34  IN 1 YZ   -0.000000   0.236970  -0.000000  -0.000000   0.775834
   35  H  2  S   -0.113916  -0.283965   0.284323  -0.000000  -0.659885
   36  H  2  S   -0.512196   0.423879  -0.352875  -0.000000   1.224594
   37  H  3  S   -0.113916   0.283965   0.284323  -0.000000   0.659885
   38  H  3  S   -0.512196  -0.423879  -0.352875  -0.000000  -1.224594

                     21         22         23         24         25
                    0.9644     0.9672     0.9707     0.9763     1.0975
                     A1         A2         B1         A1         A1  
    1  IN 1  S    0.056518   0.000000  -0.000000   0.004019   0.018709
    2  IN 1  X    0.000000   0.000000   0.004458   0.000000  -0.000000
    3  IN 1  Y    0.000000   0.000000  -0.000000   0.000000  -0.000000
    4  IN 1  Z    0.060316   0.000000  -0.000000   0.010308   0.042149
    5  IN 1 XX    0.103271   0.000000  -0.000000   0.027873  -0.241348
    6  IN 1 YY   -0.091987   0.000000  -0.000000   0.206961   0.126100
    7  IN 1 ZZ   -0.032099   0.000000  -0.000000  -0.240892   0.097244
    8  IN 1 XY    0.000000  -0.260326  -0.000000   0.000000  -0.000000
    9  IN 1 XZ    0.000000   0.000000  -0.260830   0.000000  -0.000000
   10  IN 1 YZ    0.000000   0.000000  -0.000000   0.000000  -0.000000
   11  IN 1  S    1.937391   0.000000  -0.000000   0.158219  -0.498445
   12  IN 1  X    0.000000   0.000000   0.015714   0.000000  -0.000000
   13  IN 1  Y    0.000000   0.000000  -0.000000   0.000000  -0.000000
   14  IN 1  Z    1.478533   0.000000  -0.000000   0.144424  -0.212291
   15  IN 1  S    0.132735   0.000000  -0.000000   0.024941   0.306294
   16  IN 1  X    0.000000   0.000000  -0.021045   0.000000  -0.000000
   17  IN 1  Y    0.000000   0.000000  -0.000000   0.000000  -0.000000
   18  IN 1  Z   -0.952700   0.000000  -0.000000  -0.104639  -0.073118
   19  IN 1  S   -0.140635   0.000000  -0.000000  -0.012621   0.091310
   20  IN 1  X    0.000000   0.000000   0.000218   0.000000  -0.000000
   21  IN 1  Y    0.000000   0.000000  -0.000000   0.000000  -0.000000
   22  IN 1  Z    0.118127   0.000000  -0.000000   0.010393   0.014433
   23  IN 1 XX    0.083980   0.000000  -0.000000   0.051483  -0.575883
   24  IN 1 YY   -0.348766   0.000000  -0.000000   0.434728   0.209623
   25  IN 1 ZZ   -0.226940   0.000000  -0.000000  -0.524578   0.145722
   26  IN 1 XY    0.000000  -0.561434  -0.000000   0.000000  -0.000000
   27  IN 1 XZ    0.000000   0.000000  -0.560429   0.000000  -0.000000
   28  IN 1 YZ    0.000000   0.000000  -0.000000   0.000000  -0.000000
   29  IN 1 XX   -0.966495   0.000000  -0.000000  -0.184272   1.291256
   30  IN 1 YY    0.125617   0.000000  -0.000000  -1.062373  -0.631702
   31  IN 1 ZZ   -0.167094   0.000000  -0.000000   1.155706  -0.476644
   32  IN 1 XY    0.000000   1.295251  -0.000000   0.000000  -0.000000
   33  IN 1 XZ    0.000000   0.000000   1.294707   0.000000  -0.000000
   34  IN 1 YZ    0.000000   0.000000  -0.000000   0.000000  -0.000000
   35  H  2  S    0.733841   0.000000  -0.000000   0.069365   0.529182
   36  H  2  S   -1.432320   0.000000  -0.000000  -0.128592  -0.099443
   37  H  3  S    0.733841   0.000000  -0.000000   0.069365   0.529182
   38  H  3  S   -1.432320   0.000000  -0.000000  -0.128592  -0.099443

                     26         27         28         29         30
                    1.2638     2.0098     3.3801     3.3849     3.3957
                     B2         A1         A2         B1         A1  
    1  IN 1  S    0.000000  -0.112121   0.000000   0.000000  -0.001717
    2  IN 1  X    0.000000  -0.000000   0.000000  -0.032238   0.000000
    3  IN 1  Y   -0.057303  -0.000000   0.000000   0.000000   0.000000
    4  IN 1  Z    0.000000   0.026116   0.000000   0.000000  -0.028352
    5  IN 1 XX    0.000000  -0.181360   0.000000   0.000000   0.049082
    6  IN 1 YY    0.000000  -0.180588   0.000000   0.000000   1.025494
    7  IN 1 ZZ    0.000000  -0.170241   0.000000   0.000000  -1.081399
    8  IN 1 XY    0.000000  -0.000000  -1.218895   0.000000   0.000000
    9  IN 1 XZ    0.000000  -0.000000   0.000000  -1.218331   0.000000
   10  IN 1 YZ   -0.245221  -0.000000   0.000000   0.000000   0.000000
   11  IN 1  S    0.000000   2.093535   0.000000   0.000000   0.021527
   12  IN 1  X    0.000000  -0.000000   0.000000   0.013360   0.000000
   13  IN 1  Y    0.125829  -0.000000   0.000000   0.000000   0.000000
   14  IN 1  Z    0.000000   0.298400   0.000000   0.000000   0.023680
   15  IN 1  S    0.000000  -2.051795   0.000000   0.000000   0.048028
   16  IN 1  X    0.000000  -0.000000   0.000000  -0.024157   0.000000
   17  IN 1  Y    0.109099  -0.000000   0.000000   0.000000   0.000000
   18  IN 1  Z    0.000000  -0.105342   0.000000   0.000000  -0.024977
   19  IN 1  S    0.000000  -0.268372   0.000000   0.000000  -0.010049
   20  IN 1  X    0.000000  -0.000000   0.000000   0.038048   0.000000
   21  IN 1  Y   -0.008385  -0.000000   0.000000   0.000000   0.000000
   22  IN 1  Z    0.000000  -0.012316   0.000000   0.000000   0.033674
   23  IN 1 XX    0.000000   1.234287   0.000000   0.000000  -0.083365
   24  IN 1 YY    0.000000   1.227550   0.000000   0.000000  -1.610346
   25  IN 1 ZZ    0.000000   1.219669   0.000000   0.000000   1.680771
   26  IN 1 XY    0.000000  -0.000000   1.900842   0.000000   0.000000
   27  IN 1 XZ    0.000000  -0.000000   0.000000   1.901021   0.000000
   28  IN 1 YZ   -0.473451  -0.000000   0.000000   0.000000   0.000000
   29  IN 1 XX    0.000000  -0.812310   0.000000   0.000000   0.016745
   30  IN 1 YY    0.000000  -0.770026   0.000000   0.000000   0.774242
   31  IN 1 ZZ    0.000000  -0.774524   0.000000   0.000000  -0.849408
   32  IN 1 XY    0.000000  -0.000000  -0.937037   0.000000   0.000000
   33  IN 1 XZ    0.000000  -0.000000   0.000000  -0.937488   0.000000
   34  IN 1 YZ    1.253735  -0.000000   0.000000   0.000000   0.000000
   35  H  2  S    0.701752   0.225711   0.000000   0.000000   0.001406
   36  H  2  S   -0.272150  -0.385799   0.000000   0.000000  -0.011106
   37  H  3  S   -0.701752   0.225711   0.000000   0.000000   0.001406
   38  H  3  S    0.272150  -0.385799   0.000000   0.000000  -0.011106

                     31         32         33         34         35
                    3.4411     3.5350     4.0032     4.0726     4.0803
                     A1         B2         B1         B2         A1  
    1  IN 1  S    0.003166  -0.000000  -0.000000   0.000000  -0.012307
    2  IN 1  X   -0.000000  -0.000000  -2.043316   0.000000   0.000000
    3  IN 1  Y   -0.000000   0.026770  -0.000000  -2.055846   0.000000
    4  IN 1  Z    0.036326  -0.000000  -0.000000   0.000000  -2.056042
    5  IN 1 XX   -1.236791  -0.000000  -0.000000   0.000000  -0.082173
    6  IN 1 YY    0.644031  -0.000000  -0.000000   0.000000  -0.052349
    7  IN 1 ZZ    0.552793  -0.000000  -0.000000   0.000000  -0.027634
    8  IN 1 XY   -0.000000  -0.000000  -0.000000   0.000000   0.000000
    9  IN 1 XZ   -0.000000  -0.000000   0.017943   0.000000   0.000000
   10  IN 1 YZ   -0.000000  -1.229369  -0.000000  -0.013918   0.000000
   11  IN 1  S    0.428548  -0.000000  -0.000000   0.000000   0.292775
   12  IN 1  X   -0.000000  -0.000000   0.674889   0.000000   0.000000
   13  IN 1  Y   -0.000000  -0.258919  -0.000000   0.793169   0.000000
   14  IN 1  Z    0.233069  -0.000000  -0.000000   0.000000   0.860009
   15  IN 1  S    0.165274  -0.000000  -0.000000   0.000000   1.148008
   16  IN 1  X   -0.000000  -0.000000  -1.318840   0.000000   0.000000
   17  IN 1  Y   -0.000000   0.057691  -0.000000  -1.380255   0.000000
   18  IN 1  Z   -0.030040  -0.000000  -0.000000   0.000000  -1.396130
   19  IN 1  S   -0.068329  -0.000000  -0.000000   0.000000  -0.162667
   20  IN 1  X   -0.000000  -0.000000   2.386754   0.000000   0.000000
   21  IN 1  Y   -0.000000  -0.020020  -0.000000   2.414132   0.000000
   22  IN 1  Z   -0.046818  -0.000000  -0.000000   0.000000   2.413856
   23  IN 1 XX    1.921022  -0.000000  -0.000000   0.000000  -0.114931
   24  IN 1 YY   -1.091480  -0.000000  -0.000000   0.000000  -0.168584
   25  IN 1 ZZ   -0.943411  -0.000000  -0.000000   0.000000  -0.212015
   26  IN 1 XY   -0.000000  -0.000000  -0.000000   0.000000   0.000000
   27  IN 1 XZ   -0.000000  -0.000000  -0.031290   0.000000   0.000000
   28  IN 1 YZ   -0.000000   2.033409  -0.000000   0.033658   0.000000
   29  IN 1 XX   -1.175342  -0.000000  -0.000000   0.000000  -0.411971
   30  IN 1 YY    0.443796  -0.000000  -0.000000   0.000000  -0.359006
   31  IN 1 ZZ    0.360254  -0.000000  -0.000000   0.000000  -0.337589
   32  IN 1 XY   -0.000000  -0.000000  -0.000000   0.000000   0.000000
   33  IN 1 XZ   -0.000000  -0.000000   0.016718   0.000000   0.000000
   34  IN 1 YZ   -0.000000  -1.186656  -0.000000  -0.025464   0.000000
   35  H  2  S   -0.054797  -0.137271  -0.000000  -0.144103   0.132676
   36  H  2  S   -0.195067  -0.149781  -0.000000   0.172351  -0.230273
   37  H  3  S   -0.054797   0.137271  -0.000000   0.144103   0.132676
   38  H  3  S   -0.195067   0.149781  -0.000000  -0.172351  -0.230273

                     36         37         38
                    6.7753    29.2318   261.5668
                     A1         A1         A1  
    1  IN 1  S   -1.368021   8.329453   8.534068
    2  IN 1  X   -0.000000  -0.000000   0.000000
    3  IN 1  Y   -0.000000  -0.000000   0.000000
    4  IN 1  Z    0.071509   0.022879   0.044615
    5  IN 1 XX   -1.011423 -14.646360 -21.145085
    6  IN 1 YY   -1.027464 -14.656187 -21.162590
    7  IN 1 ZZ   -1.024720 -14.655456 -21.161212
    8  IN 1 XY   -0.000000  -0.000000   0.000000
    9  IN 1 XZ   -0.000000  -0.000000   0.000000
   10  IN 1 YZ   -0.000000  -0.000000   0.000000
   11  IN 1  S   -3.521879  -5.286898  -8.916103
   12  IN 1  X   -0.000000  -0.000000   0.000000
   13  IN 1  Y   -0.000000  -0.000000   0.000000
   14  IN 1  Z   -0.217057  -0.144365  -0.300575
   15  IN 1  S   51.689746 105.563438 166.040547
   16  IN 1  X   -0.000000  -0.000000   0.000000
   17  IN 1  Y   -0.000000  -0.000000   0.000000
   18  IN 1  Z    0.111385   0.056438   0.115842
   19  IN 1  S   -6.701285   2.489142   5.035216
   20  IN 1  X   -0.000000  -0.000000   0.000000
   21  IN 1  Y   -0.000000  -0.000000   0.000000
   22  IN 1  Z   -0.092052  -0.030674  -0.060618
   23  IN 1 XX   -8.391563 -15.539182 -25.252613
   24  IN 1 YY   -8.348855 -15.509182 -25.196836
   25  IN 1 ZZ   -8.354281 -15.511474 -25.201232
   26  IN 1 XY   -0.000000  -0.000000   0.000000
   27  IN 1 XZ   -0.000000  -0.000000   0.000000
   28  IN 1 YZ   -0.000000  -0.000000   0.000000
   29  IN 1 XX  -12.304764 -26.635796 -41.410841
   30  IN 1 YY  -12.366007 -26.683712 -41.504572
   31  IN 1 ZZ  -12.360138 -26.679976 -41.497181
   32  IN 1 XY   -0.000000  -0.000000   0.000000
   33  IN 1 XZ   -0.000000  -0.000000   0.000000
   34  IN 1 YZ   -0.000000  -0.000000   0.000000
   35  H  2  S   -0.106578  -0.059765  -0.132937
   36  H  2  S    0.229904   0.156292   0.331390
   37  H  3  S   -0.106578  -0.059765  -0.132937
   38  H  3  S    0.229904   0.156292   0.331390
 ...... END OF RHF CALCULATION ......
 STEP CPU TIME =     0.01 TOTAL CPU TIME =        0.1 (    0.0 MIN)
 TOTAL WALL CLOCK TIME=        0.1 SECONDS, CPU UTILIZATION IS  85.71%

     ----------------------------------------------------------------
     PROPERTY VALUES FOR THE RHF   SELF-CONSISTENT FIELD WAVEFUNCTION
     ----------------------------------------------------------------

          -----------------
          ENERGY COMPONENTS
          -----------------

         WAVEFUNCTION NORMALIZATION =       1.0000000000

                ONE ELECTRON ENERGY =    -363.5377557237
                TWO ELECTRON ENERGY =     162.4839454977
           NUCLEAR REPULSION ENERGY =      11.6999554690
                                      ------------------
                       TOTAL ENERGY =    -189.3538547571

 ELECTRON-ELECTRON POTENTIAL ENERGY =     162.4839454977
  NUCLEUS-ELECTRON POTENTIAL ENERGY =    -435.7301649691
   NUCLEUS-NUCLEUS POTENTIAL ENERGY =      11.6999554690
                                      ------------------
             TOTAL POTENTIAL ENERGY =    -261.5462640024
               TOTAL KINETIC ENERGY =      72.1924092454
                 VIRIAL RATIO (V/T) =       3.6229053267

  ...... PI ENERGY ANALYSIS ......

 ENERGY ANALYSIS:
            FOCK ENERGY=    -38.5698646915
          BARE H ENERGY=   -363.5377557237
     ELECTRONIC ENERGY =   -201.0538102076
         KINETIC ENERGY=     72.1924092454
          N-N REPULSION=     11.6999554690
           TOTAL ENERGY=   -189.3538547386
        SIGMA PART(1+2)=   -144.8039195132
               (K,V1,2)=     47.5389919477   -308.2935877198    115.9506762589
           PI PART(1+2)=    -56.2498906944
               (K,V1,2)=     24.6534172977   -127.4365772494     46.5332692572
  SIGMA SKELETON, ERROR=   -133.1039640442      0.0000000000
             MIXED PART= 0.00000E+00 0.00000E+00 0.00000E+00 0.00000E+00
 ...... END OF PI ENERGY ANALYSIS ......

          ---------------------------------------
          MULLIKEN AND LOWDIN POPULATION ANALYSES
          ---------------------------------------

               ----- POPULATIONS IN EACH AO -----
                             MULLIKEN      LOWDIN
              1  IN 1  S      0.78784     0.52994
              2  IN 1  X      1.11360     1.05692
              3  IN 1  Y      1.13000     1.07586
              4  IN 1  Z      1.13830     1.08410
              5  IN 1 XX      0.85165     1.03029
              6  IN 1 YY      0.85652     1.03578
              7  IN 1 ZZ      0.85807     1.03620
              8  IN 1 XY      1.24361     1.14379
              9  IN 1 XZ      1.24479     1.14458
             10  IN 1 YZ      1.25255     1.15396
             11  IN 1  S      1.26331     0.68610
             12  IN 1  X     -0.00370     0.00695
             13  IN 1  Y      0.25225     0.36830
             14  IN 1  Z      0.66338     0.73515
             15  IN 1  S      1.47068     0.26579
             16  IN 1  X      0.02297     0.04233
             17  IN 1  Y      0.20580     0.24079
             18  IN 1  Z      0.23418     0.34730
             19  IN 1  S      1.04700     0.54850
             20  IN 1  X      0.86714     0.89381
             21  IN 1  Y      0.85590     0.89224
             22  IN 1  Z      0.85190     0.89213
             23  IN 1 XX      0.33052     0.52427
             24  IN 1 YY      0.31895     0.51398
             25  IN 1 ZZ      0.31689     0.51079
             26  IN 1 XY      0.60746     0.66819
             27  IN 1 XZ      0.60592     0.66736
             28  IN 1 YZ      0.60080     0.66458
             29  IN 1 XX     -0.13754     0.34045
             30  IN 1 YY     -0.12625     0.32436
             31  IN 1 ZZ     -0.12666     0.32365
             32  IN 1 XY      0.14893     0.18802
             33  IN 1 XZ      0.14927     0.18804
             34  IN 1 YZ      0.16988     0.23097
             35  H  2  S      0.64564     0.62566
             36  H  2  S      0.82140     0.69660
             37  H  3  S      0.64564     0.62566
             38  H  3  S      0.82140     0.69660

          ----- MULLIKEN ATOMIC OVERLAP POPULATIONS -----
          (OFF-DIAGONAL ELEMENTS NEED TO BE MULTIPLIED BY 2)

             1           2           3

    1   20.6468683
    2    0.2095321   1.2697465
    3    0.2095321  -0.0122449   1.2697465

          TOTAL MULLIKEN AND LOWDIN ATOMIC POPULATIONS
       ATOM         MULL.POP.    CHARGE          LOW.POP.     CHARGE
    1 IN           21.065933   -0.065933        21.355479   -0.355479
    2 H             1.467034   -0.467034         1.322260   -0.322260
    3 H             1.467034   -0.467034         1.322260   -0.322260

          ---------------------
          ELECTROSTATIC MOMENTS
          ---------------------

 POINT   1           X           Y           Z (BOHR)    CHARGE
                -0.000000    0.000000   -1.009055       -1.00 (A.U.)
         DX          DY          DZ         /D/  (DEBYE)
     0.000000   -0.000000   -2.072777    2.072777
 ...... END OF PROPERTY EVALUATION ......
 STEP CPU TIME =     0.00 TOTAL CPU TIME =        0.1 (    0.0 MIN)
 TOTAL WALL CLOCK TIME=        0.1 SECONDS, CPU UTILIZATION IS  85.71%

 GUGA CI OPTIONS      NRNFG     NPFLG
 ------------------------------------

 -DRT- TABLE          1         0
 TRANSFORMATION       1         0
 ENERGY MATRIX        1         0
 DIAGONALIZATION      1         0
 1E-DENSITY MATRIX    1         0
 2E-DENSITY MATRIX    1         0
 LAGRANGIAN MATRIX    1         0
------------------------------------

 -DRT- TABLE          0         0
 TRANSFORMATION   

          -----------------------     ----------------------------
          GUGA DISTINCT ROW TABLE     WRITTEN BY B.R.BROOKS,P.SAXE
          -----------------------     ----------------------------

      GROUP=C2V          NPRT=       0
       FORS=       F   INTACT=       F
       FOCI=       F   MXNINT=   50000
       SOCI=       F   MXNEME=   10000
     IEXCIT=       2

      -CORE-    -INTERNAL-  -EXTERNAL-
     NFZC=   9   NDOC=   3   NEXT=   0
     NMCC=   0   NAOS=   0   NFZV=   0
                 NBOS=   0
                 NALP=   0
                 NVAL=  26

 THE MAXIMUM ELECTRON EXCITATION WILL BE   2

 SYMMETRIES FOR THE   9 CORE,  29 ACTIVE,   0 EXTERNAL MO-S ARE
     CORE= A1    B1    B2    A1    A1    A2    B1    B2    A1  
   ACTIVE= A1    B2    A1    B1    B2    A1    A1    B2    A1    B1  
           DOC   DOC   DOC   VAL   VAL   VAL   VAL   VAL   VAL   VAL 
   ACTIVE= B2    A1    A2    B1    A1    A1    B2    A1    A2    B1  
           VAL   VAL   VAL   VAL   VAL   VAL   VAL   VAL   VAL   VAL 
   ACTIVE= A1    A1    B2    B1    B2    A1    A1    A1    A1  
           VAL   VAL   VAL   VAL   VAL   VAL   VAL   VAL   VAL 

 MOLECULAR CHARGE          =   -1
 NUMBER OF ALPHA ELECTRONS =   12
 NUMBER OF  BETA ELECTRONS =   12

 THE ELECTRONIC STATE IS  1-A1  

 THE DISTINCT ROW TABLE HAS       167 ROWS.
  THE WAVEFUNCTION CONTAINS      1009 WALKS (CSF-S).

 TOTAL NUMBER OF INTEGRALS =      80842
 NUMBER OF INTEGRALS/GROUP =      50000
 NUMBER OF INTEGRAL GROUPS =          2
 MAXIMUM RECORD SIZES ARE    1009 FOR UNIT 11    1009 FOR UNIT 12
                            50000 FOR UNIT 15   50000 FOR UNIT 16
 ...... END OF -DRT- GENERATION ...... 
 STEP CPU TIME =     0.02 TOTAL CPU TIME =        0.1 (    0.0 MIN)
 TOTAL WALL CLOCK TIME=        0.1 SECONDS, CPU UTILIZATION IS 100.00%

     --------------------------------------------
     PARTIAL TWO ELECTRON INTEGRAL TRANSFORMATION
     --------------------------------------------

 NUMBER OF CORE MOLECULAR ORBITALS     =    0
 NUMBER OF OCCUPIED MOLECULAR ORBITALS =   38
 TOTAL NUMBER OF MOLECULAR ORBITALS    =   38
 TOTAL NUMBER OF ATOMIC ORBITALS       =   38
 THRESHOLD FOR KEEPING TRANSFORMED 2E- INTEGRALS = 1.000E-09
 AO INTEGRALS WILL BE READ IN FROM DISK...

 PLAN A: REQUIREMENTS FOR FULLY IN-MEMORY TRANSFORMATION:
 # OF WORDS AVAILABLE =               999964
 # OF WORDS NEEDED    =              1137302

 PLAN B: REQUIREMENTS FOR THE SEGMENTED TRANSFORMATION:
       MINIMUM=          95456 WORDS FOR 1 MOLECULAR ORBITAL PER PASS
       MAXIMUM=        1137302 WORDS FOR ALL MOLECULAR ORBITALS IN 1 PASS
              (          28158 EXTRA WORDS INCLUDES 1 EXTRA ORBITAL/PASS)
 THIS RUN USES=         602300 WORDS,
 DISTRIBUTING   2 PASSES EACH CONTAINING    19 ORBITALS OVER   1 PROCESSORS.

 CHOOSING SEGMENTED PARTIAL TRANSFORMATION...
 PASS #   1 TOOK        0.01 SECONDS.
 PASS #   2 TOOK        0.03 SECONDS.
 TOTAL NUMBER OF TRANSFORMED 2E- INTEGRALS KEPT =        74983
 ... END OF INTEGRAL TRANSFORMATION ...
 STEP CPU TIME =     0.04 TOTAL CPU TIME =        0.1 (    0.0 MIN)
 TOTAL WALL CLOCK TIME=        0.1 SECONDS, CPU UTILIZATION IS 100.00%

          ------------------------
          GUGA-CI INTEGRAL SORTING
          ------------------------

    133270 WORDS NEEDED TO SORT          80842 GUGA INTEGRALS IN MEMORY
    999964 WORDS ARE AVAILABLE
 CHOOSING IN-MEMORY SORTING...
 IN CORE ALGORITHM SORTED            269 NON-ZERO 1E- INTEGRALS
 IN CORE ALGORITHM SORTED          74983 NON-ZERO 2E- INTEGRALS
 ...... END OF INTEGRAL SORTING ...... 
 STEP CPU TIME =     0.00 TOTAL CPU TIME =        0.1 (    0.0 MIN)
 TOTAL WALL CLOCK TIME=        0.1 SECONDS, CPU UTILIZATION IS  92.31%

 -------------------------     ---------------------------------------
 ENERGY MATRIX CALCULATION     WRITTEN BY B.R.BROOKS,W.D.LAIDIG,P.SAXE
 -------------------------     ---------------------------------------

 COMPUTING THE HAMILTONIAN FOR THE      1009 CSF-S...

      154352 IS THE TOTAL NUMBER OF GENERATED LOOPS
      154352 WERE CREATED BY THE LOOP-DRIVEN ALGORITHM
           0 WERE CREATED IMPLICITLY

      154352 IS THE TOTAL NUMBER OF PROCESSED LOOPS
       26674     DIAGONAL LOOPS ARE STORED ON WORK15 IN     3 BUFFERS OF  10000 ELEMENTS.
      127678 OFF DIAGONAL LOOPS ARE STORED ON WORK16 IN    13 BUFFERS OF  10000 ELEMENTS.
 ...... END OF ENERGY MATRIX CALCULATION ...... 
 STEP CPU TIME =     0.01 TOTAL CPU TIME =        0.1 (    0.0 MIN)
 TOTAL WALL CLOCK TIME=        0.1 SECONDS, CPU UTILIZATION IS  92.86%

          -----------------------------------------
          DAVIDSON METHOD CI-MATRIX DIAGONALIZATION
                   WRITTEN BY STEVE ELBERT
          -----------------------------------------
 NUMBER OF STATES REQUESTED =     1
 MAX. NUMB. OF EXPAN. VEC   =    30
 MAX. NUMB. IMPROVED STATES =     1
 MAX. NUMB. OF ITERATIONS   =    50
 CONVERGENCE CRITERION      =    1.0E-06

 CHOOSING TO SOLVE SECULAR EQUATION IN MEMORY
 NUMBER OF WORDS AVAILABLE =     999964
 NUMBER OF WORDS USED      =     616210
 ENERGY MATRIX BUFFER SIZE =      10000

 ITER. NO.JUST IMPROVED    ENERGY AND STATE
   0  50(MAX.TOL.STATE)   -189.354882058  1
   1   6  0.96332861  2   -189.420642060  1
   2   5  0.97412945  3   -189.423920543  1
   3   4  0.98818999  3   -189.424128616  1
   4   3  0.55134998  2   -189.424145401  1
   5   2  0.00113623  1   -189.424146467  1
   6   1  0.00022543  1   -189.424146519  1
   7   1  0.00006595  1   -189.424146522  1
   8   1  0.00001136  1   -189.424146522  1
   9   1  0.00000238  1   -189.424146522  1
  10   1  0.00000043  1   -189.424146522  1
 SOLUTION FOUND WITH INDIRECT METHOD

 STATE #    1  ENERGY =    -189.424146522

      CSF      COEF    OCCUPANCY (IGNORING CORE)
      ---      ----    --------- --------- -----
        1    0.963587  22200000000000000000000000000
      122   -0.087328  22020000000000000000000000000
      123    0.060930  12120000000000000000000000000
      227   -0.079497  22002000000000000000000000000
      944    0.072347  21101100000000000000000000000

 RENORMALIZED DAVIDSON CORRECTION FOR     1-REFERENCE CI.
 C0SQ= 0.928500 EREF=     -189.353855 E-E(REF)=   0.070292 E(Q)=   0.005413
 GIVES A E(SD+Q) ESTIMATE OF     -189.4295594140
 ...... END OF CI-MATRIX DIAGONALIZATION ......
 STEP CPU TIME =     0.02 TOTAL CPU TIME =        0.1 (    0.0 MIN)
 TOTAL WALL CLOCK TIME=        0.2 SECONDS, CPU UTILIZATION IS  93.75%

          --------------------------------------
          CI DENSITY MATRIX AND NATURAL ORBITALS
          --------------------------------------
 PROPERTIES WILL BE COMPUTED FOR STATE -IROOT-   1 WITH E=     -189.4241465219
 NFLGDM=   1
 NWORD=         0  IBLOCK=   0
 NUMBER OF STATES         =      1
 NUMBER OF CONFIGURATIONS =   1009

          CI EIGENSTATE    1 TOTAL ENERGY =     -189.4241465219
          DENSITY MATRIX OF STATE   1 SAVED FOR PROPERTY ANALYSIS

          NATURAL ORBITALS IN ATOMIC ORBITAL BASIS
          ----------------------------------------

                      1          2          3          4          5
                    2.0000     2.0000     2.0000     2.0000     2.0000
                     B2         A1         B2         B1         A1  
    1  IN 1  S    0.000000   0.124217  -0.000000   0.000000   0.309682
    2  IN 1  X    0.000000   0.000000  -0.000000   0.295794  -0.000000
    3  IN 1  Y    0.405835   0.000000  -0.417173   0.000000  -0.000000
    4  IN 1  Z    0.000000  -0.356407  -0.000000   0.000000  -0.165932
    5  IN 1 XX    0.000000  -0.020811  -0.000000   0.000000  -0.128514
    6  IN 1 YY    0.000000  -0.408288  -0.000000   0.000000   0.406587
    7  IN 1 ZZ    0.000000   0.447326  -0.000000   0.000000  -0.238213
    8  IN 1 XY    0.000000   0.000000  -0.000000   0.000000  -0.000000
    9  IN 1 XZ    0.000000   0.000000  -0.000000   0.575277  -0.000000
   10  IN 1 YZ    0.478258   0.000000   0.464194   0.000000  -0.000000
   11  IN 1  S    0.000000   0.001359  -0.000000   0.000000  -0.013857
   12  IN 1  X    0.000000   0.000000  -0.000000  -0.007486  -0.000000
   13  IN 1  Y   -0.017990   0.000000  -0.003943   0.000000  -0.000000
   14  IN 1  Z    0.000000   0.004180  -0.000000   0.000000   0.000584
   15  IN 1  S    0.000000   0.022447  -0.000000   0.000000   0.111695
   16  IN 1  X    0.000000   0.000000  -0.000000   0.021079  -0.000000
   17  IN 1  Y    0.027592   0.000000  -0.020843   0.000000  -0.000000
   18  IN 1  Z    0.000000  -0.018021  -0.000000   0.000000  -0.010457
   19  IN 1  S    0.000000   0.170866  -0.000000   0.000000   0.422629
   20  IN 1  X    0.000000   0.000000  -0.000000   0.236856  -0.000000
   21  IN 1  Y    0.315895   0.000000  -0.327322   0.000000  -0.000000
   22  IN 1  Z    0.000000  -0.274083  -0.000000   0.000000  -0.130915
   23  IN 1 XX    0.000000  -0.017918  -0.000000   0.000000  -0.089963
   24  IN 1 YY    0.000000  -0.216664  -0.000000   0.000000   0.186854
   25  IN 1 ZZ    0.000000   0.221444  -0.000000   0.000000  -0.144963
   26  IN 1 XY    0.000000   0.000000  -0.000000   0.000000  -0.000000
   27  IN 1 XZ    0.000000   0.000000  -0.000000   0.297939  -0.000000
   28  IN 1 YZ    0.245694   0.000000   0.239839   0.000000  -0.000000
   29  IN 1 XX    0.000000  -0.011388  -0.000000   0.000000  -0.050635
   30  IN 1 YY    0.000000  -0.087446  -0.000000   0.000000   0.054923
   31  IN 1 ZZ    0.000000   0.083072  -0.000000   0.000000  -0.072047
   32  IN 1 XY    0.000000   0.000000  -0.000000   0.000000  -0.000000
   33  IN 1 XZ    0.000000   0.000000  -0.000000   0.112795  -0.000000
   34  IN 1 YZ    0.093597   0.000000   0.092721   0.000000  -0.000000
   35  H  2  S   -0.020202  -0.000328  -0.020278   0.000000   0.004178
   36  H  2  S   -0.013774  -0.000887  -0.012160   0.000000   0.003905
   37  H  3  S    0.020202  -0.000328   0.020278   0.000000   0.004178
   38  H  3  S    0.013774  -0.000887   0.012160   0.000000   0.003905

                      6          7          8          9         10
                    2.0000     2.0000     2.0000     2.0000     1.9717
                     B1         A2         A1         A1         A1  
    1  IN 1  S   -0.000000  -0.000000   0.221813  -0.094159  -0.077994
    2  IN 1  X    0.498468  -0.000000  -0.000000  -0.000000  -0.000000
    3  IN 1  Y   -0.000000  -0.000000  -0.000000  -0.000000  -0.000000
    4  IN 1  Z   -0.000000  -0.000000   0.293408  -0.314919  -0.057481
    5  IN 1 XX   -0.000000  -0.000000   0.429145   0.493638   0.013702
    6  IN 1 YY   -0.000000  -0.000000  -0.336778  -0.070124  -0.058883
    7  IN 1 ZZ   -0.000000  -0.000000  -0.067316  -0.437274  -0.052108
    8  IN 1 XY   -0.000000   0.670284  -0.000000  -0.000000  -0.000000
    9  IN 1 XZ   -0.345073  -0.000000  -0.000000  -0.000000  -0.000000
   10  IN 1 YZ   -0.000000  -0.000000  -0.000000  -0.000000  -0.000000
   11  IN 1  S   -0.000000  -0.000000  -0.001509   0.011802   0.208009
   12  IN 1  X   -0.006886  -0.000000  -0.000000  -0.000000  -0.000000
   13  IN 1  Y   -0.000000  -0.000000  -0.000000  -0.000000  -0.000000
   14  IN 1  Z   -0.000000  -0.000000   0.001515   0.014812   0.117485
   15  IN 1  S   -0.000000  -0.000000   0.105979  -0.037342   0.561881
   16  IN 1  X    0.028491  -0.000000  -0.000000  -0.000000  -0.000000
   17  IN 1  Y   -0.000000  -0.000000  -0.000000  -0.000000  -0.000000
   18  IN 1  Z   -0.000000  -0.000000   0.015589  -0.021866   0.107534
   19  IN 1  S   -0.000000  -0.000000   0.299541  -0.128545  -0.226361
   20  IN 1  X    0.390887  -0.000000  -0.000000  -0.000000  -0.000000
   21  IN 1  Y   -0.000000  -0.000000  -0.000000  -0.000000  -0.000000
   22  IN 1  Z   -0.000000  -0.000000   0.231074  -0.246115  -0.041620
   23  IN 1 XX   -0.000000  -0.000000   0.206943   0.266516  -0.021363
   24  IN 1 YY   -0.000000  -0.000000  -0.192740  -0.027740  -0.061069
   25  IN 1 ZZ   -0.000000  -0.000000  -0.053211  -0.215974  -0.057980
   26  IN 1 XY   -0.000000   0.347760  -0.000000  -0.000000  -0.000000
   27  IN 1 XZ   -0.177804  -0.000000  -0.000000  -0.000000  -0.000000
   28  IN 1 YZ   -0.000000  -0.000000  -0.000000  -0.000000  -0.000000
   29  IN 1 XX   -0.000000  -0.000000   0.057747   0.104222  -0.085096
   30  IN 1 YY   -0.000000  -0.000000  -0.092352  -0.005391  -0.071599
   31  IN 1 ZZ   -0.000000  -0.000000  -0.039852  -0.077418  -0.070451
   32  IN 1 XY   -0.000000   0.131791  -0.000000  -0.000000  -0.000000
   33  IN 1 XZ   -0.068797  -0.000000  -0.000000  -0.000000  -0.000000
   34  IN 1 YZ   -0.000000  -0.000000  -0.000000  -0.000000  -0.000000
   35  H  2  S   -0.000000  -0.000000  -0.010881  -0.011463   0.245840
   36  H  2  S   -0.000000  -0.000000  -0.007611  -0.010678   0.235637
   37  H  3  S   -0.000000  -0.000000  -0.010881  -0.011463   0.245840
   38  H  3  S   -0.000000  -0.000000  -0.007611  -0.010678   0.235637

                     11         12         13         14         15
                    1.9618     1.9285     0.0380     0.0379     0.0297
                     B2         A1         B2         B1         A1  
    1  IN 1  S    0.000000  -0.096878   0.000000   0.000000  -0.075613
    2  IN 1  X    0.000000   0.000000   0.000000  -0.145790  -0.000000
    3  IN 1  Y    0.086998   0.000000  -0.122619   0.000000  -0.000000
    4  IN 1  Z    0.000000   0.092181   0.000000   0.000000  -0.095072
    5  IN 1 XX    0.000000  -0.071649   0.000000   0.000000  -0.078094
    6  IN 1 YY    0.000000  -0.030460   0.000000   0.000000  -0.009548
    7  IN 1 ZZ    0.000000  -0.029635   0.000000   0.000000  -0.008923
    8  IN 1 XY    0.000000   0.000000   0.000000   0.000000  -0.000000
    9  IN 1 XZ    0.000000   0.000000   0.000000   0.066754  -0.000000
   10  IN 1 YZ    0.099147   0.000000   0.098408   0.000000  -0.000000
   11  IN 1  S    0.000000   0.864705   0.000000   0.000000   0.339475
   12  IN 1  X    0.000000   0.000000   0.000000   0.492611  -0.000000
   13  IN 1  Y   -0.198068   0.000000   0.726311   0.000000  -0.000000
   14  IN 1  Z    0.000000  -0.383540   0.000000   0.000000   0.646424
   15  IN 1  S    0.000000   0.703170   0.000000   0.000000   0.632022
   16  IN 1  X    0.000000   0.000000   0.000000   0.563353  -0.000000
   17  IN 1  Y   -0.154762   0.000000   0.425287   0.000000  -0.000000
   18  IN 1  Z    0.000000  -0.115250   0.000000   0.000000   0.374566
   19  IN 1  S    0.000000  -0.340529   0.000000   0.000000  -0.211816
   20  IN 1  X    0.000000   0.000000   0.000000  -0.144263  -0.000000
   21  IN 1  Y    0.059942   0.000000  -0.118503   0.000000  -0.000000
   22  IN 1  Z    0.000000   0.051927   0.000000   0.000000  -0.111241
   23  IN 1 XX    0.000000  -0.082606   0.000000   0.000000  -0.056183
   24  IN 1 YY    0.000000  -0.056579   0.000000   0.000000  -0.045988
   25  IN 1 ZZ    0.000000  -0.054561   0.000000   0.000000  -0.033164
   26  IN 1 XY    0.000000   0.000000   0.000000   0.000000  -0.000000
   27  IN 1 XZ    0.000000   0.000000   0.000000   0.133031  -0.000000
   28  IN 1 YZ    0.054301   0.000000   0.065509   0.000000  -0.000000
   29  IN 1 XX    0.000000  -0.139023   0.000000   0.000000  -0.095743
   30  IN 1 YY    0.000000  -0.163516   0.000000   0.000000  -0.011586
   31  IN 1 ZZ    0.000000  -0.169485   0.000000   0.000000  -0.049198
   32  IN 1 XY    0.000000   0.000000   0.000000   0.000000  -0.000000
   33  IN 1 XZ    0.000000   0.000000   0.000000  -0.317037  -0.000000
   34  IN 1 YZ   -0.025703   0.000000  -0.065864   0.000000  -0.000000
   35  H  2  S    0.283981  -0.102849   0.460659   0.000000  -0.610359
   36  H  2  S    0.337202  -0.207971   0.214968   0.000000  -0.192696
   37  H  3  S   -0.283981  -0.102849  -0.460659   0.000000  -0.610359
   38  H  3  S   -0.337202  -0.207971  -0.214968   0.000000  -0.192696

                     16         17         18         19         20
                    0.0067     0.0066     0.0048     0.0042     0.0031
                     B2         A1         A1         B2         A1  
    1  IN 1  S    0.000000  -0.003094   0.133973  -0.000000   0.014070
    2  IN 1  X    0.000000   0.000000  -0.000000  -0.000000   0.000000
    3  IN 1  Y   -0.000281   0.000000  -0.000000   0.004702   0.000000
    4  IN 1  Z    0.000000  -0.021370  -0.091307  -0.000000  -0.018429
    5  IN 1 XX    0.000000   0.042217   0.061375  -0.000000   0.080324
    6  IN 1 YY    0.000000  -0.014429   0.093898  -0.000000   0.226955
    7  IN 1 ZZ    0.000000   0.072436   0.130570  -0.000000  -0.203455
    8  IN 1 XY    0.000000   0.000000  -0.000000  -0.000000   0.000000
    9  IN 1 XZ    0.000000   0.000000  -0.000000  -0.000000   0.000000
   10  IN 1 YZ    0.006245   0.000000  -0.000000  -0.267301   0.000000
   11  IN 1  S    0.000000   0.927148   1.675567  -0.000000   0.461849
   12  IN 1  X    0.000000   0.000000  -0.000000  -0.000000   0.000000
   13  IN 1  Y   -0.021813   0.000000  -0.000000  -0.591419   0.000000
   14  IN 1  Z    0.000000  -0.387059  -0.736002  -0.000000   0.142308
   15  IN 1  S    0.000000  -0.141301  -1.620582  -0.000000  -0.264502
   16  IN 1  X    0.000000   0.000000  -0.000000  -0.000000   0.000000
   17  IN 1  Y    0.796921   0.000000  -0.000000   0.776307   0.000000
   18  IN 1  Z    0.000000   1.179415   0.710472  -0.000000   0.113531
   19  IN 1  S    0.000000  -0.064544   0.028189  -0.000000  -0.007379
   20  IN 1  X    0.000000   0.000000  -0.000000  -0.000000   0.000000
   21  IN 1  Y   -0.148644   0.000000  -0.000000  -0.155100   0.000000
   22  IN 1  Z    0.000000  -0.201423  -0.032133  -0.000000  -0.011708
   23  IN 1 XX    0.000000   0.002492  -0.036548  -0.000000   0.075975
   24  IN 1 YY    0.000000  -0.170337   0.000156  -0.000000   0.351812
   25  IN 1 ZZ    0.000000   0.001765  -0.022676  -0.000000  -0.583656
   26  IN 1 XY    0.000000   0.000000  -0.000000  -0.000000   0.000000
   27  IN 1 XZ    0.000000   0.000000  -0.000000  -0.000000   0.000000
   28  IN 1 YZ   -0.055824   0.000000  -0.000000  -0.464043   0.000000
   29  IN 1 XX    0.000000  -0.144472  -0.130990  -0.000000  -0.248045
   30  IN 1 YY    0.000000   0.297153  -0.244823  -0.000000  -0.869724
   31  IN 1 ZZ    0.000000  -0.123059  -0.279024  -0.000000   1.278359
   32  IN 1 XY    0.000000   0.000000  -0.000000  -0.000000   0.000000
   33  IN 1 XZ    0.000000   0.000000  -0.000000  -0.000000   0.000000
   34  IN 1 YZ    0.145290   0.000000  -0.000000   1.230440   0.000000
   35  H  2  S   -0.735665   0.525033  -0.322465   0.481919   0.071922
   36  H  2  S    1.161420  -0.997472   0.343947  -0.189849  -0.311358
   37  H  3  S    0.735665   0.525033  -0.322465  -0.481919   0.071922
   38  H  3  S   -1.161420  -0.997472   0.343947   0.189849  -0.311358

                     21         22         23         24         25
                    0.0018     0.0018     0.0016     0.0008     0.0006
                     A2         B1         A1         B2         A1  
    1  IN 1  S    0.000000  -0.000000  -0.009313  -0.000000   0.090655
    2  IN 1  X    0.000000  -0.047219  -0.000000  -0.000000  -0.000000
    3  IN 1  Y    0.000000  -0.000000  -0.000000   0.227373  -0.000000
    4  IN 1  Z    0.000000  -0.000000  -0.001634  -0.000000   0.233416
    5  IN 1 XX    0.000000  -0.000000  -0.304999  -0.000000   0.188450
    6  IN 1 YY    0.000000  -0.000000   0.139189  -0.000000   0.127099
    7  IN 1 ZZ    0.000000  -0.000000   0.066363  -0.000000   0.167568
    8  IN 1 XY   -0.269640  -0.000000  -0.000000  -0.000000  -0.000000
    9  IN 1 XZ    0.000000  -0.245517  -0.000000  -0.000000  -0.000000
   10  IN 1 YZ    0.000000  -0.000000  -0.000000  -0.102630  -0.000000
   11  IN 1  S    0.000000  -0.000000   1.312840  -0.000000   2.561524
   12  IN 1  X    0.000000  -0.222939  -0.000000  -0.000000  -0.000000
   13  IN 1  Y    0.000000  -0.000000  -0.000000   2.061348  -0.000000
   14  IN 1  Z    0.000000  -0.000000   0.694427  -0.000000   2.034687
   15  IN 1  S    0.000000  -0.000000  -0.313066  -0.000000  -1.705876
   16  IN 1  X    0.000000   0.499941  -0.000000  -0.000000  -0.000000
   17  IN 1  Y    0.000000  -0.000000  -0.000000  -1.366725  -0.000000
   18  IN 1  Z    0.000000  -0.000000  -0.403719  -0.000000  -1.037835
   19  IN 1  S    0.000000  -0.000000  -0.159780  -0.000000  -0.031435
   20  IN 1  X    0.000000  -0.078536  -0.000000  -0.000000  -0.000000
   21  IN 1  Y    0.000000  -0.000000  -0.000000  -0.055727  -0.000000
   22  IN 1  Z    0.000000  -0.000000   0.053993  -0.000000  -0.129511
   23  IN 1 XX    0.000000  -0.000000  -0.237325  -0.000000   0.117303
   24  IN 1 YY    0.000000  -0.000000   0.468980  -0.000000  -0.402635
   25  IN 1 ZZ    0.000000  -0.000000   0.333475  -0.000000  -0.209425
   26  IN 1 XY   -0.546879  -0.000000  -0.000000  -0.000000  -0.000000
   27  IN 1 XZ    0.000000  -0.535768  -0.000000  -0.000000  -0.000000
   28  IN 1 YZ    0.000000  -0.000000  -0.000000  -0.309035  -0.000000
   29  IN 1 XX    0.000000  -0.000000   0.688329  -0.000000  -0.442630
   30  IN 1 YY    0.000000  -0.000000  -1.102929  -0.000000   0.678314
   31  IN 1 ZZ    0.000000  -0.000000  -0.775447  -0.000000   0.297129
   32  IN 1 XY    1.288047  -0.000000  -0.000000  -0.000000  -0.000000
   33  IN 1 XZ    0.000000   1.230023  -0.000000  -0.000000  -0.000000
   34  IN 1 YZ    0.000000  -0.000000  -0.000000   0.819001  -0.000000
   35  H  2  S    0.000000  -0.000000   0.383685  -0.173430   0.190970
   36  H  2  S    0.000000  -0.000000  -0.556173   0.965335  -1.326237
   37  H  3  S    0.000000  -0.000000   0.383685   0.173430   0.190970
   38  H  3  S    0.000000  -0.000000  -0.556173  -0.965335  -1.326237

                     26         27         28         29         30
                    0.0003     0.0001     0.0000     0.0000     0.0000
                     B1         A1         A1         B2         A1  
    1  IN 1  S   -0.000000  -0.179975   0.014098   0.000000   0.078085
    2  IN 1  X    0.162431  -0.000000   0.000000   0.000000   0.000000
    3  IN 1  Y   -0.000000  -0.000000   0.000000  -1.329428   0.000000
    4  IN 1  Z   -0.000000   0.103118   0.715226   0.000000  -1.881602
    5  IN 1 XX   -0.000000  -0.138759   0.149649   0.000000   0.201974
    6  IN 1 YY   -0.000000  -0.527916   0.826624   0.000000   0.083495
    7  IN 1 ZZ   -0.000000  -0.197891  -1.108542   0.000000  -0.550216
    8  IN 1 XY   -0.000000  -0.000000   0.000000   0.000000   0.000000
    9  IN 1 XZ   -0.049102  -0.000000   0.000000   0.000000   0.000000
   10  IN 1 YZ   -0.000000  -0.000000   0.000000  -0.942068   0.000000
   11  IN 1  S   -0.000000   2.723972   0.148985   0.000000   0.755257
   12  IN 1  X    1.634228  -0.000000   0.000000   0.000000   0.000000
   13  IN 1  Y   -0.000000  -0.000000   0.000000   0.484951   0.000000
   14  IN 1  Z   -0.000000   0.660302  -0.353992   0.000000   1.056838
   15  IN 1  S   -0.000000   3.184726  -0.280084   0.000000  -0.413909
   16  IN 1  X   -1.609392  -0.000000   0.000000   0.000000   0.000000
   17  IN 1  Y   -0.000000  -0.000000   0.000000  -0.965705   0.000000
   18  IN 1  Z   -0.000000  -0.158510   0.539401   0.000000  -1.431569
   19  IN 1  S   -0.000000  -0.992630   0.021119   0.000000   0.066133
   20  IN 1  X    0.061209  -0.000000   0.000000   0.000000   0.000000
   21  IN 1  Y   -0.000000  -0.000000   0.000000   1.582432   0.000000
   22  IN 1  Z   -0.000000  -0.105405  -0.847650   0.000000   2.227969
   23  IN 1 XX   -0.000000   0.306476  -0.143175   0.000000  -0.287931
   24  IN 1 YY   -0.000000   0.417965  -1.215012   0.000000  -0.203764
   25  IN 1 ZZ   -0.000000  -0.060543   1.794096   0.000000   0.819752
   26  IN 1 XY   -0.000000  -0.000000   0.000000   0.000000   0.000000
   27  IN 1 XZ   -0.111620  -0.000000   0.000000   0.000000   0.000000
   28  IN 1 YZ   -0.000000  -0.000000   0.000000   1.523356   0.000000
   29  IN 1 XX   -0.000000  -2.657630   0.052468   0.000000   0.010441
   30  IN 1 YY   -0.000000  -2.086229   0.587768   0.000000   0.116599
   31  IN 1 ZZ   -0.000000  -1.895928  -0.880268   0.000000  -0.429750
   32  IN 1 XY   -0.000000  -0.000000   0.000000   0.000000   0.000000
   33  IN 1 XZ    0.257549  -0.000000   0.000000   0.000000   0.000000
   34  IN 1 YZ   -0.000000  -0.000000   0.000000  -0.837106   0.000000
   35  H  2  S   -0.000000   0.145865  -0.034692  -0.203547   0.170340
   36  H  2  S   -0.000000  -0.667505   0.078583   0.072895  -0.387850
   37  H  3  S   -0.000000   0.145865  -0.034692   0.203547   0.170340
   38  H  3  S   -0.000000  -0.667505   0.078583  -0.072895  -0.387850

                     31         32         33         34         35
                    0.0000     0.0000     0.0000     0.0000     0.0000
                     B2         B1         A2         A1         B1  
    1  IN 1  S   -0.000000   0.000000  -0.000000  -0.465964  -0.000000
    2  IN 1  X   -0.000000   0.282895  -0.000000  -0.000000  -2.017241
    3  IN 1  Y   -1.553813   0.000000  -0.000000  -0.000000  -0.000000
    4  IN 1  Z   -0.000000   0.000000  -0.000000  -0.328950  -0.000000
    5  IN 1 XX   -0.000000   0.000000  -0.000000  -1.245276  -0.000000
    6  IN 1 YY   -0.000000   0.000000  -0.000000   0.652355  -0.000000
    7  IN 1 ZZ   -0.000000   0.000000  -0.000000   0.214234  -0.000000
    8  IN 1 XY   -0.000000   0.000000  -1.216868  -0.000000  -0.000000
    9  IN 1 XZ   -0.000000  -1.206488  -0.000000  -0.000000  -0.173142
   10  IN 1 YZ    0.787839   0.000000  -0.000000  -0.000000  -0.000000
   11  IN 1  S   -0.000000   0.000000  -0.000000  -0.297877  -0.000000
   12  IN 1  X   -0.000000  -0.111244  -0.000000  -0.000000   0.806626
   13  IN 1  Y    0.928851   0.000000  -0.000000  -0.000000  -0.000000
   14  IN 1  Z   -0.000000   0.000000  -0.000000   0.346203  -0.000000
   15  IN 1  S   -0.000000   0.000000  -0.000000  12.669954  -0.000000
   16  IN 1  X   -0.000000   0.204200  -0.000000  -0.000000  -1.444968
   17  IN 1  Y   -1.175394   0.000000  -0.000000  -0.000000  -0.000000
   18  IN 1  Z   -0.000000   0.000000  -0.000000  -0.264405  -0.000000
   19  IN 1  S   -0.000000   0.000000  -0.000000  -1.922364  -0.000000
   20  IN 1  X   -0.000000  -0.334512  -0.000000  -0.000000   2.377267
   21  IN 1  Y    1.829921   0.000000  -0.000000  -0.000000  -0.000000
   22  IN 1  Z   -0.000000   0.000000  -0.000000   0.380185  -0.000000
   23  IN 1 XX   -0.000000   0.000000  -0.000000  -0.191882  -0.000000
   24  IN 1 YY   -0.000000   0.000000  -0.000000  -3.285549  -0.000000
   25  IN 1 ZZ   -0.000000   0.000000  -0.000000  -2.586278  -0.000000
   26  IN 1 XY   -0.000000   0.000000   1.905080  -0.000000  -0.000000
   27  IN 1 XZ   -0.000000   1.882903  -0.000000  -0.000000   0.257746
   28  IN 1 YZ   -1.350491   0.000000  -0.000000  -0.000000  -0.000000
   29  IN 1 XX   -0.000000   0.000000  -0.000000  -4.196657  -0.000000
   30  IN 1 YY   -0.000000   0.000000  -0.000000  -2.480368  -0.000000
   31  IN 1 ZZ   -0.000000   0.000000  -0.000000  -2.845930  -0.000000
   32  IN 1 XY   -0.000000   0.000000  -0.946915  -0.000000  -0.000000
   33  IN 1 XZ   -0.000000  -0.928659  -0.000000  -0.000000  -0.115835
   34  IN 1 YZ    0.854081   0.000000  -0.000000  -0.000000  -0.000000
   35  H  2  S   -0.017799   0.000000  -0.000000  -0.052690  -0.000000
   36  H  2  S    0.301071   0.000000  -0.000000  -0.189640  -0.000000
   37  H  3  S    0.017799   0.000000  -0.000000  -0.052690  -0.000000
   38  H  3  S   -0.301071   0.000000  -0.000000  -0.189640  -0.000000

                     36         37         38
                    0.0000     0.0000     0.0000
                     A1         A1         A1  
    1  IN 1  S   -1.502488   9.190361   7.557073
    2  IN 1  X    0.000000  -0.000000  -0.000000
    3  IN 1  Y    0.000000  -0.000000  -0.000000
    4  IN 1  Z    0.088573   0.033452   0.041594
    5  IN 1 XX   -0.233673 -16.906949 -19.407069
    6  IN 1 YY   -0.745304 -16.908589 -19.425570
    7  IN 1 ZZ   -0.675296 -16.904743 -19.423601
    8  IN 1 XY    0.000000  -0.000000  -0.000000
    9  IN 1 XZ    0.000000  -0.000000  -0.000000
   10  IN 1 YZ    0.000000  -0.000000  -0.000000
   11  IN 1  S   -3.643268  -6.308484  -8.299289
   12  IN 1  X    0.000000  -0.000000  -0.000000
   13  IN 1  Y    0.000000  -0.000000  -0.000000
   14  IN 1  Z   -0.309311  -0.177237  -0.283666
   15  IN 1  S   46.728025 124.173720 153.681118
   16  IN 1  X    0.000000  -0.000000  -0.000000
   17  IN 1  Y    0.000000  -0.000000  -0.000000
   18  IN 1  Z    0.132448   0.072210   0.108968
   19  IN 1  S   -6.440924   2.899829   4.694002
   20  IN 1  X    0.000000  -0.000000  -0.000000
   21  IN 1  Y    0.000000  -0.000000  -0.000000
   22  IN 1  Z   -0.108660  -0.043974  -0.056610
   23  IN 1 XX   -8.247326 -18.376296 -23.434647
   24  IN 1 YY   -7.370564 -18.355956 -23.378855
   25  IN 1 ZZ   -7.486290 -18.363578 -23.384077
   26  IN 1 XY    0.000000  -0.000000  -0.000000
   27  IN 1 XZ    0.000000  -0.000000  -0.000000
   28  IN 1 YZ    0.000000  -0.000000  -0.000000
   29  IN 1 XX  -10.577108 -31.263006 -38.289742
   30  IN 1 YY  -11.133323 -31.313117 -38.379836
   31  IN 1 ZZ  -11.065953 -31.305969 -38.372298
   32  IN 1 XY    0.000000  -0.000000  -0.000000
   33  IN 1 XZ    0.000000  -0.000000  -0.000000
   34  IN 1 YZ    0.000000  -0.000000  -0.000000
   35  H  2  S   -0.096506  -0.074673  -0.125806
   36  H  2  S    0.312491   0.191301   0.313186
   37  H  3  S   -0.096506  -0.074673  -0.125806
   38  H  3  S    0.312491   0.191301   0.313186
 ...... END OF DENSITY MATRIX CALCULATION ...... 
 STEP CPU TIME =     0.00 TOTAL CPU TIME =        0.1 (    0.0 MIN)
 TOTAL WALL CLOCK TIME=        0.2 SECONDS, CPU UTILIZATION IS  93.75%

          -------------------------------------
          2-PARTICLE DENSITY MATRIX CALCULATION
          -------------------------------------
 2 BODY DENSITY IS AN AVERAGE OF  1 STATE(S).
   STATE    WEIGHT          ENERGY
     1    1.000000     -189.4241465219
       154352 -DM2- LOOPS WERE GENERATED
       154352 WERE CREATED BY THE LOOP-DRIVEN ALGORITHM
[...]

                1 IN         2 H          3 H     

   1 IN      0.0000000    1.9458141 *  1.9458141 *
   2 H       1.9458141 *  0.0000000    2.8005745 *
   3 H       1.9458141 *  2.8005745 *  0.0000000  

  * ... LESS THAN  3.000


          NUCLEAR ENERGY    =       11.6111361248
          ELECTRONIC ENERGY =     -201.0353330389
          TOTAL ENERGY      =     -189.4241969141

          ------------------
          MOLECULAR ORBITALS
          ------------------

                      1          2          3          4          5
                   -5.0555    -3.3332    -3.3263    -3.3232    -0.7697
                     A1         B1         B2         A1         A1  
    1  IN 1  S   -0.411559   0.000000   0.000000   0.003953   0.001697
    2  IN 1  X    0.000000   0.579610   0.000000   0.000000   0.000000
    3  IN 1  Y    0.000000   0.000000   0.581975   0.000000   0.000000
    4  IN 1  Z   -0.003392   0.000000   0.000000  -0.582886  -0.000803
    5  IN 1 XX   -0.018258   0.000000   0.000000   0.003330  -0.660295
    6  IN 1 YY   -0.017171   0.000000   0.000000   0.002069   0.412692
    7  IN 1 ZZ   -0.016669   0.000000   0.000000  -0.002640   0.251134
    8  IN 1 XY    0.000000   0.000000   0.000000   0.000000   0.000000
    9  IN 1 XZ    0.000000   0.002751   0.000000   0.000000   0.000000
   10  IN 1 YZ    0.000000   0.000000   0.004212   0.000000   0.000000
   11  IN 1  S    0.013530   0.000000   0.000000   0.003963  -0.010955
   12  IN 1  X    0.000000  -0.009763   0.000000   0.000000   0.000000
   13  IN 1  Y    0.000000   0.000000  -0.009815   0.000000   0.000000
   14  IN 1  Z    0.000914   0.000000   0.000000   0.010025  -0.011109
   15  IN 1  S   -0.156814   0.000000   0.000000  -0.027107  -0.012766
   16  IN 1  X    0.000000   0.035274   0.000000   0.000000   0.000000
   17  IN 1  Y    0.000000   0.000000   0.034188   0.000000   0.000000
   18  IN 1  Z   -0.000393   0.000000   0.000000  -0.033681   0.002771
   19  IN 1  S   -0.560340   0.000000   0.000000   0.007781   0.004356
   20  IN 1  X    0.000000   0.457046   0.000000   0.000000   0.000000
   21  IN 1  Y    0.000000   0.000000   0.454913   0.000000   0.000000
   22  IN 1  Z   -0.003995   0.000000   0.000000  -0.454127  -0.002410
   23  IN 1 XX    0.021064   0.000000   0.000000   0.004122  -0.345777
   24  IN 1 YY    0.022394   0.000000   0.000000   0.004785   0.213248
   25  IN 1 ZZ    0.022991   0.000000   0.000000   0.001022   0.129186
   26  IN 1 XY    0.000000   0.000000   0.000000   0.000000   0.000000
   27  IN 1 XZ    0.000000   0.002185   0.000000   0.000000   0.000000
   28  IN 1 YZ    0.000000   0.000000   0.001204   0.000000   0.000000
   29  IN 1 XX    0.033760   0.000000   0.000000   0.006032  -0.124235
   30  IN 1 YY    0.033701   0.000000   0.000000   0.006399   0.085488
   31  IN 1 ZZ    0.033571   0.000000   0.000000   0.007162   0.053792
   32  IN 1 XY    0.000000   0.000000   0.000000   0.000000   0.000000
   33  IN 1 XZ    0.000000  -0.000450   0.000000   0.000000   0.000000
   34  IN 1 YZ    0.000000   0.000000  -0.000553   0.000000   0.000000
   35  H  2  S    0.000272   0.000000   0.000327   0.000271   0.015716
   36  H  2  S   -0.000971   0.000000  -0.001010  -0.001420   0.013291
   37  H  3  S    0.000272   0.000000  -0.000327   0.000271   0.015716
   38  H  3  S   -0.000971   0.000000   0.001010  -0.001420   0.013291

                      6          7          8          9         10
                   -0.7662    -0.7627    -0.7599    -0.7541    -0.2726
                     A2         B1         B2         A1         A1  
    1  IN 1  S    0.000000   0.000000   0.000000   0.001237   0.098032
    2  IN 1  X    0.000000  -0.005064   0.000000   0.000000   0.000000
    3  IN 1  Y    0.000000   0.000000   0.002877   0.000000   0.000000
    4  IN 1  Z    0.000000   0.000000   0.000000  -0.005263   0.029208
    5  IN 1 XX    0.000000   0.000000   0.000000  -0.092914   0.002507
    6  IN 1 YY    0.000000   0.000000   0.000000  -0.529025   0.064132
    7  IN 1 ZZ    0.000000   0.000000   0.000000   0.623929   0.057937
    8  IN 1 XY   -0.670312   0.000000   0.000000   0.000000   0.000000
    9  IN 1 XZ    0.000000   0.670855   0.000000   0.000000   0.000000
   10  IN 1 YZ    0.000000   0.000000  -0.666826   0.000000   0.000000
   11  IN 1  S    0.000000   0.000000   0.000000   0.002797  -0.401535
   12  IN 1  X    0.000000  -0.002816   0.000000   0.000000   0.000000
   13  IN 1  Y    0.000000   0.000000   0.015281   0.000000   0.000000
   14  IN 1  Z    0.000000   0.000000   0.000000  -0.003266   0.007655
   15  IN 1  S    0.000000   0.000000   0.000000  -0.010870  -0.709822
   16  IN 1  X    0.000000   0.003043   0.000000   0.000000   0.000000
   17  IN 1  Y    0.000000   0.000000  -0.004637   0.000000   0.000000
   18  IN 1  Z    0.000000   0.000000   0.000000   0.003161  -0.072504
   19  IN 1  S    0.000000   0.000000   0.000000   0.002278   0.299655
   20  IN 1  X    0.000000   0.000213   0.000000   0.000000   0.000000
   21  IN 1  Y    0.000000   0.000000   0.004033   0.000000   0.000000
   22  IN 1  Z    0.000000   0.000000   0.000000   0.000024   0.026786
   23  IN 1 XX    0.000000   0.000000   0.000000  -0.047935   0.038591
   24  IN 1 YY    0.000000   0.000000   0.000000  -0.271741   0.074482
   25  IN 1 ZZ    0.000000   0.000000   0.000000   0.319945   0.071054
   26  IN 1 XY   -0.347826   0.000000   0.000000   0.000000   0.000000
   27  IN 1 XZ    0.000000   0.347016   0.000000   0.000000   0.000000
   28  IN 1 YZ    0.000000   0.000000  -0.343493   0.000000   0.000000
   29  IN 1 XX    0.000000   0.000000   0.000000  -0.017143   0.122798
   30  IN 1 YY    0.000000   0.000000   0.000000  -0.103256   0.107021
   31  IN 1 ZZ    0.000000   0.000000   0.000000   0.124665   0.107730
   32  IN 1 XY   -0.131644   0.000000   0.000000   0.000000   0.000000
   33  IN 1 XZ    0.000000   0.131981   0.000000   0.000000   0.000000
   34  IN 1 YZ    0.000000   0.000000  -0.131607   0.000000   0.000000
   35  H  2  S    0.000000   0.000000   0.027635   0.000935  -0.211981
   36  H  2  S    0.000000   0.000000   0.018062   0.000833  -0.198714
   37  H  3  S    0.000000   0.000000  -0.027635   0.000935  -0.211981
   38  H  3  S    0.000000   0.000000  -0.018062   0.000833  -0.198714

                     11         12         13         14         15
                   -0.1354    -0.0361     0.2478     0.3439     0.3907
                     B2         A1         B1         B2         A1  
    1  IN 1  S    0.000000   0.074522   0.000000   0.000000  -0.066004
    2  IN 1  X    0.000000   0.000000   0.143458   0.000000   0.000000
    3  IN 1  Y    0.082730   0.000000   0.000000  -0.120694   0.000000
    4  IN 1  Z    0.000000  -0.104088   0.000000   0.000000  -0.099545
    5  IN 1 XX    0.000000   0.071124   0.000000   0.000000  -0.118240
    6  IN 1 YY    0.000000   0.015532   0.000000   0.000000  -0.007502
    7  IN 1 ZZ    0.000000   0.017549   0.000000   0.000000  -0.014405
    8  IN 1 XY    0.000000   0.000000   0.000000   0.000000   0.000000
    9  IN 1 XZ    0.000000   0.000000   0.000092   0.000000   0.000000
   10  IN 1 YZ    0.099953   0.000000   0.000000   0.092228   0.000000
   11  IN 1  S    0.000000  -0.774968   0.000000   0.000000   1.235284
   12  IN 1  X    0.000000   0.000000  -1.019820   0.000000   0.000000
   13  IN 1  Y   -0.170897   0.000000   0.000000   1.486037   0.000000
   14  IN 1  Z    0.000000   0.413474   0.000000   0.000000   1.524362
   15  IN 1  S    0.000000  -0.539092   0.000000   0.000000   0.848974
   16  IN 1  X    0.000000   0.000000   0.012763   0.000000   0.000000
   17  IN 1  Y   -0.149850   0.000000   0.000000  -0.109605   0.000000
   18  IN 1  Z    0.000000   0.132783   0.000000   0.000000  -0.102057
   19  IN 1  S    0.000000   0.272314   0.000000   0.000000  -0.294643
   20  IN 1  X    0.000000   0.000000   0.054158   0.000000   0.000000
   21  IN 1  Y    0.058558   0.000000   0.000000  -0.031901   0.000000
   22  IN 1  Z    0.000000  -0.059647   0.000000   0.000000  -0.027766
   23  IN 1 XX    0.000000   0.071438   0.000000   0.000000  -0.150037
   24  IN 1 YY    0.000000   0.035977   0.000000   0.000000  -0.103398
   25  IN 1 ZZ    0.000000   0.038503   0.000000   0.000000  -0.110205
   26  IN 1 XY    0.000000   0.000000   0.000000   0.000000   0.000000
   27  IN 1 XZ    0.000000   0.000000   0.000487   0.000000   0.000000
   28  IN 1 YZ    0.058045   0.000000   0.000000   0.028691   0.000000
   29  IN 1 XX    0.000000   0.115958   0.000000   0.000000  -0.188097
   30  IN 1 YY    0.000000   0.144187   0.000000   0.000000  -0.173622
   31  IN 1 ZZ    0.000000   0.141563   0.000000   0.000000  -0.168206
   32  IN 1 XY    0.000000   0.000000   0.000000   0.000000   0.000000
   33  IN 1 XZ    0.000000   0.000000  -0.000834   0.000000   0.000000
   34  IN 1 YZ   -0.033203   0.000000   0.000000   0.032722   0.000000
   35  H  2  S    0.280035   0.154831   0.000000   0.105466  -0.080601
   36  H  2  S    0.360134   0.258304   0.000000   0.787111  -1.113810
   37  H  3  S   -0.280035   0.154831   0.000000  -0.105466  -0.080601
   38  H  3  S   -0.360134   0.258304   0.000000  -0.787111  -1.113810

                     16         17         18         19         20
                    0.5577     0.6995     0.7100     0.7278     0.9351
                     A1         B2         A1         B1         B2  
    1  IN 1  S   -0.123717   0.000000  -0.019761   0.000000   0.000000
    2  IN 1  X    0.000000   0.000000   0.000000   0.048910   0.000000
    3  IN 1  Y    0.000000  -0.022861   0.000000   0.000000   0.060517
    4  IN 1  Z    0.027930   0.000000   0.020388   0.000000   0.000000
    5  IN 1 XX   -0.053988   0.000000  -0.043398   0.000000   0.000000
    6  IN 1 YY   -0.123720   0.000000   0.009384   0.000000   0.000000
    7  IN 1 ZZ   -0.111657   0.000000   0.015561   0.000000   0.000000
    8  IN 1 XY    0.000000   0.000000   0.000000   0.000000   0.000000
    9  IN 1 XZ    0.000000   0.000000   0.000000   0.006777   0.000000
   10  IN 1 YZ    0.000000  -0.044882   0.000000   0.000000  -0.127668
   11  IN 1  S   -3.463559   0.000000  -0.392300   0.000000   0.000000
   12  IN 1  X    0.000000   0.000000   0.000000   1.459477   0.000000
   13  IN 1  Y    0.000000  -1.183621   0.000000   0.000000   1.366376
   14  IN 1  Z   -0.656961   0.000000   1.300916   0.000000   0.000000
   15  IN 1  S    2.494698   0.000000   0.151264   0.000000   0.000000
   16  IN 1  X    0.000000   0.000000   0.000000  -1.883169   0.000000
   17  IN 1  Y    0.000000   1.655614   0.000000   0.000000  -0.966194
   18  IN 1  Z    0.089699   0.000000  -1.688539   0.000000   0.000000
   19  IN 1  S    0.133633   0.000000  -0.004169   0.000000   0.000000
   20  IN 1  X    0.000000   0.000000   0.000000   0.304875   0.000000
   21  IN 1  Y    0.000000  -0.266211   0.000000   0.000000   0.126104
   22  IN 1  Z    0.003168   0.000000   0.266747   0.000000   0.000000
   23  IN 1 XX   -0.152032   0.000000  -0.065243   0.000000   0.000000
   24  IN 1 YY   -0.235722   0.000000   0.045679   0.000000   0.000000
   25  IN 1 ZZ   -0.223209   0.000000   0.041651   0.000000   0.000000
   26  IN 1 XY    0.000000   0.000000   0.000000   0.000000   0.000000
   27  IN 1 XZ    0.000000   0.000000   0.000000   0.003759   0.000000
   28  IN 1 YZ    0.000000  -0.093122   0.000000   0.000000  -0.304722
   29  IN 1 XX    0.386389   0.000000   0.211212   0.000000   0.000000
   30  IN 1 YY    0.507787   0.000000  -0.049343   0.000000   0.000000
   31  IN 1 ZZ    0.483597   0.000000  -0.045841   0.000000   0.000000
   32  IN 1 XY    0.000000   0.000000   0.000000   0.000000   0.000000
   33  IN 1 XZ    0.000000   0.000000   0.000000  -0.012428   0.000000
   34  IN 1 YZ    0.000000   0.236075   0.000000   0.000000   0.775777
   35  H  2  S    0.111102  -0.279614  -0.283377   0.000000  -0.665311
   36  H  2  S    0.517058   0.406624   0.333016   0.000000   1.222016
   37  H  3  S    0.111102   0.279614  -0.283377   0.000000   0.665311
   38  H  3  S    0.517058  -0.406624   0.333016   0.000000  -1.222016

                     21         22
                    0.9617     0.9666
                     A1         A2  
    1  IN 1  S   -0.055843   0.000000
    2  IN 1  X    0.000000   0.000000
    3  IN 1  Y    0.000000   0.000000
    4  IN 1  Z   -0.060799   0.000000
    5  IN 1 XX   -0.100845   0.000000
    6  IN 1 YY    0.084286   0.000000
    7  IN 1 ZZ    0.038088   0.000000
    8  IN 1 XY    0.000000  -0.260344
    9  IN 1 XZ    0.000000   0.000000
   10  IN 1 YZ    0.000000   0.000000
   11  IN 1  S   -1.909930   0.000000
   12  IN 1  X    0.000000   0.000000
   13  IN 1  Y    0.000000   0.000000
   14  IN 1  Z   -1.467722   0.000000
   15  IN 1  S   -0.145235   0.000000
   16  IN 1  X    0.000000   0.000000
   17  IN 1  Y    0.000000   0.000000
   18  IN 1  Z    0.947843   0.000000
   19  IN 1  S    0.141711   0.000000
   20  IN 1  X    0.000000   0.000000
   21  IN 1  Y    0.000000   0.000000
   22  IN 1  Z   -0.116537   0.000000
   23  IN 1 XX   -0.080250   0.000000
   24  IN 1 YY    0.335206   0.000000
   25  IN 1 ZZ    0.242430   0.000000
   26  IN 1 XY    0.000000  -0.561249
   27  IN 1 XZ    0.000000   0.000000
   28  IN 1 YZ    0.000000   0.000000
   29  IN 1 XX    0.960227   0.000000
   30  IN 1 YY   -0.089768   0.000000
   31  IN 1 ZZ    0.134810   0.000000
   32  IN 1 XY    0.000000   1.295194
   33  IN 1 XZ    0.000000   0.000000
   34  IN 1 YZ    0.000000   0.000000
   35  H  2  S   -0.740434   0.000000
   36  H  2  S    1.426526   0.000000
   37  H  3  S   -0.740434   0.000000
   38  H  3  S    1.426526   0.000000

     --------------------------------------------------------
     GUGA  CI PROPERTIES...FOR THE WAVEFUNCTION OF STATE    1
             USING THE RESPONSE (OR RELAXED) DENSITY
     --------------------------------------------------------

          -----------------
          ENERGY COMPONENTS
          -----------------

         WAVEFUNCTION NORMALIZATION =       1.0000000000

                ONE ELECTRON ENERGY =    -363.5045394588
                TWO ELECTRON ENERGY =     162.4692064199
           NUCLEAR REPULSION ENERGY =      11.6111361248
                                      ------------------
                       TOTAL ENERGY =    -189.4241969141

 ELECTRON-ELECTRON POTENTIAL ENERGY =     162.4692064199
  NUCLEUS-ELECTRON POTENTIAL ENERGY =    -435.7672913056
   NUCLEUS-NUCLEUS POTENTIAL ENERGY =      11.6111361248
                                      ------------------
             TOTAL POTENTIAL ENERGY =    -261.6869487609
               TOTAL KINETIC ENERGY =      72.2627518469
                 VIRIAL RATIO (V/T) =       3.6213255387

          ---------------------------------------
          MULLIKEN AND LOWDIN POPULATION ANALYSES
          ---------------------------------------

               ----- POPULATIONS IN EACH AO -----
                             MULLIKEN      LOWDIN
              1  IN 1  S      0.78784     0.52995
              2  IN 1  X      1.11475     1.05841
              3  IN 1  Y      1.13073     1.07685
              4  IN 1  Z      1.13709     1.08327
              5  IN 1 XX      0.85212     1.03138
              6  IN 1 YY      0.85601     1.03505
              7  IN 1 ZZ      0.85722     1.03515
              8  IN 1 XY      1.24324     1.14343
              9  IN 1 XZ      1.24455     1.14457
             10  IN 1 YZ      1.25217     1.15346
             11  IN 1  S      1.27105     0.67852
             12  IN 1  X      0.01293     0.02437
             13  IN 1  Y      0.31834     0.40229
             14  IN 1  Z      0.63458     0.70231
             15  IN 1  S      1.47279     0.26671
             16  IN 1  X      0.04190     0.05935
             17  IN 1  Y      0.21751     0.25926
             18  IN 1  Z      0.24162     0.34432
             19  IN 1  S      1.04672     0.54824
             20  IN 1  X      0.86626     0.89370
             21  IN 1  Y      0.85538     0.89235
             22  IN 1  Z      0.85219     0.89234
             23  IN 1 XX      0.32638     0.52350
             24  IN 1 YY      0.31847     0.51539
             25  IN 1 ZZ      0.31883     0.51341
             26  IN 1 XY      0.60689     0.66819
             27  IN 1 XZ      0.60559     0.66755
             28  IN 1 YZ      0.60115     0.66523
             29  IN 1 XX     -0.12700     0.34856
             30  IN 1 YY     -0.12154     0.32437
             31  IN 1 ZZ     -0.12600     0.32149
             32  IN 1 XY      0.15169     0.19021
             33  IN 1 XZ      0.15372     0.19175
             34  IN 1 YZ      0.16934     0.22854
             35  H  2  S      0.65043     0.62494
             36  H  2  S      0.75730     0.66832
             37  H  3  S      0.65043     0.62494
             38  H  3  S      0.75730     0.66832

          ----- MULLIKEN ATOMIC OVERLAP POPULATIONS -----
          (OFF-DIAGONAL ELEMENTS NEED TO BE MULTIPLIED BY 2)

             1           2           3

    1   20.8162611
    2    0.1841411   1.2315667
    3    0.1841411  -0.0079794   1.2315667

          TOTAL MULLIKEN AND LOWDIN ATOMIC POPULATIONS
       ATOM         MULL.POP.    CHARGE          LOW.POP.     CHARGE
    1 IN           21.184543   -0.184543        21.413481   -0.413481
    2 H             1.407728   -0.407728         1.293259   -0.293259
    3 H             1.407728   -0.407728         1.293259   -0.293259

          ---------------------
          ELECTROSTATIC MOMENTS
          ---------------------

 POINT   1           X           Y           Z (BOHR)    CHARGE
                -0.000000    0.000000   -1.026242       -1.00 (A.U.)
         DX          DY          DZ         /D/  (DEBYE)
     0.000000   -0.000000   -2.037461    2.037461
 ...... END OF PROPERTY EVALUATION ......
 STEP CPU TIME =     0.00 TOTAL CPU TIME =        1.8 (    0.0 MIN)
 TOTAL WALL CLOCK TIME=        1.8 SECONDS, CPU UTILIZATION IS  97.22%
  $VIB   
          IVIB=   0 IATOM=   0 ICOORD=   0 E=     -189.4241969141
  0.000000000E+00 0.000000000E+00 4.457332795E-07 0.000000000E+00-9.250482885E-07
 -2.228659598E-07 0.000000000E+00 9.250482885E-07-2.228659598E-07
  3.987334892E-16-2.257541709E-15-2.037460787E+00
 ......END OF GEOMETRY SEARCH......
 STEP CPU TIME =     0.00 TOTAL CPU TIME =        1.8 (    0.0 MIN)
 TOTAL WALL CLOCK TIME=        1.8 SECONDS, CPU UTILIZATION IS  97.22%
               811360  WORDS OF DYNAMIC MEMORY USED
 EXECUTION OF GAMESS TERMINATED NORMALLY Fri Jun  2 00:44:44 2017
 DDI: 263640 bytes (0.3 MB / 0 MWords) used by master data server.

 ----------------------------------------
 CPU timing information for all processes
 ========================================
 0: 1.639 + 0.121 = 1.761
 ----------------------------------------
 ddikick.x: exited gracefully.
unset echo
----- accounting info -----
Files used on the master node compute-0-6.local were:
-rw-rw-r-- 1 sarom sarom    1202 Jun  2 00:44 /scratch/guga-inh2-grad.F05
-rw-rw-r-- 1 sarom sarom  720064 Jun  2 00:44 /scratch/guga-inh2-grad.F08
-rw-rw-r-- 1 sarom sarom  906016 Jun  2 00:44 /scratch/guga-inh2-grad.F09
-rw-rw-r-- 1 sarom sarom 2650320 Jun  2 00:44 /scratch/guga-inh2-grad.F10
-rw-rw-r-- 1 sarom sarom  315600 Jun  2 00:44 /scratch/guga-inh2-grad.F11
-rw-rw-r-- 1 sarom sarom    8264 Jun  2 00:44 /scratch/guga-inh2-grad.F12
-rw-rw-r-- 1 sarom sarom  800016 Jun  2 00:44 /scratch/guga-inh2-grad.F14
-rw-rw-r-- 1 sarom sarom  365968 Jun  2 00:44 /scratch/guga-inh2-grad.F15
-rw-rw-r-- 1 sarom sarom  540048 Jun  2 00:44 /scratch/guga-inh2-grad.F16
-rw-rw-r-- 1 sarom sarom   53424 Jun  2 00:44 /scratch/guga-inh2-grad.F18
rm: cannot remove `/scratch/sarom': Is a directory
rm: cannot remove `/scratch/tmp': Is a directory
ls: No match.
ls: No match.
ls: No match.
Fri Jun  2 00:44:47 CDT 2017
0.244u 0.148s 0:05.26 7.2%	0+0k 8+352io 0pf+0w
/opt/gridengine/default/spool/compute-0-6/active_jobs/23471.1/pe_hostfile compute-0-6.local
