-catch_rsh /opt/gridengine/default/spool/compute-0-2/active_jobs/23479.1/pe_hostfile
compute-0-2
The primary node assigned by SGE to this run is compute-0-2
Warning: no access to tty (Bad file descriptor).
Thus no job control in this shell.
Deleting shmid=3964928.
Deleting shmid=3997697.
Deleting shmid=4227074.
source /home/sarom/gamess.github.2017-05-31.14.06/install.info
setenv GMS_PATH /home/sarom/gamess.github.2017-05-31.14.06
setenv GMS_BUILD_DIR /home/sarom/gamess.github.2017-05-31.14.06
setenv GMS_TARGET linux64
setenv GMS_FORTRAN gfortran
setenv GMS_GFORTRAN_VERNO 4.4
setenv GMS_MATHLIB mkl-so
setenv GMS_MATHLIB_PATH /share/apps/intel/compilers_and_libraries_2017.1.132/linux/mkl/lib/intel64
setenv GMS_MKL_VERNO 12
setenv GMS_DDI_COMM sockets
setenv GMS_LIBCCHEM false
setenv GMS_EIGEN_PATH
setenv GMS_PHI false
setenv GMS_SHMTYPE sysv
setenv GMS_OPENMP false
unset echo
ormas-o3-cisd
tests/ci
----- GAMESS execution script 'rungms' -----
This job is running on host compute-0-2.local
under operating system Linux at Fri Jun 2 00:47:27 CDT 2017
Available scratch disk space (Kbyte units) at beginning of the job is
Filesystem           1K-blocks      Used Available Use% Mounted on
/dev/sda1             16126920   3867312  11440408  26% /
GAMESS temporary binary files will be written to /scratch
GAMESS supplementary output files will be written to /home/sarom/restart
Copying input file ormas-o3-cisd.inp to your run's scratch directory...
cp tests/ci/ormas-o3-cisd.inp /scratch/ormas-o3-cisd.F05
unset echo
The generated host list is
compute-0-2.local
/home/sarom/gamess.github.2017-05-31.14.06/ddikick.x /home/sarom/gamess.github.2017-05-31.14.06/gamess.00.x ormas-o3-cisd -ddi 1 1 compute-0-2.local -scr /scratch

 Distributed Data Interface kickoff program.
 Initiating 1 compute processes on 1 nodes to run the following command:
 /home/sarom/gamess.github.2017-05-31.14.06/gamess.00.x ormas-o3-cisd 

          ******************************************************
          *         GAMESS VERSION = 20 APR 2017 (R1)          *
          *             FROM IOWA STATE UNIVERSITY             *
          * M.W.SCHMIDT, K.K.BALDRIDGE, J.A.BOATZ, S.T.ELBERT, *
          *   M.S.GORDON, J.H.JENSEN, S.KOSEKI, N.MATSUNAGA,   *
          *          K.A.NGUYEN, S.J.SU, T.L.WINDUS,           *
          *       TOGETHER WITH M.DUPUIS, J.A.MONTGOMERY       *
          *         J.COMPUT.CHEM.  14, 1347-1363(1993)        *
          **************** 64 BIT LINUX VERSION ****************

  SINCE 1993, STUDENTS AND POSTDOCS WORKING AT IOWA STATE UNIVERSITY
  AND ALSO IN THEIR VARIOUS JOBS AFTER LEAVING ISU HAVE MADE IMPORTANT
  CONTRIBUTIONS TO THE CODE:
     IVANA ADAMOVIC, CHRISTINE AIKENS, YURI ALEXEEV, POOJA ARORA,
     ANDREY ASADCHEV, ROB BELL, PRADIPTA BANDYOPADHYAY, JONATHAN BENTZ,
     BRETT BODE, KURT BRORSEN, CALEB CARLIN, GALINA CHABAN, WEI CHEN,
     CHEOL HO CHOI, PAUL DAY, ALBERT DEFUSCO, NUWAN DESILVA, TIM DUDLEY,
     DMITRI FEDOROV, GRAHAM FLETCHER, MARK FREITAG, KURT GLAESEMANN,
     DAN KEMP, GRANT MERRILL, NORIYUKI MINEZAWA, JONATHAN MULLIN,
     TAKESHI NAGATA, SEAN NEDD, HEATHER NETZLOFF, BOSILJKA NJEGIC, RYAN OLSON,
     MIKE PAK, SPENCER PRUITT, LUKE ROSKOP, JIM SHOEMAKER, LYUDMILA SLIPCHENKO,
     TONY SMITH, SAROM SOK LEANG, JIE SONG, TETSUYA TAKETSUGU, SIMON WEBB,
     PENG XU, SOOHAENG YOO, FEDERICO ZAHARIEV

  ADDITIONAL CODE HAS BEEN PROVIDED BY COLLABORATORS IN OTHER GROUPS:
     IOWA STATE UNIVERSITY:
          JOE IVANIC, AARON WEST, LAIMUTIS BYTAUTAS, KLAUS RUEDENBERG
     UNIVERSITY OF TOKYO: KIMIHIKO HIRAO, TAKAHITO NAKAJIMA,
          TAKAO TSUNEDA, MUNEAKI KAMIYA, SUSUMU YANAGISAWA,
          KIYOSHI YAGI, MAHITO CHIBA, SEIKEN TOKURA, NAOAKI KAWAKAMI
     UNIVERSITY OF AARHUS: FRANK JENSEN
     UNIVERSITY OF IOWA: VISVALDAS KAIRYS, HUI LI
     NATIONAL INST. OF STANDARDS AND TECHNOLOGY: WALT STEVENS, DAVID GARMER
     UNIVERSITY OF PISA: BENEDETTA MENNUCCI, JACOPO TOMASI
     UNIVERSITY OF MEMPHIS: HENRY KURTZ, PRAKASHAN KORAMBATH
     UNIVERSITY OF ALBERTA: TOBY ZENG, MARIUSZ KLOBUKOWSKI
     UNIVERSITY OF NEW ENGLAND: MARK SPACKMAN
     MIE UNIVERSITY: HIROAKI UMEDA
     NAT. INST. OF ADVANCED INDUSTRIAL SCIENCE AND TECHNOLOGY: KAZUO KITAURA
     MICHIGAN STATE UNIVERSITY:
          KAROL KOWALSKI, MARTA WLOCH, JEFFREY GOUR, JESSE LUTZ,
          WEI LI, PIOTR PIECUCH
     UNIVERSITY OF SILESIA: MONIKA MUSIAL, STANISLAW KUCHARSKI
     FACULTES UNIVERSITAIRES NOTRE-DAME DE LA PAIX:
          OLIVIER QUINET, BENOIT CHAMPAGNE
     UNIVERSITY OF CALIFORNIA - SANTA BARBARA: BERNARD KIRTMAN
     INSTITUTE FOR MOLECULAR SCIENCE:
          KAZUYA ISHIMURA, MICHIO KATOUDA, AND SHIGERU NAGASE
     UNIVERSITY OF NOTRE DAME: ANNA POMOGAEVA, DAN CHIPMAN
     KYUSHU UNIVERSITY:
          HARUYUKI NAKANO,
          FENG LONG GU, JACEK KORCHOWIEC, MARCIN MAKOWSKI, AND YURIKO AOKI,
          HIROTOSHI MORI AND EISAKU MIYOSHI
     PENNSYLVANIA STATE UNIVERSITY:
          TZVETELIN IORDANOV, CHET SWALINA, JONATHAN SKONE,
          SHARON HAMMES-SCHIFFER
     WASEDA UNIVERSITY:
          MASATO KOBAYASHI, TOMOKO AKAMA, TSUGUKI TOUMA,
          TAKESHI YOSHIKAWA, YASUHIRO IKABATA, JUNJI SEINO,
          YUYA NAKAJIMA, HIROMI NAKAI
     NANJING UNIVERSITY: SHUHUA LI
     UNIVERSITY OF NEBRASKA:
          PEIFENG SU, DEJUN SI, NANDUN THELLAMUREGE, YALI WANG, HUI LI
     UNIVERSITY OF ZURICH: ROBERTO PEVERATI, KIM BALDRIDGE
     N. COPERNICUS UNIVERSITY AND JACKSON STATE UNIVERSITY:
          MARIA BARYSZ
     UNIVERSITY OF COPENHAGEN: Jimmy Kromann, CASPER STEINMANN
     TOKYO INSTITUTE OF TECHNOLOGY: HIROYA NAKATA
     NAGOYA UNIVERSITY: YOSHIO NISHIMOTO, STEPHAN IRLE
     MOSCOW STATE UNIVERSITY: VLADIMIR MIRONOV

 EXECUTION OF GAMESS BEGUN Fri Jun  2 00:47:27 2017

            ECHO OF THE FIRST FEW INPUT CARDS -
 INPUT CARD>!   ozone...TCSCF plus CISD...aug-cc-pVTZ basis set                             
 INPUT CARD>!   there are 105 AOs, 90 MOs, and 829,005 determinants                         
 INPUT CARD>!                                                                               
 INPUT CARD>!   starting orbitals are RHF.  The TCSCF will excite the HOMO A2               
 INPUT CARD>!   at eigenvalue -0.4846 into virtual B2 at eigenvalue -0.0334,                
 INPUT CARD>!   whose negative value is RHF's way of telling us that ozone                  
 INPUT CARD>!   is not a closed shell.                                                      
 INPUT CARD>!                                                                               
 INPUT CARD>!   GVB FINAL E= -224.4342744325, 20 iters                                      
 INPUT CARD>!   TCSCF CI coefs are 0.895884, -0.444288, so NOON= 1.60522, 0.39697           
 INPUT CARD>!   1-A-1 state CI-SD energy is -225.0355618199 in 18 Davidson iters            
 INPUT CARD>!   dipole moment is 0.233754 at TCSCF level, and 0.410718 at CI-SD level       
 INPUT CARD>!   The CISD yields NOON values of 1.7134 and 0.2916 for NOs 12&13.             
 INPUT CARD>!                                                                               
 INPUT CARD>!   this run takes 1617 seconds on 2.66 GHz Cloverton (15 Apr 2015)             
 INPUT CARD>!         (answers unchanged since 2009)                                        
 INPUT CARD>!                                                                               
 INPUT CARD> $contrl scftyp=gvb runtyp=energy cityp=ormas coord=zmt ispher=1 $end           
 INPUT CARD> $system mwords=50 $end                                                         
 INPUT CARD> $basis  gbasis=cct $end                                                        
 INPUT CARD> $scf    nco=11 nseto=0 npair=1 $end                                            
 INPUT CARD> $scf    dirscf=.true. $end                                                     
 INPUT CARD> $trans  dirtrf=.true. $end                                                     
 INPUT CARD> $guess  guess=moread norb=13 $end                                              
 INPUT CARD> $cidet  ncore=3 nact=87 nels=18 $end                                           
 INPUT CARD> $ormas  nspace=3 mstart(1)=4,12,14                                             
 INPUT CARD>                    mine(1)=14,0,0                                              
 INPUT CARD>                    maxe(1)=16,4,2 $end                                         
 INPUT CARD> $data                                                                          
 INPUT CARD>Ozone...TCSCF/aug-cc-pVTZ...followed by two reference CISD                      
 INPUT CARD>Cnv 2                                                                           
 INPUT CARD>                                                                                
 INPUT CARD>O                                                                               
 INPUT CARD>O 1 rOO                                                                         
 INPUT CARD>O 1 rOO 2 aOOO                                                                  
 INPUT CARD>                                                                                
 INPUT CARD>rOO=1.2557467                                                                   
 INPUT CARD>aOOO=115.148614                                                                 
 INPUT CARD> $end                                                                           
 INPUT CARD>                                                                                
 INPUT CARD>--- CLOSED SHELL ORBITALS --- GENERATED AT Tue Nov 10 19:22:03 2009             
 INPUT CARD>to save disk space, we drop all but the first virtual orbital.                  
 INPUT CARD>E(RHF)= -224.3455649174                                                         
 INPUT CARD> $VEC                                                                           
 INPUT CARD> 1  1 9.76040694E-01-1.07779465E-03 4.29111975E-02 2.17024939E-03 0.00000000E+00
 INPUT CARD> 1  2 0.00000000E+00 2.23272749E-03 0.00000000E+00 0.00000000E+00-1.86594887E-03
 INPUT CARD> 1  3 0.00000000E+00 0.00000000E+00 6.32943170E-04 8.34190876E-05-1.94159278E-04
 INPUT CARD> 1  4 1.10740190E-04 0.00000000E+00 0.00000000E+00 0.00000000E+00-6.23972148E-04
 INPUT CARD> 1  5 4.38165852E-04 1.85806297E-04 0.00000000E+00 0.00000000E+00 0.00000000E+00
 INPUT CARD> 1  6 0.00000000E+00 0.00000000E+00 7.52782223E-05 0.00000000E+00-2.13904675E-04
   50000000 WORDS OF MEMORY AVAILABLE

     BASIS OPTIONS
     -------------
     GBASIS=CCT          IGAUSS=       0      POLAR=NONE    
     NDFUNC=       0     NFFUNC=       0     DIFFSP=       F
     NPFUNC=       0      DIFFS=       F     BASNAM=        


     RUN TITLE
     ---------
 Ozone...TCSCF/aug-cc-pVTZ...followed by two reference CISD                      

 THE POINT GROUP OF THE MOLECULE IS CNV     
 THE ORDER OF THE PRINCIPAL AXIS IS     2

 YOUR FULLY SUBSTITUTED Z-MATRIX IS
 O   
 O      1   1.2557467
 O      1   1.2557467  2  115.1486

 THE MOMENTS OF INERTIA ARE (AMU-ANGSTROM**2)
 IXX=     4.835   IYY=    35.941   IZZ=    40.776

 ATOM      ATOMIC                      COORDINATES (BOHR)
           CHARGE         X                   Y                   Z
 O           8.0     0.0000000000        0.0000000000       -0.8482830198
 O           8.0    -2.0030342782        0.0000000000        0.4241415099
 O           8.0     2.0030342782        0.0000000000        0.4241415099

          INTERNUCLEAR DISTANCES (ANGS.)
          ------------------------------

                1 O          2 O          3 O     

   1 O       0.0000000    1.2557467 *  1.2557467 *
   2 O       1.2557467 *  0.0000000    2.1199203 *
   3 O       1.2557467 *  2.1199203 *  0.0000000  

  * ... LESS THAN  3.000


     ATOMIC BASIS SET
     ----------------
 THE CONTRACTED PRIMITIVE FUNCTIONS HAVE BEEN UNNORMALIZED
 THE CONTRACTED BASIS FUNCTIONS ARE NOW NORMALIZED TO UNITY

  SHELL TYPE  PRIMITIVE        EXPONENT          CONTRACTION COEFFICIENT(S)

 O         

      1   S       1         15330.0000000    0.000520198307
      1   S       2          2299.0000000    0.004023344781
      1   S       3           522.4000000    0.020729083329
      1   S       4           147.3000000    0.081082327080
      1   S       5            47.5500000    0.236226352118
      1   S       6            16.7600000    0.443518209420
      1   S       7             6.2070000    0.358670588689
      1   S       8             0.6882000   -0.008349797237

      2   S       9         15330.0000000   -0.000197236012
      2   S      10          2299.0000000   -0.001535010700
      2   S      11           522.4000000   -0.007951183914
      2   S      12           147.3000000   -0.032113452892
      2   S      13            47.5500000   -0.100269643049
      2   S      14            16.7600000   -0.234047111838
      2   S      15             6.2070000   -0.301410927756
      2   S      16             0.6882000    1.034919649508

      3   S      17             1.7520000    1.000000000000

      4   S      18             0.2384000    1.000000000000

      5   P      19            34.4600000    0.041163489568
      5   P      20             7.7490000    0.257762835858
      5   P      21             2.2800000    0.802419274427

      6   P      22             0.7156000    1.000000000000

      7   P      23             0.2140000    1.000000000000

      8   D      24             2.3140000    1.000000000000

      9   D      25             0.6450000    1.000000000000

     10   F      26             1.4280000    1.000000000000

 O         

     21   S      27         15330.0000000    0.000520198307
     21   S      28          2299.0000000    0.004023344781
     21   S      29           522.4000000    0.020729083329
     21   S      30           147.3000000    0.081082327080
     21   S      31            47.5500000    0.236226352118
     21   S      32            16.7600000    0.443518209420
     21   S      33             6.2070000    0.358670588689
     21   S      34             0.6882000   -0.008349797237

     22   S      35         15330.0000000   -0.000197236012
     22   S      36          2299.0000000   -0.001535010700
     22   S      37           522.4000000   -0.007951183914
     22   S      38           147.3000000   -0.032113452892
     22   S      39            47.5500000   -0.100269643049
     22   S      40            16.7600000   -0.234047111838
     22   S      41             6.2070000   -0.301410927756
     22   S      42             0.6882000    1.034919649508

     23   S      43             1.7520000    1.000000000000

     24   S      44             0.2384000    1.000000000000

     25   P      45            34.4600000    0.041163489568
     25   P      46             7.7490000    0.257762835858
     25   P      47             2.2800000    0.802419274427

     26   P      48             0.7156000    1.000000000000

     27   P      49             0.2140000    1.000000000000

     28   D      50             2.3140000    1.000000000000

     29   D      51             0.6450000    1.000000000000

     30   F      52             1.4280000    1.000000000000

 TOTAL NUMBER OF BASIS SET SHELLS             =   30
 NUMBER OF CARTESIAN GAUSSIAN BASIS FUNCTIONS =  105
 NOTE: THIS RUN WILL RESTRICT THE MO VARIATION SPACE TO SPHERICAL HARMONICS.
 THE NUMBER OF ORBITALS KEPT IN THE VARIATIONAL SPACE WILL BE PRINTED LATER.
 NUMBER OF ELECTRONS                          =   24
 CHARGE OF MOLECULE                           =    0
 SPIN MULTIPLICITY                            =    1
 NUMBER OF OCCUPIED ORBITALS (ALPHA)          =   12
 NUMBER OF OCCUPIED ORBITALS (BETA )          =   12
 TOTAL NUMBER OF ATOMS                        =    3
 THE NUCLEAR REPULSION ENERGY IS       69.9155323283

     $CONTRL OPTIONS
     ---------------
 SCFTYP=GVB          RUNTYP=ENERGY       EXETYP=RUN     
 MPLEVL=       0     CITYP =ORMAS        CCTYP =NONE         VBTYP =NONE    
 DFTTYP=NONE         TDDFT =NONE    
 MULT  =       1     ICHARG=       0     NZVAR =       0     COORD =ZMT     
 PP    =NONE         RELWFN=NONE         LOCAL =NONE         NUMGRD=       F
 ISPHER=       1     NOSYM =       0     MAXIT =      30     UNITS =ANGS    
 PLTORB=       F     MOLPLT=       F     AIMPAC=       F     FRIEND=        
 NPRINT=       7     IREST =       0     GEOM  =INPUT   
 NORMF =       0     NORMP =       0     ITOL  =      20     ICUT  =       9
 INTTYP=BEST         GRDTYP=BEST         QMTTOL= 1.0E-06

     $SYSTEM OPTIONS
     ---------------
  REPLICATED MEMORY=    50000000 WORDS (ON EVERY NODE).
 DISTRIBUTED MEMDDI=           0 MILLION WORDS IN AGGREGATE,
 MEMDDI DISTRIBUTED OVER   1 PROCESSORS IS           0 WORDS/PROCESSOR.
 TOTAL MEMORY REQUESTED ON EACH PROCESSOR=    50000000 WORDS.
 TIMLIM=      525600.00 MINUTES, OR     365.0 DAYS.
 PARALL= F  BALTYP=  DLB     KDIAG=    0  COREFL= F
 MXSEQ2=     300 MXSEQ3=     150  mem10=         0

          ----------------
          PROPERTIES INPUT
          ----------------

     MOMENTS            FIELD           POTENTIAL          DENSITY
 IEMOM =       1   IEFLD =       0   IEPOT =       0   IEDEN =       0
 WHERE =COMASS     WHERE =NUCLEI     WHERE =NUCLEI     WHERE =NUCLEI  
 OUTPUT=BOTH       OUTPUT=BOTH       OUTPUT=BOTH       OUTPUT=BOTH    
 IEMINT=       0   IEFINT=       0                     IEDINT=       0
                                                       MORB  =       0
          EXTRAPOLATION IN EFFECT
          SOSCF IN EFFECT
 ORBITAL PRINTING OPTION: NPREO=     1   105     2     1

          *************************
          ROHF-GVB INPUT PARAMETERS
          *************************

          NORB   =   13          NCO    =   11
          NPAIR  =    1          NSETO  =    0
          PAIR ORBITALS
          PAIR    1 HAS ORBS   12   13

          ----------------------------
          ROHF-GVB COUPLING PARAMETERS
          ----------------------------

          F VECTOR (OCCUPANCIES)
    1   1.0000000000
    2   0.9529411765
    3   0.0470588235
          ALPHA COUPLING COEFFICEINTS

             1           2           3

    1    2.0000000
    2    1.9058824   0.9529412
    3    0.0941176   0.0000000   0.0470588
           BETA COUPLING COEFFICIENTS

             1           2           3

    1   -1.0000000
    2   -0.9529412   0.0000000
    3   -0.0470588  -0.2117647   0.0000000

          NATURAL ORBITAL COEFFICIENTS
          N.O.                PAIR CICOEF-S
            1        0.9761870602    -0.2169304578

     -------------------------------
     INTEGRAL TRANSFORMATION OPTIONS
     -------------------------------
     NWORD  =            0
     CUTOFF = 1.0E-09     MPTRAN =       0
     DIRTRF =       T     AOINTS =DUP     

          ----------------------
          INTEGRAL INPUT OPTIONS
          ----------------------
 NOPK  =       1 NORDER=       0 SCHWRZ=       T

   --- ENCODED Z MATRIX ---
 COORD  TYPE   I   J   K   L   M   N
    1      1    3   1
    2      1    2   1
    3      2    2   1   3

 THE DETERMINANT OF THE G MATRIX IS 10**(    -4)

 THE DETERMINANT OF THE G MATRIX IS 10**(    -4)
 * * * WARNING * * *
 YOUR B MATRIX HAS A SMALL DETERMINANT.
 THIS SUGGESTS YOU MAY HAVE BADLY CHOSEN COORDINATES.

     ------------------------------------------
     THE POINT GROUP IS CNV, NAXIS= 2, ORDER= 4
     ------------------------------------------

 -- VARIATIONAL SPACE WILL BE RESTRICTED TO PURE SPHERICAL HARMONICS ONLY --
 AFTER EXCLUDING CONTAMINANT COMBINATIONS FROM THE CARTESIAN GAUSSIAN BASIS
 SET, THE NUMBER OF SPHERICAL HARMONICS KEPT IN THE VARIATION SPACE IS   90

     DIMENSIONS OF THE SYMMETRY SUBSPACES ARE
 A1  =   33     A2  =   13     B1  =   27     B2  =   17

 ..... DONE SETTING UP THE RUN .....
 STEP CPU TIME =     0.03 TOTAL CPU TIME =        0.0 (    0.0 MIN)
 TOTAL WALL CLOCK TIME=        0.0 SECONDS, CPU UTILIZATION IS  75.00%

          ********************
          1 ELECTRON INTEGRALS
          ********************
 ...... END OF ONE-ELECTRON INTEGRALS ......
 STEP CPU TIME =     0.00 TOTAL CPU TIME =        0.0 (    0.0 MIN)
 TOTAL WALL CLOCK TIME=        0.0 SECONDS, CPU UTILIZATION IS  75.00%

          -------------
          GUESS OPTIONS
          -------------
          GUESS =MOREAD            NORB  =      13          NORDER=       0
          MIX   =       F          PRTMO =       F          PUNMO =       F
          TOLZ  = 1.0E-08          TOLE  = 1.0E-05
          SYMDEN=       F          PURIFY=       F

 INITIAL GUESS ORBITALS GENERATED BY MOREAD   ROUTINE.

 STATISTICS FOR GENERATION OF SYMMETRY ORBITAL -Q- MATRIX
 NUMBER OF CARTESIAN ATOMIC ORBITALS=        105
 NUMBER OF SPHERICAL CONTAMINANTS DROPPED=    15
 NUMBER OF LINEARLY DEPENDENT MOS DROPPED=     0
 TOTAL NUMBER OF MOS IN VARIATION SPACE=      90

 SYMMETRIES FOR INITIAL GUESS ORBITALS FOLLOW.   BOTH SET(S).
    13 ORBITALS ARE OCCUPIED (    3 CORE ORBITALS).
     1=A1       2=B1       3=A1       4=A1       5=B1       6=A1       7=A1  
     8=B1       9=B2      10=B1      11=A1      12=A2      13=B2      14=A1  
    15=A1      16=A1      17=A1      18=A1      19=A1      20=A1      21=A1  
    22=A1      23=A1      24=A1      25=A1      26=A1      27=A1      28=A1  
    29=A1      30=A1      31=A1      32=A1      33=A1      34=A1      35=A1  
    36=A1      37=A1      38=A1      39=A1      40=A1      41=A2      42=A2  
    43=A2      44=A2      45=A2      46=A2      47=A2      48=A2      49=A2  
    50=A2      51=A2      52=A2      53=B1      54=B1      55=B1      56=B1  
    57=B1      58=B1      59=B1      60=B1      61=B1      62=B1      63=B1  
    64=B1      65=B1      66=B1      67=B1      68=B1      69=B1      70=B1  
    71=B1      72=B1      73=B1      74=B1      75=B1      76=B2      77=B2  
    78=B2      79=B2      80=B2      81=B2      82=B2      83=B2      84=B2  
    85=B2      86=B2      87=B2      88=B2      89=B2      90=B2  
 ...... END OF INITIAL ORBITAL SELECTION ......
 STEP CPU TIME =     0.01 TOTAL CPU TIME =        0.0 (    0.0 MIN)
 TOTAL WALL CLOCK TIME=        0.1 SECONDS, CPU UTILIZATION IS  80.00%

                    ----------------------
                    AO INTEGRAL TECHNOLOGY
                    ----------------------
     S,P,L SHELL ROTATED AXIS INTEGRALS, REPROGRAMMED BY
        KAZUYA ISHIMURA (IMS) AND JOSE SIERRA (SYNSTAR).
     S,P,D,L SHELL ROTATED AXIS INTEGRALS PROGRAMMED BY
        KAZUYA ISHIMURA (INSTITUTE FOR MOLECULAR SCIENCE).
     S,P,D,F,G SHELL TO TOTAL QUARTET ANGULAR MOMENTUM SUM 5,
        ERIC PROGRAM BY GRAHAM FLETCHER (ELORET AND NASA ADVANCED
        SUPERCOMPUTING DIVISION, AMES RESEARCH CENTER).
     S,P,D,F,G,L SHELL GENERAL RYS QUADRATURE PROGRAMMED BY
        MICHEL DUPUIS (PACIFIC NORTHWEST NATIONAL LABORATORY).

          --------------------
          2 ELECTRON INTEGRALS
          --------------------

 DIRECT SCF METHOD SKIPS INTEGRAL STORAGE ON DISK.
 DIRECT TRANSFORMATION SKIPS AO INTEGRAL STORAGE ON DISK.
  ...... END OF TWO-ELECTRON INTEGRALS .....
 STEP CPU TIME =     0.01 TOTAL CPU TIME =        0.0 (    0.0 MIN)
 TOTAL WALL CLOCK TIME=        0.1 SECONDS, CPU UTILIZATION IS  83.33%

          ------------------------
          ROHF-GVB SCF CALCULATION
          ------------------------
 GVB STEP WILL USE    191565 WORDS OF MEMORY.

     MAXIT=  30   NPUNCH= 2   SQCDF TOL=2.0000E-06
     NUCLEAR ENERGY=       69.9155323283
     EXTRAP=T   DAMP=F   SHIFT=F   RSTRCT=F   DIIS=F  SOSCF=T
     SOSCF WILL OPTIMIZE    1024 ORBITAL ROTATIONS, SOGTOL=   0.250

 DIRECT SCF CALCULATION, SCHWRZ=T   FDIFF=F
 SCHWARZ INEQUALITY OVERHEAD:      5565 INTEGRALS, T=        0.01

                                                                           NONZERO    BLOCKS
 ITER EX     TOTAL ENERGY       E CHANGE        SQCDF       ORB. GRAD       INTEGRALS   SKIPPED
          ---------------START SECOND ORDER SCF---------------
   0  0     -224.398245043  -224.398245043   0.018890106   0.038697028        3518253       360
   1  1     -224.416858761    -0.018613718   0.039103625   0.018201640        3518477       352
   2  2     -224.427192335    -0.010333575   0.001715905   0.021755238        3518571       342
   3  3     -224.431413314    -0.004220979   0.001325063   0.008499953        3518231       354
   4  4     -224.433320532    -0.001907218   0.000371660   0.003976243        3518282       360
   5  5     -224.433871924    -0.000551392   0.000201259   0.003632510        3518288       358
   6  6     -224.434125549    -0.000253625   0.000038094   0.002822588        3518289       357
   7  7     -224.434201114    -0.000075565   0.000040327   0.002179111        3518290       356
   8  8     -224.434250471    -0.000049357   0.000011205   0.001277645        3518290       356
   9  9     -224.434266706    -0.000016235   0.000002646   0.000729039        3518301       355
  10 10     -224.434272354    -0.000005648   0.000000548   0.000281237        3518290       356
  11 11     -224.434273792    -0.000001439   0.000000170   0.000131220        3518290       356
  12 12     -224.434274196    -0.000000404   0.000000051   0.000083368        3518290       356
  13 13     -224.434274331    -0.000000135   0.000000019   0.000078690        3518290       356
  14 14     -224.434274390    -0.000000059   0.000000012   0.000029128        3518290       356
  15 15     -224.434274417    -0.000000027   0.000000005   0.000027996        3518290       356
  16 16     -224.434274427    -0.000000010   0.000000001   0.000018315        3518290       356
  17 17     -224.434274431    -0.000000004   0.000000000   0.000009197        3518290       356
  18 18     -224.434274432    -0.000000001   0.000000000   0.000003555        3518290       356
  19 19     -224.434274432    -0.000000000   0.000000000   0.000001720        3518290       356
  20 20     -224.434274432    -0.000000000   0.000000000   0.000001028        3518290       356

          ----------------
          ENERGY CONVERGED
          ----------------

 FINAL GVB ENERGY IS     -224.4342744324 AFTER  20 ITERATIONS

          ----------------------------
          SCF STATISTICS PER ITERATION
          ----------------------------
          NUMBER OF INTEGRAL PASSES       1
          FOCK FORMATION TIME         0.531
          GEMINAL OPT TIME            0.000
          MIXORB  OPT TIME            0.000
          OCBSE   OPT TIME            0.000

          ----------------
          PAIR INFORMATION
          ----------------
      ORBITAL   CI COEFFICIENTS    OCCUPATION NUMBERS   GVB      ENERGY
 PAIR 1   2     ORB 1     ORB 2      ORB 1     ORB 2    OVERLAP  LOWERING
  1  12  13    0.895884 -0.444288   1.60522   0.39478   0.33697  -0.11863

     THE MAXIMUM LAGRANGIAN ASYMMETRY IS 8.5235106E-07

          ------------
          EIGENVECTORS
          ------------

                      1          2          3          4          5
                  -20.8157   -20.6970   -20.6970    -1.7350    -1.4201
                     A1         B1         A1         A1         B1  
    1  O  1  S    0.975839  -0.000000  -0.003395  -0.002011   0.000000
    2  O  1  S   -0.001094  -0.000000   0.001439   0.417666   0.000000
    3  O  1  S    0.043265  -0.000000  -0.000777   0.108208   0.000000
    4  O  1  S    0.001914  -0.000000   0.001899   0.173478   0.000000
    5  O  1  X    0.000000   0.000139  -0.000000   0.000000  -0.143906
    6  O  1  Y    0.000000  -0.000000  -0.000000   0.000000   0.000000
    7  O  1  Z    0.002499  -0.000000  -0.000074   0.056085   0.000000
    8  O  1  X    0.000000  -0.001952  -0.000000   0.000000  -0.182733
    9  O  1  Y    0.000000  -0.000000  -0.000000   0.000000   0.000000
   10  O  1  Z   -0.002050  -0.000000   0.001306   0.079920   0.000000
   11  O  1  X    0.000000   0.000222  -0.000000   0.000000  -0.031112
   12  O  1  Y    0.000000  -0.000000  -0.000000   0.000000   0.000000
   13  O  1  Z    0.000581  -0.000000   0.000747   0.016691   0.000000
   14  O  1 XX    0.000029  -0.000000   0.000106   0.005314   0.000000
   15  O  1 YY   -0.000063  -0.000000  -0.000064  -0.005766   0.000000
   16  O  1 ZZ    0.000034  -0.000000  -0.000042   0.000452   0.000000
   17  O  1 XY    0.000000  -0.000000  -0.000000   0.000000   0.000000
   18  O  1 XZ    0.000000  -0.000162  -0.000000   0.000000  -0.012753
   19  O  1 YZ    0.000000  -0.000000  -0.000000   0.000000   0.000000
   20  O  1 XX   -0.000737  -0.000000   0.000719   0.009982   0.000000
   21  O  1 YY    0.000600  -0.000000  -0.000745  -0.010899   0.000000
   22  O  1 ZZ    0.000137  -0.000000   0.000025   0.000917   0.000000
   23  O  1 XY    0.000000  -0.000000  -0.000000   0.000000   0.000000
   24  O  1 XZ    0.000000  -0.000992  -0.000000   0.000000  -0.027998
   25  O  1 YZ    0.000000  -0.000000  -0.000000   0.000000   0.000000
   26  O  1 XXX   0.000000  -0.000055  -0.000000   0.000000  -0.002448
   27  O  1 YYY   0.000000  -0.000000  -0.000000   0.000000   0.000000
   28  O  1 ZZZ   0.000090  -0.000000  -0.000090  -0.003689   0.000000
   29  O  1 XXY   0.000000  -0.000000  -0.000000   0.000000   0.000000
   30  O  1 XXZ  -0.000244  -0.000000   0.000222   0.007895   0.000000
   31  O  1 YYX   0.000000   0.000139  -0.000000   0.000000   0.004669
   32  O  1 YYZ   0.000123  -0.000000  -0.000100  -0.002946   0.000000
   33  O  1 ZZX   0.000000  -0.000065  -0.000000   0.000000  -0.001385
   34  O  1 ZZY   0.000000  -0.000000  -0.000000   0.000000   0.000000
   35  O  1 XYZ   0.000000  -0.000000  -0.000000   0.000000   0.000000
   36  O  2  S    0.003382   0.689970   0.690216  -0.001981  -0.001577
   37  O  2  S    0.000911  -0.000835  -0.000398   0.231738   0.365472
   38  O  2  S   -0.000190   0.030614   0.030568   0.058805   0.097303
   39  O  2  S   -0.000051   0.001889   0.000447   0.082736   0.206562
   40  O  2  X   -0.000015   0.001346   0.001367   0.050427   0.028645
   41  O  2  Y    0.000000  -0.000000  -0.000000   0.000000   0.000000
   42  O  2  Z   -0.000007  -0.000787  -0.000801  -0.026677  -0.028988
   43  O  2  X    0.000948  -0.001347  -0.001396   0.067912   0.042418
   44  O  2  Y    0.000000  -0.000000  -0.000000   0.000000   0.000000
   45  O  2  Z   -0.000594   0.000795   0.000816  -0.035233  -0.040830
   46  O  2  X   -0.000029   0.000443  -0.000278   0.007340   0.013486
   47  O  2  Y    0.000000  -0.000000  -0.000000   0.000000   0.000000
   48  O  2  Z   -0.000128  -0.000161   0.000034  -0.004552  -0.011103
   49  O  2 XX    0.000067   0.000001   0.000048   0.004734   0.002067
   50  O  2 YY   -0.000049  -0.000072  -0.000105  -0.003807  -0.002522
   51  O  2 ZZ   -0.000018   0.000071   0.000057  -0.000928   0.000454
   52  O  2 XY    0.000000  -0.000000  -0.000000   0.000000   0.000000
   53  O  2 XZ   -0.000100   0.000038   0.000034  -0.005156  -0.004151
   54  O  2 YZ    0.000000  -0.000000  -0.000000   0.000000   0.000000
   55  O  2 XX    0.000355  -0.000304  -0.000467   0.010038   0.004814
   56  O  2 YY   -0.000328   0.000183   0.000310  -0.007379  -0.006500
   57  O  2 ZZ   -0.000026   0.000120   0.000157  -0.002658   0.001686
   58  O  2 XY    0.000000  -0.000000  -0.000000   0.000000   0.000000
   59  O  2 XZ   -0.000469   0.000580   0.000569  -0.010911  -0.009203
   60  O  2 YZ    0.000000  -0.000000  -0.000000   0.000000   0.000000
   61  O  2 XXX   0.000060  -0.000021  -0.000068   0.001427   0.000269
   62  O  2 YYY   0.000000  -0.000000  -0.000000   0.000000   0.000000
   63  O  2 ZZZ   0.000042  -0.000094  -0.000051   0.002365   0.001782
   64  O  2 XXY   0.000000  -0.000000  -0.000000   0.000000   0.000000
   65  O  2 XXZ  -0.000084   0.000185   0.000143  -0.004328  -0.003892
   66  O  2 YYX  -0.000066   0.000084   0.000118  -0.002189  -0.002051
   67  O  2 YYZ   0.000028  -0.000058  -0.000074   0.001155   0.001501
   68  O  2 ZZX  -0.000015  -0.000056  -0.000027   0.000274   0.001690
   69  O  2 ZZY   0.000000  -0.000000  -0.000000   0.000000   0.000000
   70  O  2 XYZ   0.000000  -0.000000  -0.000000   0.000000   0.000000
   71  O  3  S    0.003382  -0.689970   0.690216  -0.001981   0.001577
   72  O  3  S    0.000911   0.000835  -0.000398   0.231738  -0.365472
   73  O  3  S   -0.000190  -0.030614   0.030568   0.058805  -0.097303
   74  O  3  S   -0.000051  -0.001889   0.000447   0.082736  -0.206562
   75  O  3  X    0.000015   0.001346  -0.001367  -0.050427   0.028645
   76  O  3  Y    0.000000  -0.000000  -0.000000   0.000000   0.000000
   77  O  3  Z   -0.000007   0.000787  -0.000801  -0.026677   0.028988
   78  O  3  X   -0.000948  -0.001347   0.001396  -0.067912   0.042418
   79  O  3  Y    0.000000  -0.000000  -0.000000   0.000000   0.000000
   80  O  3  Z   -0.000594  -0.000795   0.000816  -0.035233   0.040830
   81  O  3  X    0.000029   0.000443   0.000278  -0.007340   0.013486
   82  O  3  Y    0.000000  -0.000000  -0.000000   0.000000   0.000000
   83  O  3  Z   -0.000128   0.000161   0.000034  -0.004552   0.011103
   84  O  3 XX    0.000067  -0.000001   0.000048   0.004734  -0.002067
   85  O  3 YY   -0.000049   0.000072  -0.000105  -0.003807   0.002522
   86  O  3 ZZ   -0.000018  -0.000071   0.000057  -0.000928  -0.000454
   87  O  3 XY    0.000000  -0.000000  -0.000000   0.000000   0.000000
   88  O  3 XZ    0.000100   0.000038  -0.000034   0.005156  -0.004151
   89  O  3 YZ    0.000000  -0.000000  -0.000000   0.000000   0.000000
   90  O  3 XX    0.000355   0.000304  -0.000467   0.010038  -0.004814
   91  O  3 YY   -0.000328  -0.000183   0.000310  -0.007379   0.006500
   92  O  3 ZZ   -0.000026  -0.000120   0.000157  -0.002658  -0.001686
   93  O  3 XY    0.000000  -0.000000  -0.000000   0.000000   0.000000
   94  O  3 XZ    0.000469   0.000580  -0.000569   0.010911  -0.009203
   95  O  3 YZ    0.000000  -0.000000  -0.000000   0.000000   0.000000
   96  O  3 XXX  -0.000060  -0.000021   0.000068  -0.001427   0.000269
   97  O  3 YYY   0.000000  -0.000000  -0.000000   0.000000   0.000000
   98  O  3 ZZZ   0.000042   0.000094  -0.000051   0.002365  -0.001782
   99  O  3 XXY   0.000000  -0.000000  -0.000000   0.000000   0.000000
  100  O  3 XXZ  -0.000084  -0.000185   0.000143  -0.004328   0.003892
  101  O  3 YYX   0.000066   0.000084  -0.000118   0.002189  -0.002051
  102  O  3 YYZ   0.000028   0.000058  -0.000074   0.001155  -0.001501
  103  O  3 ZZX   0.000015  -0.000056   0.000027  -0.000274   0.001690
  104  O  3 ZZY   0.000000  -0.000000  -0.000000   0.000000   0.000000
  105  O  3 XYZ   0.000000  -0.000000  -0.000000   0.000000   0.000000

                      6          7          8          9         10
                   -1.0671    -0.8053    -0.7855    -0.7680    -0.5600
                     A1         A1         B1         B2         B1  
    1  O  1  S    0.006578   0.002129  -0.000000   0.000000  -0.000000
    2  O  1  S    0.366017  -0.051499  -0.000000   0.000000  -0.000000
    3  O  1  S    0.102944  -0.020087  -0.000000   0.000000  -0.000000
    4  O  1  S    0.308500  -0.065008  -0.000000   0.000000  -0.000000
    5  O  1  X   -0.000000  -0.000000   0.213281   0.000000  -0.048268
    6  O  1  Y   -0.000000  -0.000000  -0.000000   0.319161  -0.000000
    7  O  1  Z   -0.089267   0.246028  -0.000000   0.000000  -0.000000
    8  O  1  X   -0.000000  -0.000000   0.283135   0.000000  -0.065069
    9  O  1  Y   -0.000000  -0.000000  -0.000000   0.419018  -0.000000
   10  O  1  Z   -0.103865   0.320610  -0.000000   0.000000  -0.000000
   11  O  1  X   -0.000000  -0.000000   0.098941   0.000000  -0.011053
   12  O  1  Y   -0.000000  -0.000000  -0.000000   0.260307  -0.000000
   13  O  1  Z   -0.033443   0.174514  -0.000000   0.000000  -0.000000
   14  O  1 XX   -0.000690  -0.003450  -0.000000   0.000000  -0.000000
   15  O  1 YY    0.002367  -0.004334  -0.000000   0.000000  -0.000000
   16  O  1 ZZ   -0.001678   0.007784  -0.000000   0.000000  -0.000000
   17  O  1 XY   -0.000000  -0.000000  -0.000000   0.000000  -0.000000
   18  O  1 XZ   -0.000000  -0.000000   0.009778   0.000000  -0.010018
   19  O  1 YZ   -0.000000  -0.000000  -0.000000   0.007690  -0.000000
   20  O  1 XX    0.001488  -0.014432  -0.000000   0.000000  -0.000000
   21  O  1 YY    0.004403  -0.013362  -0.000000   0.000000  -0.000000
   22  O  1 ZZ   -0.005890   0.027794  -0.000000   0.000000  -0.000000
   23  O  1 XY   -0.000000  -0.000000  -0.000000   0.000000  -0.000000
   24  O  1 XZ   -0.000000  -0.000000   0.017982   0.000000  -0.024949
   25  O  1 YZ   -0.000000  -0.000000  -0.000000   0.028779  -0.000000
   26  O  1 XXX  -0.000000  -0.000000   0.004250   0.000000   0.004909
   27  O  1 YYY  -0.000000  -0.000000  -0.000000  -0.005756  -0.000000
   28  O  1 ZZZ  -0.000898  -0.000144  -0.000000   0.000000  -0.000000
   29  O  1 XXY  -0.000000  -0.000000  -0.000000   0.006737  -0.000000
   30  O  1 XXZ   0.000643   0.003628  -0.000000   0.000000  -0.000000
   31  O  1 YYX  -0.000000  -0.000000  -0.004360   0.000000   0.000799
   32  O  1 YYZ   0.000562  -0.003435  -0.000000   0.000000  -0.000000
   33  O  1 ZZX  -0.000000  -0.000000  -0.001342   0.000000  -0.007385
   34  O  1 ZZY  -0.000000  -0.000000  -0.000000   0.000985  -0.000000
   35  O  1 XYZ  -0.000000  -0.000000  -0.000000   0.000000  -0.000000
   36  O  2  S   -0.001817   0.002709   0.000752   0.000000   0.001193
   37  O  2  S   -0.316189  -0.097369   0.172865   0.000000  -0.002585
   38  O  2  S   -0.088905  -0.030892   0.052566   0.000000  -0.002846
   39  O  2  S   -0.269832  -0.145340   0.194995   0.000000  -0.006053
   40  O  2  X    0.049603   0.159200  -0.115539   0.000000   0.201697
   41  O  2  Y   -0.000000  -0.000000  -0.000000   0.103558  -0.000000
   42  O  2  Z   -0.057459   0.069494   0.148818   0.000000   0.190134
   43  O  2  X    0.055075   0.203291  -0.145793   0.000000   0.260476
   44  O  2  Y   -0.000000  -0.000000  -0.000000   0.137187  -0.000000
   45  O  2  Z   -0.068058   0.089301   0.192038   0.000000   0.241694
   46  O  2  X    0.013776   0.094941  -0.079685   0.000000   0.193755
   47  O  2  Y   -0.000000  -0.000000  -0.000000   0.062045  -0.000000
   48  O  2  Z   -0.023416   0.051785   0.100392   0.000000   0.179925
   49  O  2 XX    0.001488   0.007495  -0.003454   0.000000   0.004161
   50  O  2 YY   -0.001986  -0.002597   0.004451   0.000000  -0.001325
   51  O  2 ZZ    0.000499  -0.004898  -0.000997   0.000000  -0.002836
   52  O  2 XY   -0.000000  -0.000000  -0.000000   0.006305  -0.000000
   53  O  2 XZ   -0.004303  -0.001557   0.008185   0.000000  -0.001190
   54  O  2 YZ   -0.000000  -0.000000  -0.000000  -0.003869  -0.000000
   55  O  2 XX    0.001587   0.019639  -0.007222   0.000000   0.015083
   56  O  2 YY   -0.002267  -0.006892   0.011124   0.000000  -0.003666
   57  O  2 ZZ    0.000680  -0.012747  -0.003902   0.000000  -0.011417
   58  O  2 XY   -0.000000  -0.000000  -0.000000   0.021797  -0.000000
   59  O  2 XZ   -0.009471  -0.002756   0.021647   0.000000  -0.002198
   60  O  2 YZ   -0.000000  -0.000000  -0.000000  -0.013307  -0.000000
   61  O  2 XXX  -0.000688   0.004259   0.000941   0.000000   0.003006
   62  O  2 YYY  -0.000000  -0.000000  -0.000000  -0.002855  -0.000000
   63  O  2 ZZZ   0.001074   0.001802  -0.002866   0.000000   0.001226
   64  O  2 XXY  -0.000000  -0.000000  -0.000000   0.003780  -0.000000
   65  O  2 XXZ  -0.001805  -0.002956   0.005232   0.000000  -0.002960
   66  O  2 YYX  -0.000348  -0.001416   0.002090   0.000000  -0.000147
   67  O  2 YYZ   0.000364   0.000538  -0.001386   0.000000   0.001314
   68  O  2 ZZX   0.001272  -0.004297  -0.003352   0.000000  -0.003885
   69  O  2 ZZY  -0.000000  -0.000000  -0.000000   0.000050  -0.000000
   70  O  2 XYZ  -0.000000  -0.000000  -0.000000  -0.004384  -0.000000
   71  O  3  S   -0.001817   0.002709  -0.000752   0.000000  -0.001193
   72  O  3  S   -0.316189  -0.097369  -0.172865   0.000000   0.002585
   73  O  3  S   -0.088905  -0.030892  -0.052566   0.000000   0.002846
   74  O  3  S   -0.269832  -0.145340  -0.194995   0.000000   0.006053
   75  O  3  X   -0.049603  -0.159200  -0.115539   0.000000   0.201697
   76  O  3  Y   -0.000000  -0.000000  -0.000000   0.103558  -0.000000
   77  O  3  Z   -0.057459   0.069494  -0.148818   0.000000  -0.190134
   78  O  3  X   -0.055075  -0.203291  -0.145793   0.000000   0.260476
   79  O  3  Y   -0.000000  -0.000000  -0.000000   0.137187  -0.000000
   80  O  3  Z   -0.068058   0.089301  -0.192038   0.000000  -0.241694
   81  O  3  X   -0.013776  -0.094941  -0.079685   0.000000   0.193755
   82  O  3  Y   -0.000000  -0.000000  -0.000000   0.062045  -0.000000
   83  O  3  Z   -0.023416   0.051785  -0.100392   0.000000  -0.179925
   84  O  3 XX    0.001488   0.007495   0.003454   0.000000  -0.004161
   85  O  3 YY   -0.001986  -0.002597  -0.004451   0.000000   0.001325
   86  O  3 ZZ    0.000499  -0.004898   0.000997   0.000000   0.002836
   87  O  3 XY   -0.000000  -0.000000  -0.000000  -0.006305  -0.000000
   88  O  3 XZ    0.004303   0.001557   0.008185   0.000000  -0.001190
   89  O  3 YZ   -0.000000  -0.000000  -0.000000  -0.003869  -0.000000
   90  O  3 XX    0.001587   0.019639   0.007222   0.000000  -0.015083
   91  O  3 YY   -0.002267  -0.006892  -0.011124   0.000000   0.003666
   92  O  3 ZZ    0.000680  -0.012747   0.003902   0.000000   0.011417
   93  O  3 XY   -0.000000  -0.000000  -0.000000  -0.021797  -0.000000
   94  O  3 XZ    0.009471   0.002756   0.021647   0.000000  -0.002198
   95  O  3 YZ   -0.000000  -0.000000  -0.000000  -0.013307  -0.000000
   96  O  3 XXX   0.000688  -0.004259   0.000941   0.000000   0.003006
   97  O  3 YYY  -0.000000  -0.000000  -0.000000  -0.002855  -0.000000
   98  O  3 ZZZ   0.001074   0.001802   0.002866   0.000000  -0.001226
   99  O  3 XXY  -0.000000  -0.000000  -0.000000   0.003780  -0.000000
  100  O  3 XXZ  -0.001805  -0.002956  -0.005232   0.000000   0.002960
  101  O  3 YYX   0.000348   0.001416   0.002090   0.000000  -0.000147
  102  O  3 YYZ   0.000364   0.000538   0.001386   0.000000  -0.001314
  103  O  3 ZZX  -0.001272   0.004297  -0.003352   0.000000  -0.003885
  104  O  3 ZZY  -0.000000  -0.000000  -0.000000   0.000050  -0.000000
  105  O  3 XYZ  -0.000000  -0.000000  -0.000000   0.004384  -0.000000

                     11         12         13         14         15
                   -0.5375    -0.3717    -0.0295     0.3283     0.4069
                     A1         A2         B2         A1         B1  
    1  O  1  S   -0.002285   0.000000  -0.000000  -0.009796   0.000000
    2  O  1  S    0.106413   0.000000  -0.000000   0.276703   0.000000
    3  O  1  S    0.036934   0.000000  -0.000000   0.071723   0.000000
    4  O  1  S    0.184570   0.000000  -0.000000   2.126530   0.000000
    5  O  1  X    0.000000   0.000000  -0.000000   0.000000   0.257643
    6  O  1  Y    0.000000   0.000000  -0.201892   0.000000   0.000000
    7  O  1  Z   -0.197404   0.000000  -0.000000   0.174254   0.000000
    8  O  1  X    0.000000   0.000000  -0.000000   0.000000   0.414923
    9  O  1  Y    0.000000   0.000000  -0.266763   0.000000   0.000000
   10  O  1  Z   -0.251082   0.000000  -0.000000   0.270282   0.000000
   11  O  1  X    0.000000   0.000000  -0.000000   0.000000   1.826569
   12  O  1  Y    0.000000   0.000000  -0.276838   0.000000   0.000000
   13  O  1  Z   -0.197476   0.000000  -0.000000   1.036662   0.000000
   14  O  1 XX   -0.009282   0.000000  -0.000000  -0.014664   0.000000
   15  O  1 YY    0.005531   0.000000  -0.000000   0.013621   0.000000
   16  O  1 ZZ    0.003751   0.000000  -0.000000   0.001043   0.000000
   17  O  1 XY    0.000000  -0.009647  -0.000000   0.000000   0.000000
   18  O  1 XZ    0.000000   0.000000  -0.000000   0.000000  -0.021993
   19  O  1 YZ    0.000000   0.000000   0.000521   0.000000   0.000000
   20  O  1 XX   -0.030955   0.000000  -0.000000   0.022596   0.000000
   21  O  1 YY    0.017580   0.000000  -0.000000  -0.034178   0.000000
   22  O  1 ZZ    0.013375   0.000000  -0.000000   0.011581   0.000000
   23  O  1 XY    0.000000  -0.034611  -0.000000   0.000000   0.000000
   24  O  1 XZ    0.000000   0.000000  -0.000000   0.000000   0.069836
   25  O  1 YZ    0.000000   0.000000  -0.009858   0.000000   0.000000
   26  O  1 XXX   0.000000   0.000000  -0.000000   0.000000   0.007159
   27  O  1 YYY   0.000000   0.000000   0.000508   0.000000   0.000000
   28  O  1 ZZZ   0.003959   0.000000  -0.000000  -0.005650   0.000000
   29  O  1 XXY   0.000000   0.000000  -0.000836   0.000000   0.000000
   30  O  1 XXZ  -0.006570   0.000000  -0.000000   0.011970   0.000000
   31  O  1 YYX   0.000000   0.000000  -0.000000   0.000000  -0.008817
   32  O  1 YYZ   0.001258   0.000000  -0.000000  -0.004389   0.000000
   33  O  1 ZZX   0.000000   0.000000  -0.000000   0.000000  -0.000788
   34  O  1 ZZY   0.000000   0.000000   0.000154   0.000000   0.000000
   35  O  1 XYZ   0.000000  -0.005707  -0.000000   0.000000   0.000000
   36  O  2  S   -0.007097   0.000000  -0.000000   0.009891   0.001316
   37  O  2  S   -0.017048   0.000000  -0.000000  -0.115538   0.179705
   38  O  2  S   -0.000906   0.000000  -0.000000  -0.027612   0.041321
   39  O  2  S    0.056124   0.000000  -0.000000  -0.995610   1.316275
   40  O  2  X    0.031105   0.000000  -0.000000  -0.161199   0.080886
   41  O  2  Y    0.000000   0.269131   0.285354   0.000000   0.000000
   42  O  2  Z    0.238453   0.000000  -0.000000   0.061796  -0.109762
   43  O  2  X    0.036208   0.000000  -0.000000  -0.237922   0.113029
   44  O  2  Y    0.000000   0.347917   0.364047   0.000000   0.000000
   45  O  2  Z    0.302953   0.000000  -0.000000   0.100854  -0.154664
   46  O  2  X    0.060446   0.000000  -0.000000  -0.899438   0.878164
   47  O  2  Y    0.000000   0.248311   0.184736   0.000000   0.000000
   48  O  2  Z    0.232454   0.000000  -0.000000   0.365003  -0.752981
   49  O  2 XX   -0.001957   0.000000  -0.000000   0.012610  -0.004371
   50  O  2 YY    0.001780   0.000000  -0.000000  -0.006677   0.008281
   51  O  2 ZZ    0.000177   0.000000  -0.000000  -0.005932  -0.003909
   52  O  2 XY    0.000000   0.003163  -0.000387   0.000000   0.000000
   53  O  2 XZ    0.003653   0.000000  -0.000000  -0.009481   0.013168
   54  O  2 YZ    0.000000  -0.002168   0.000595   0.000000   0.000000
   55  O  2 XX   -0.001145   0.000000  -0.000000  -0.023359   0.044686
   56  O  2 YY    0.003559   0.000000  -0.000000   0.027239  -0.026431
   57  O  2 ZZ   -0.002415   0.000000  -0.000000  -0.003880  -0.018254
   58  O  2 XY    0.000000   0.014136  -0.008563   0.000000   0.000000
   59  O  2 XZ    0.010036   0.000000  -0.000000   0.028051  -0.042412
   60  O  2 YZ    0.000000  -0.008738   0.002533   0.000000   0.000000
   61  O  2 XXX   0.000659   0.000000  -0.000000   0.000187   0.004564
   62  O  2 YYY   0.000000   0.000866   0.007673   0.000000   0.000000
   63  O  2 ZZZ  -0.002027   0.000000  -0.000000  -0.001431   0.005906
   64  O  2 XXY   0.000000   0.000904  -0.004949   0.000000   0.000000
   65  O  2 XXZ   0.002236   0.000000  -0.000000   0.004883  -0.009065
   66  O  2 YYX   0.001249   0.000000  -0.000000   0.003224  -0.004504
   67  O  2 YYZ   0.000484   0.000000  -0.000000  -0.002964   0.001141
   68  O  2 ZZX  -0.002133   0.000000  -0.000000  -0.003475  -0.001619
   69  O  2 ZZY   0.000000  -0.002067  -0.005346   0.000000   0.000000
   70  O  2 XYZ   0.000000  -0.003248  -0.000536   0.000000   0.000000
   71  O  3  S   -0.007097   0.000000  -0.000000   0.009891  -0.001316
   72  O  3  S   -0.017048   0.000000  -0.000000  -0.115538  -0.179705
   73  O  3  S   -0.000906   0.000000  -0.000000  -0.027612  -0.041321
   74  O  3  S    0.056124   0.000000  -0.000000  -0.995610  -1.316275
   75  O  3  X   -0.031105   0.000000  -0.000000   0.161199   0.080886
   76  O  3  Y    0.000000  -0.269131   0.285354   0.000000   0.000000
   77  O  3  Z    0.238453   0.000000  -0.000000   0.061796   0.109762
   78  O  3  X   -0.036208   0.000000  -0.000000   0.237922   0.113029
   79  O  3  Y    0.000000  -0.347917   0.364047   0.000000   0.000000
   80  O  3  Z    0.302953   0.000000  -0.000000   0.100854   0.154664
   81  O  3  X   -0.060446   0.000000  -0.000000   0.899438   0.878164
   82  O  3  Y    0.000000  -0.248311   0.184736   0.000000   0.000000
   83  O  3  Z    0.232454   0.000000  -0.000000   0.365003   0.752981
   84  O  3 XX   -0.001957   0.000000  -0.000000   0.012610   0.004371
   85  O  3 YY    0.001780   0.000000  -0.000000  -0.006677  -0.008281
   86  O  3 ZZ    0.000177   0.000000  -0.000000  -0.005932   0.003909
   87  O  3 XY    0.000000   0.003163   0.000387   0.000000   0.000000
   88  O  3 XZ   -0.003653   0.000000  -0.000000   0.009481   0.013168
   89  O  3 YZ    0.000000   0.002168   0.000595   0.000000   0.000000
   90  O  3 XX   -0.001145   0.000000  -0.000000  -0.023359  -0.044686
   91  O  3 YY    0.003559   0.000000  -0.000000   0.027239   0.026431
   92  O  3 ZZ   -0.002415   0.000000  -0.000000  -0.003880   0.018254
   93  O  3 XY    0.000000   0.014136   0.008563   0.000000   0.000000
   94  O  3 XZ   -0.010036   0.000000  -0.000000  -0.028051  -0.042412
   95  O  3 YZ    0.000000   0.008738   0.002533   0.000000   0.000000
   96  O  3 XXX  -0.000659   0.000000  -0.000000  -0.000187   0.004564
   97  O  3 YYY   0.000000  -0.000866   0.007673   0.000000   0.000000
   98  O  3 ZZZ  -0.002027   0.000000  -0.000000  -0.001431  -0.005906
   99  O  3 XXY   0.000000  -0.000904  -0.004949   0.000000   0.000000
  100  O  3 XXZ   0.002236   0.000000  -0.000000   0.004883   0.009065
  101  O  3 YYX  -0.001249   0.000000  -0.000000  -0.003224  -0.004504
  102  O  3 YYZ   0.000484   0.000000  -0.000000  -0.002964  -0.001141
  103  O  3 ZZX   0.002133   0.000000  -0.000000   0.003475  -0.001619
  104  O  3 ZZY   0.000000   0.002067  -0.005346   0.000000   0.000000
  105  O  3 XYZ   0.000000  -0.003248   0.000536   0.000000   0.000000

                     16         17         18         19         20
                    0.6632     0.6724     0.7086     0.7316     0.7529
                     A1         B2         B1         A1         B1  
    1  O  1  S   -0.004254   0.000000  -0.000000   0.022718  -0.000000
    2  O  1  S    0.006003   0.000000  -0.000000   0.080777  -0.000000
    3  O  1  S   -0.054043   0.000000  -0.000000   0.000939  -0.000000
    4  O  1  S    2.327171   0.000000  -0.000000   0.494321  -0.000000
    5  O  1  X    0.000000   0.000000  -0.255898  -0.000000   0.000991
    6  O  1  Y    0.000000  -0.156217  -0.000000  -0.000000  -0.000000
    7  O  1  Z   -0.247533   0.000000  -0.000000  -0.070982  -0.000000
    8  O  1  X    0.000000   0.000000  -0.311330  -0.000000  -0.308109
    9  O  1  Y    0.000000  -0.458656  -0.000000  -0.000000  -0.000000
   10  O  1  Z   -0.460765   0.000000  -0.000000  -0.120098  -0.000000
   11  O  1  X    0.000000   0.000000   1.735481  -0.000000   0.516529
   12  O  1  Y    0.000000   0.397819  -0.000000  -0.000000  -0.000000
   13  O  1  Z    1.695199   0.000000  -0.000000   0.863069  -0.000000
   14  O  1 XX   -0.000013   0.000000  -0.000000   0.009502  -0.000000
   15  O  1 YY    0.013562   0.000000  -0.000000   0.005936  -0.000000
   16  O  1 ZZ   -0.013549   0.000000  -0.000000  -0.015437  -0.000000
   17  O  1 XY    0.000000   0.000000  -0.000000  -0.000000  -0.000000
   18  O  1 XZ    0.000000   0.000000  -0.017939  -0.000000  -0.024242
   19  O  1 YZ    0.000000  -0.002070  -0.000000  -0.000000  -0.000000
   20  O  1 XX    0.245727   0.000000  -0.000000  -0.019449  -0.000000
   21  O  1 YY   -0.211284   0.000000  -0.000000  -0.085866  -0.000000
   22  O  1 ZZ   -0.034443   0.000000  -0.000000   0.105315  -0.000000
   23  O  1 XY    0.000000   0.000000  -0.000000  -0.000000  -0.000000
   24  O  1 XZ    0.000000   0.000000   0.278561  -0.000000  -0.059976
   25  O  1 YZ    0.000000  -0.054498  -0.000000  -0.000000  -0.000000
   26  O  1 XXX   0.000000   0.000000   0.003161  -0.000000  -0.001073
   27  O  1 YYY   0.000000   0.004803  -0.000000  -0.000000  -0.000000
   28  O  1 ZZZ  -0.017199   0.000000  -0.000000  -0.001734  -0.000000
   29  O  1 XXY   0.000000  -0.005309  -0.000000  -0.000000  -0.000000
   30  O  1 XXZ   0.040671   0.000000  -0.000000   0.013215  -0.000000
   31  O  1 YYX   0.000000   0.000000  -0.019416  -0.000000  -0.002201
   32  O  1 YYZ  -0.017595   0.000000  -0.000000  -0.010888  -0.000000
   33  O  1 ZZX   0.000000   0.000000   0.015175  -0.000000   0.003640
   34  O  1 ZZY   0.000000  -0.001134  -0.000000  -0.000000  -0.000000
   35  O  1 XYZ   0.000000   0.000000  -0.000000  -0.000000  -0.000000
   36  O  2  S    0.071123   0.000000   0.030673   0.107846   0.029547
   37  O  2  S    0.203436   0.000000   0.103410   0.323704   0.046047
   38  O  2  S    0.061886   0.000000  -0.006315   0.062926   0.010281
   39  O  2  S   -1.417588   0.000000   1.112186  -0.697227  -0.014684
   40  O  2  X    0.119242   0.000000  -0.186898   0.105449   0.042540
   41  O  2  Y    0.000000  -0.112626  -0.000000  -0.000000  -0.000000
   42  O  2  Z   -0.102527   0.000000   0.051876   0.133597  -0.142888
   43  O  2  X    0.055014   0.000000  -0.340620   0.204572   0.182670
   44  O  2  Y    0.000000  -0.412666  -0.000000  -0.000000  -0.000000
   45  O  2  Z   -0.189204   0.000000  -0.050098   0.421958  -0.436896
   46  O  2  X   -0.854924   0.000000   1.080279  -0.561790  -0.527621
   47  O  2  Y    0.000000   0.625305  -0.000000  -0.000000  -0.000000
   48  O  2  Z    0.552877   0.000000  -0.321088  -0.669127   0.695425
   49  O  2 XX    0.010772   0.000000  -0.009320   0.008784   0.011060
   50  O  2 YY   -0.006671   0.000000   0.006863   0.000065  -0.010003
   51  O  2 ZZ   -0.004100   0.000000   0.002457  -0.008849  -0.001057
   52  O  2 XY    0.000000  -0.003280  -0.000000  -0.000000  -0.000000
   53  O  2 XZ   -0.009776   0.000000   0.005025   0.002705  -0.013370
   54  O  2 YZ    0.000000   0.001676  -0.000000  -0.000000  -0.000000
   55  O  2 XX   -0.159534   0.000000   0.094850  -0.043327  -0.015333
   56  O  2 YY    0.088710   0.000000  -0.103021   0.015696   0.027975
   57  O  2 ZZ    0.070824   0.000000   0.008172   0.027631  -0.012642
   58  O  2 XY    0.000000  -0.022370  -0.000000  -0.000000  -0.000000
   59  O  2 XZ    0.088662   0.000000  -0.172927  -0.024811   0.013385
   60  O  2 YZ    0.000000   0.026281  -0.000000  -0.000000  -0.000000
   61  O  2 XXX  -0.007443   0.000000   0.006428  -0.005734  -0.003087
   62  O  2 YYY   0.000000   0.001112  -0.000000  -0.000000  -0.000000
   63  O  2 ZZZ  -0.005048   0.000000   0.008681  -0.001349  -0.002513
   64  O  2 XXY   0.000000  -0.001178  -0.000000  -0.000000  -0.000000
   65  O  2 XXZ   0.013390   0.000000  -0.017870   0.000627   0.007702
   66  O  2 YYX   0.011497   0.000000  -0.012243   0.002813   0.006674
   67  O  2 YYZ  -0.006617   0.000000   0.006223   0.001183  -0.004331
   68  O  2 ZZX  -0.001511   0.000000   0.003619   0.004881  -0.002532
   69  O  2 ZZY   0.000000  -0.000314  -0.000000  -0.000000  -0.000000
   70  O  2 XYZ   0.000000   0.002706  -0.000000  -0.000000  -0.000000
   71  O  3  S    0.071123   0.000000  -0.030673   0.107846  -0.029547
   72  O  3  S    0.203436   0.000000  -0.103410   0.323704  -0.046047
   73  O  3  S    0.061886   0.000000   0.006315   0.062926  -0.010281
   74  O  3  S   -1.417588   0.000000  -1.112186  -0.697227   0.014684
   75  O  3  X   -0.119242   0.000000  -0.186898  -0.105449   0.042540
   76  O  3  Y    0.000000  -0.112626  -0.000000  -0.000000  -0.000000
   77  O  3  Z   -0.102527   0.000000  -0.051876   0.133597   0.142888
   78  O  3  X   -0.055014   0.000000  -0.340620  -0.204572   0.182670
   79  O  3  Y    0.000000  -0.412666  -0.000000  -0.000000  -0.000000
   80  O  3  Z   -0.189204   0.000000   0.050098   0.421958   0.436896
   81  O  3  X    0.854924   0.000000   1.080279   0.561790  -0.527621
   82  O  3  Y    0.000000   0.625305  -0.000000  -0.000000  -0.000000
   83  O  3  Z    0.552877   0.000000   0.321088  -0.669127  -0.695425
   84  O  3 XX    0.010772   0.000000   0.009320   0.008784  -0.011060
   85  O  3 YY   -0.006671   0.000000  -0.006863   0.000065   0.010003
   86  O  3 ZZ   -0.004100   0.000000  -0.002457  -0.008849   0.001057
   87  O  3 XY    0.000000   0.003280  -0.000000  -0.000000  -0.000000
   88  O  3 XZ    0.009776   0.000000   0.005025  -0.002705  -0.013370
   89  O  3 YZ    0.000000   0.001676  -0.000000  -0.000000  -0.000000
   90  O  3 XX   -0.159534   0.000000  -0.094850  -0.043327   0.015333
   91  O  3 YY    0.088710   0.000000   0.103021   0.015696  -0.027975
   92  O  3 ZZ    0.070824   0.000000  -0.008172   0.027631   0.012642
   93  O  3 XY    0.000000   0.022370  -0.000000  -0.000000  -0.000000
   94  O  3 XZ   -0.088662   0.000000  -0.172927   0.024811   0.013385
   95  O  3 YZ    0.000000   0.026281  -0.000000  -0.000000  -0.000000
   96  O  3 XXX   0.007443   0.000000   0.006428   0.005734  -0.003087
   97  O  3 YYY   0.000000   0.001112  -0.000000  -0.000000  -0.000000
   98  O  3 ZZZ  -0.005048   0.000000  -0.008681  -0.001349   0.002513
   99  O  3 XXY   0.000000  -0.001178  -0.000000  -0.000000  -0.000000
  100  O  3 XXZ   0.013390   0.000000   0.017870   0.000627  -0.007702
  101  O  3 YYX  -0.011497   0.000000  -0.012243  -0.002813   0.006674
  102  O  3 YYZ  -0.006617   0.000000  -0.006223   0.001183   0.004331
  103  O  3 ZZX   0.001511   0.000000   0.003619  -0.004881  -0.002532
  104  O  3 ZZY   0.000000  -0.000314  -0.000000  -0.000000  -0.000000
  105  O  3 XYZ   0.000000  -0.002706  -0.000000  -0.000000  -0.000000

                     21         22         23         24         25
                    0.7751     0.8015     0.8330     0.8876     0.9118
                     A1         A2         B2         B1         A1  
    1  O  1  S   -0.078298  -0.000000   0.000000  -0.000000  -0.220285
    2  O  1  S   -0.296725  -0.000000   0.000000  -0.000000  -0.566799
    3  O  1  S   -0.085120  -0.000000   0.000000  -0.000000  -0.094791
    4  O  1  S    1.599177  -0.000000   0.000000  -0.000000   0.552895
    5  O  1  X    0.000000  -0.000000   0.000000  -0.150685   0.000000
    6  O  1  Y    0.000000  -0.000000  -0.173211  -0.000000   0.000000
    7  O  1  Z    0.025160  -0.000000   0.000000  -0.000000  -0.065589
    8  O  1  X    0.000000  -0.000000   0.000000  -0.389151   0.000000
    9  O  1  Y    0.000000  -0.000000  -0.597337  -0.000000   0.000000
   10  O  1  Z    0.349706  -0.000000   0.000000  -0.000000  -0.299770
   11  O  1  X    0.000000  -0.000000   0.000000   2.323617   0.000000
   12  O  1  Y    0.000000  -0.000000   1.714380  -0.000000   0.000000
   13  O  1  Z   -0.410523  -0.000000   0.000000  -0.000000   0.894048
   14  O  1 XX    0.002963  -0.000000   0.000000  -0.000000  -0.002621
   15  O  1 YY   -0.007750  -0.000000   0.000000  -0.000000   0.007265
   16  O  1 ZZ    0.004787  -0.000000   0.000000  -0.000000  -0.004644
   17  O  1 XY    0.000000  -0.008620   0.000000  -0.000000   0.000000
   18  O  1 XZ    0.000000  -0.000000   0.000000  -0.025945   0.000000
   19  O  1 YZ    0.000000  -0.000000  -0.015806  -0.000000   0.000000
   20  O  1 XX    0.099753  -0.000000   0.000000  -0.000000  -0.151981
   21  O  1 YY   -0.111676  -0.000000   0.000000  -0.000000   0.165721
   22  O  1 ZZ    0.011923  -0.000000   0.000000  -0.000000  -0.013740
   23  O  1 XY    0.000000   0.097390   0.000000  -0.000000   0.000000
   24  O  1 XZ    0.000000  -0.000000   0.000000   0.097566   0.000000
   25  O  1 YZ    0.000000  -0.000000  -0.004824  -0.000000   0.000000
   26  O  1 XXX   0.000000  -0.000000   0.000000   0.012810   0.000000
   27  O  1 YYY   0.000000  -0.000000  -0.008616  -0.000000   0.000000
   28  O  1 ZZZ  -0.004894  -0.000000   0.000000  -0.000000   0.001959
   29  O  1 XXY   0.000000  -0.000000   0.011626  -0.000000   0.000000
   30  O  1 XXZ   0.011754  -0.000000   0.000000  -0.000000  -0.007053
   31  O  1 YYX   0.000000  -0.000000   0.000000  -0.015956   0.000000
   32  O  1 YYZ  -0.005188  -0.000000   0.000000  -0.000000   0.004424
   33  O  1 ZZX   0.000000  -0.000000   0.000000  -0.001230   0.000000
   34  O  1 ZZY   0.000000  -0.000000  -0.000067  -0.000000   0.000000
   35  O  1 XYZ   0.000000   0.009930   0.000000  -0.000000   0.000000
   36  O  2  S   -0.058713  -0.000000   0.000000   0.016466  -0.253761
   37  O  2  S   -0.177377  -0.000000   0.000000   0.027374  -0.698420
   38  O  2  S   -0.011286  -0.000000   0.000000  -0.010256  -0.122767
   39  O  2  S   -0.135791  -0.000000   0.000000   1.146054   0.546228
   40  O  2  X    0.167560  -0.000000   0.000000   0.018729   0.024278
   41  O  2  Y    0.000000  -0.159554   0.073037  -0.000000   0.000000
   42  O  2  Z   -0.038434  -0.000000   0.000000   0.112214   0.011557
   43  O  2  X    0.410498  -0.000000   0.000000   0.303966   0.039020
   44  O  2  Y    0.000000  -0.538096   0.265419  -0.000000   0.000000
   45  O  2  Z   -0.092723  -0.000000   0.000000   0.293009   0.098581
   46  O  2  X   -0.877850  -0.000000   0.000000  -0.312110  -0.153434
   47  O  2  Y    0.000000   0.976172  -0.937231  -0.000000   0.000000
   48  O  2  Z    0.532224  -0.000000   0.000000  -1.163258  -0.410920
   49  O  2 XX    0.005517  -0.000000   0.000000   0.013456   0.001630
   50  O  2 YY   -0.007278  -0.000000   0.000000  -0.003461   0.001429
   51  O  2 ZZ    0.001761  -0.000000   0.000000  -0.009995  -0.003059
   52  O  2 XY    0.000000  -0.006957   0.012628  -0.000000   0.000000
   53  O  2 XZ   -0.017160  -0.000000   0.000000   0.002179   0.009387
   54  O  2 YZ    0.000000   0.005082  -0.005621  -0.000000   0.000000
   55  O  2 XX   -0.030382  -0.000000   0.000000   0.082420  -0.054242
   56  O  2 YY    0.029708  -0.000000   0.000000  -0.057471   0.083154
   57  O  2 ZZ    0.000674  -0.000000   0.000000  -0.024949  -0.028912
   58  O  2 XY    0.000000  -0.026310  -0.079723  -0.000000   0.000000
   59  O  2 XZ    0.102013  -0.000000   0.000000  -0.065740   0.062773
   60  O  2 YZ    0.000000  -0.013652  -0.005733  -0.000000   0.000000
   61  O  2 XXX   0.000968  -0.000000   0.000000   0.000123  -0.004097
   62  O  2 YYY   0.000000  -0.002527   0.006114  -0.000000   0.000000
   63  O  2 ZZZ  -0.006238  -0.000000   0.000000   0.002511   0.000960
   64  O  2 XXY   0.000000   0.001068  -0.008861  -0.000000   0.000000
   65  O  2 XXZ   0.014499  -0.000000   0.000000  -0.004897  -0.002320
   66  O  2 YYX   0.006326  -0.000000   0.000000  -0.001247   0.001504
   67  O  2 YYZ  -0.006129  -0.000000   0.000000   0.001528   0.001032
   68  O  2 ZZX  -0.007625  -0.000000   0.000000   0.001083   0.003993
   69  O  2 ZZY   0.000000   0.002322   0.000658  -0.000000   0.000000
   70  O  2 XYZ   0.000000  -0.003015   0.003842  -0.000000   0.000000
   71  O  3  S   -0.058713  -0.000000   0.000000  -0.016466  -0.253761
   72  O  3  S   -0.177377  -0.000000   0.000000  -0.027374  -0.698420
   73  O  3  S   -0.011286  -0.000000   0.000000   0.010256  -0.122767
   74  O  3  S   -0.135791  -0.000000   0.000000  -1.146054   0.546228
   75  O  3  X   -0.167560  -0.000000   0.000000   0.018729  -0.024278
   76  O  3  Y    0.000000   0.159554   0.073037  -0.000000   0.000000
   77  O  3  Z   -0.038434  -0.000000   0.000000  -0.112214   0.011557
   78  O  3  X   -0.410498  -0.000000   0.000000   0.303966  -0.039020
   79  O  3  Y    0.000000   0.538096   0.265419  -0.000000   0.000000
   80  O  3  Z   -0.092723  -0.000000   0.000000  -0.293009   0.098581
   81  O  3  X    0.877850  -0.000000   0.000000  -0.312110   0.153434
   82  O  3  Y    0.000000  -0.976172  -0.937231  -0.000000   0.000000
   83  O  3  Z    0.532224  -0.000000   0.000000   1.163258  -0.410920
   84  O  3 XX    0.005517  -0.000000   0.000000  -0.013456   0.001630
   85  O  3 YY   -0.007278  -0.000000   0.000000   0.003461   0.001429
   86  O  3 ZZ    0.001761  -0.000000   0.000000   0.009995  -0.003059
   87  O  3 XY    0.000000  -0.006957  -0.012628  -0.000000   0.000000
   88  O  3 XZ    0.017160  -0.000000   0.000000   0.002179  -0.009387
   89  O  3 YZ    0.000000  -0.005082  -0.005621  -0.000000   0.000000
   90  O  3 XX   -0.030382  -0.000000   0.000000  -0.082420  -0.054242
   91  O  3 YY    0.029708  -0.000000   0.000000   0.057471   0.083154
   92  O  3 ZZ    0.000674  -0.000000   0.000000   0.024949  -0.028912
   93  O  3 XY    0.000000  -0.026310   0.079723  -0.000000   0.000000
   94  O  3 XZ   -0.102013  -0.000000   0.000000  -0.065740  -0.062773
   95  O  3 YZ    0.000000   0.013652  -0.005733  -0.000000   0.000000
   96  O  3 XXX  -0.000968  -0.000000   0.000000   0.000123   0.004097
   97  O  3 YYY   0.000000   0.002527   0.006114  -0.000000   0.000000
   98  O  3 ZZZ  -0.006238  -0.000000   0.000000  -0.002511   0.000960
   99  O  3 XXY   0.000000  -0.001068  -0.008861  -0.000000   0.000000
  100  O  3 XXZ   0.014499  -0.000000   0.000000   0.004897  -0.002320
  101  O  3 YYX  -0.006326  -0.000000   0.000000  -0.001247  -0.001504
  102  O  3 YYZ  -0.006129  -0.000000   0.000000  -0.001528   0.001032
  103  O  3 ZZX   0.007625  -0.000000   0.000000   0.001083  -0.003993
  104  O  3 ZZY   0.000000  -0.002322   0.000658  -0.000000   0.000000
  105  O  3 XYZ   0.000000  -0.003015  -0.003842  -0.000000   0.000000

                     26         27         28         29         30
                    1.3272     1.4033     1.4084     1.4401     1.4856
                     A1         B1         B2         A2         A1  
    1  O  1  S   -0.325175   0.000000   0.000000   0.000000  -0.252573
    2  O  1  S   -0.857188   0.000000   0.000000   0.000000  -0.680622
    3  O  1  S   -0.262853   0.000000   0.000000   0.000000  -0.235898
    4  O  1  S    3.946302   0.000000   0.000000   0.000000   3.595097
    5  O  1  X    0.000000  -0.115263   0.000000   0.000000   0.000000
    6  O  1  Y    0.000000   0.000000  -0.095031   0.000000   0.000000
    7  O  1  Z    0.027574   0.000000   0.000000   0.000000  -0.121092
    8  O  1  X    0.000000   0.123221   0.000000   0.000000   0.000000
    9  O  1  Y    0.000000   0.000000  -0.161258   0.000000   0.000000
   10  O  1  Z    0.315618   0.000000   0.000000   0.000000   0.052478
   11  O  1  X    0.000000   2.744765   0.000000   0.000000   0.000000
   12  O  1  Y    0.000000   0.000000   0.203209   0.000000   0.000000
   13  O  1  Z    0.867316   0.000000   0.000000   0.000000   0.939204
   14  O  1 XX   -0.010570   0.000000   0.000000   0.000000  -0.035753
   15  O  1 YY    0.010493   0.000000   0.000000   0.000000   0.015049
   16  O  1 ZZ    0.000077   0.000000   0.000000   0.000000   0.020704
   17  O  1 XY    0.000000   0.000000   0.000000   0.015239   0.000000
   18  O  1 XZ    0.000000  -0.023437   0.000000   0.000000   0.000000
   19  O  1 YZ    0.000000   0.000000  -0.000820   0.000000   0.000000
   20  O  1 XX    0.160441   0.000000   0.000000   0.000000  -0.093962
   21  O  1 YY    0.186236   0.000000   0.000000   0.000000  -0.240363
   22  O  1 ZZ   -0.346677   0.000000   0.000000   0.000000   0.334325
   23  O  1 XY    0.000000   0.000000   0.000000   0.550185   0.000000
   24  O  1 XZ    0.000000   0.405453   0.000000   0.000000   0.000000
   25  O  1 YZ    0.000000   0.000000   0.576981   0.000000   0.000000
   26  O  1 XXX   0.000000   0.018862   0.000000   0.000000   0.000000
   27  O  1 YYY   0.000000   0.000000   0.001793   0.000000   0.000000
   28  O  1 ZZZ  -0.041861   0.000000   0.000000   0.000000  -0.025905
   29  O  1 XXY   0.000000   0.000000  -0.021572   0.000000   0.000000
   30  O  1 XXZ   0.073033   0.000000   0.000000   0.000000   0.055578
   31  O  1 YYX   0.000000  -0.052390   0.000000   0.000000   0.000000
   32  O  1 YYZ  -0.016871   0.000000   0.000000   0.000000  -0.020824
   33  O  1 ZZX   0.000000   0.027084   0.000000   0.000000   0.000000
   34  O  1 ZZY   0.000000   0.000000   0.019167   0.000000   0.000000
   35  O  1 XYZ   0.000000   0.000000   0.000000  -0.009690   0.000000
   36  O  2  S    0.161613  -0.385991   0.000000   0.000000   0.161597
   37  O  2  S    0.425515  -1.030070   0.000000   0.000000   0.434421
   38  O  2  S    0.125687  -0.262983   0.000000   0.000000   0.127422
   39  O  2  S   -1.961758   3.450805   0.000000   0.000000  -1.869723
   40  O  2  X    0.034357  -0.034133   0.000000   0.000000  -0.005565
   41  O  2  Y    0.000000   0.000000  -0.017555   0.065871   0.000000
   42  O  2  Z   -0.007446   0.017367   0.000000   0.000000  -0.083461
   43  O  2  X   -0.180742   0.114814   0.000000   0.000000  -0.150510
   44  O  2  Y    0.000000   0.000000  -0.016858   0.101305   0.000000
   45  O  2  Z    0.086767  -0.099844   0.000000   0.000000  -0.013512
   46  O  2  X   -0.743501   1.154413   0.000000   0.000000  -0.783270
   47  O  2  Y    0.000000   0.000000  -0.135664   0.022160   0.000000
   48  O  2  Z    0.531015  -0.885664   0.000000   0.000000   0.463766
   49  O  2 XX    0.011691  -0.006114   0.000000   0.000000   0.007055
   50  O  2 YY   -0.014879   0.001217   0.000000   0.000000  -0.003703
   51  O  2 ZZ    0.003188   0.004897   0.000000   0.000000  -0.003353
   52  O  2 XY    0.000000   0.000000  -0.002341  -0.008051   0.000000
   53  O  2 XZ   -0.008236   0.014566   0.000000   0.000000  -0.006788
   54  O  2 YZ    0.000000   0.000000  -0.009227   0.000270   0.000000
   55  O  2 XX   -0.309920  -0.041810   0.000000   0.000000   0.219300
   56  O  2 YY    0.394640   0.168220   0.000000   0.000000   0.065607
   57  O  2 ZZ   -0.084720  -0.126410   0.000000   0.000000  -0.284907
   58  O  2 XY    0.000000   0.000000   0.402879  -0.187425   0.000000
   59  O  2 XZ   -0.059457  -0.138344   0.000000   0.000000   0.333197
   60  O  2 YZ    0.000000   0.000000   0.216236   0.390201   0.000000
   61  O  2 XXX  -0.011843   0.007904   0.000000   0.000000  -0.004052
   62  O  2 YYY   0.000000   0.000000   0.002495  -0.002295   0.000000
   63  O  2 ZZZ  -0.002862   0.019956   0.000000   0.000000  -0.016396
   64  O  2 XXY   0.000000   0.000000   0.007850   0.008779   0.000000
   65  O  2 XXZ   0.022529  -0.035443   0.000000   0.000000   0.035623
   66  O  2 YYX   0.031136  -0.015069   0.000000   0.000000   0.017753
   67  O  2 YYZ  -0.018690   0.008669   0.000000   0.000000  -0.013626
   68  O  2 ZZX  -0.015246   0.004464   0.000000   0.000000  -0.012316
   69  O  2 ZZY   0.000000   0.000000  -0.011198  -0.005700   0.000000
   70  O  2 XYZ   0.000000   0.000000   0.012108   0.000369   0.000000
   71  O  3  S    0.161613   0.385991   0.000000   0.000000   0.161597
   72  O  3  S    0.425515   1.030070   0.000000   0.000000   0.434421
   73  O  3  S    0.125687   0.262983   0.000000   0.000000   0.127422
   74  O  3  S   -1.961758  -3.450805   0.000000   0.000000  -1.869723
   75  O  3  X   -0.034357  -0.034133   0.000000   0.000000   0.005565
   76  O  3  Y    0.000000   0.000000  -0.017555  -0.065871   0.000000
   77  O  3  Z   -0.007446  -0.017367   0.000000   0.000000  -0.083461
   78  O  3  X    0.180742   0.114814   0.000000   0.000000   0.150510
   79  O  3  Y    0.000000   0.000000  -0.016858  -0.101305   0.000000
   80  O  3  Z    0.086767   0.099844   0.000000   0.000000  -0.013512
   81  O  3  X    0.743501   1.154413   0.000000   0.000000   0.783270
   82  O  3  Y    0.000000   0.000000  -0.135664  -0.022160   0.000000
   83  O  3  Z    0.531015   0.885664   0.000000   0.000000   0.463766
   84  O  3 XX    0.011691   0.006114   0.000000   0.000000   0.007055
   85  O  3 YY   -0.014879  -0.001217   0.000000   0.000000  -0.003703
   86  O  3 ZZ    0.003188  -0.004897   0.000000   0.000000  -0.003353
   87  O  3 XY    0.000000   0.000000   0.002341  -0.008051   0.000000
   88  O  3 XZ    0.008236   0.014566   0.000000   0.000000   0.006788
   89  O  3 YZ    0.000000   0.000000  -0.009227  -0.000270   0.000000
   90  O  3 XX   -0.309920   0.041810   0.000000   0.000000   0.219300
   91  O  3 YY    0.394640  -0.168220   0.000000   0.000000   0.065607
   92  O  3 ZZ   -0.084720   0.126410   0.000000   0.000000  -0.284907
   93  O  3 XY    0.000000   0.000000  -0.402879  -0.187425   0.000000
   94  O  3 XZ    0.059457  -0.138344   0.000000   0.000000  -0.333197
   95  O  3 YZ    0.000000   0.000000   0.216236  -0.390201   0.000000
   96  O  3 XXX   0.011843   0.007904   0.000000   0.000000   0.004052
   97  O  3 YYY   0.000000   0.000000   0.002495   0.002295   0.000000
   98  O  3 ZZZ  -0.002862  -0.019956   0.000000   0.000000  -0.016396
   99  O  3 XXY   0.000000   0.000000   0.007850  -0.008779   0.000000
  100  O  3 XXZ   0.022529   0.035443   0.000000   0.000000   0.035623
  101  O  3 YYX  -0.031136  -0.015069   0.000000   0.000000  -0.017753
  102  O  3 YYZ  -0.018690  -0.008669   0.000000   0.000000  -0.013626
  103  O  3 ZZX   0.015246   0.004464   0.000000   0.000000   0.012316
  104  O  3 ZZY   0.000000   0.000000  -0.011198   0.005700   0.000000
  105  O  3 XYZ   0.000000   0.000000  -0.012108   0.000369   0.000000

                     31         32         33         34         35
                    1.7308     1.7608     1.7836     1.8045     2.1270
                     B1         A2         B2         A1         B1  
    1  O  1  S   -0.000000   0.000000  -0.000000  -0.326336  -0.000000
    2  O  1  S   -0.000000   0.000000  -0.000000  -0.844069  -0.000000
    3  O  1  S   -0.000000   0.000000  -0.000000  -0.292523  -0.000000
    4  O  1  S   -0.000000   0.000000  -0.000000   3.988245  -0.000000
    5  O  1  X   -0.007427   0.000000  -0.000000   0.000000   0.136768
    6  O  1  Y   -0.000000   0.000000   0.082855   0.000000  -0.000000
    7  O  1  Z   -0.000000   0.000000  -0.000000   0.027789  -0.000000
    8  O  1  X   -0.038865   0.000000  -0.000000   0.000000   0.149851
    9  O  1  Y   -0.000000   0.000000   0.080914   0.000000  -0.000000
   10  O  1  Z   -0.000000   0.000000  -0.000000   0.151745  -0.000000
   11  O  1  X    1.583414   0.000000  -0.000000   0.000000   1.394197
   12  O  1  Y   -0.000000   0.000000   0.259979   0.000000  -0.000000
   13  O  1  Z   -0.000000   0.000000  -0.000000   1.327135  -0.000000
   14  O  1 XX   -0.000000   0.000000  -0.000000  -0.014295  -0.000000
   15  O  1 YY   -0.000000   0.000000  -0.000000   0.015270  -0.000000
   16  O  1 ZZ   -0.000000   0.000000  -0.000000  -0.000975  -0.000000
   17  O  1 XY   -0.000000  -0.015844  -0.000000   0.000000  -0.000000
   18  O  1 XZ   -0.007379   0.000000  -0.000000   0.000000   0.008989
   19  O  1 YZ   -0.000000   0.000000  -0.010795   0.000000  -0.000000
   20  O  1 XX   -0.000000   0.000000  -0.000000   0.325723  -0.000000
   21  O  1 YY   -0.000000   0.000000  -0.000000  -0.045033  -0.000000
   22  O  1 ZZ   -0.000000   0.000000  -0.000000  -0.280690  -0.000000
   23  O  1 XY   -0.000000  -0.082054  -0.000000   0.000000  -0.000000
   24  O  1 XZ    0.354921   0.000000  -0.000000   0.000000   0.331633
   25  O  1 YZ   -0.000000   0.000000  -0.345151   0.000000  -0.000000
   26  O  1 XXX  -0.005017   0.000000  -0.000000   0.000000   0.002329
   27  O  1 YYY  -0.000000   0.000000  -0.005725   0.000000  -0.000000
   28  O  1 ZZZ  -0.000000   0.000000  -0.000000  -0.006900  -0.000000
   29  O  1 XXY  -0.000000   0.000000  -0.007270   0.000000  -0.000000
   30  O  1 XXZ  -0.000000   0.000000  -0.000000   0.038996  -0.000000
   31  O  1 YYX   0.004244   0.000000  -0.000000   0.000000  -0.012903
   32  O  1 YYZ  -0.000000   0.000000  -0.000000  -0.029739  -0.000000
   33  O  1 ZZX   0.002487   0.000000  -0.000000   0.000000   0.009779
   34  O  1 ZZY  -0.000000   0.000000   0.014951   0.000000  -0.000000
   35  O  1 XYZ  -0.000000  -0.006876  -0.000000   0.000000  -0.000000
   36  O  2  S   -0.090085   0.000000  -0.000000   0.078977   0.049515
   37  O  2  S   -0.239973   0.000000  -0.000000   0.196440   0.165231
   38  O  2  S   -0.079160   0.000000  -0.000000   0.085276   0.035558
   39  O  2  S    1.475231   0.000000  -0.000000  -1.886884   0.716823
   40  O  2  X    0.016039   0.000000  -0.000000  -0.007902   0.079691
   41  O  2  Y   -0.000000  -0.044655   0.038637   0.000000  -0.000000
   42  O  2  Z   -0.002040   0.000000  -0.000000   0.024698   0.017790
   43  O  2  X    0.145955   0.000000  -0.000000  -0.214823   0.273662
   44  O  2  Y   -0.000000  -0.057186   0.057815   0.000000  -0.000000
   45  O  2  Z   -0.087464   0.000000  -0.000000   0.173824  -0.029393
   46  O  2  X    0.410461   0.000000  -0.000000  -0.815329  -0.097907
   47  O  2  Y   -0.000000   0.114008  -0.160624   0.000000  -0.000000
   48  O  2  Z   -0.410539   0.000000  -0.000000   0.332325  -0.572548
   49  O  2 XX   -0.003375   0.000000  -0.000000   0.000563  -0.017430
   50  O  2 YY    0.006678   0.000000  -0.000000   0.000365   0.008030
   51  O  2 ZZ   -0.003303   0.000000  -0.000000  -0.000927   0.009400
   52  O  2 XY   -0.000000  -0.000180  -0.006162   0.000000  -0.000000
   53  O  2 XZ    0.002325   0.000000  -0.000000  -0.012806  -0.000506
   54  O  2 YZ   -0.000000  -0.005795  -0.004669   0.000000  -0.000000
   55  O  2 XX   -0.033772   0.000000  -0.000000  -0.041910  -0.515281
   56  O  2 YY   -0.511752   0.000000  -0.000000  -0.446566   0.104189
   57  O  2 ZZ    0.545524   0.000000  -0.000000   0.488476   0.411092
   58  O  2 XY   -0.000000   0.569546  -0.016943   0.000000  -0.000000
   59  O  2 XZ    0.246670   0.000000  -0.000000   0.327827  -0.565193
   60  O  2 YZ   -0.000000   0.429994   0.675328   0.000000  -0.000000
   61  O  2 XXX   0.005362   0.000000  -0.000000  -0.004016   0.009108
   62  O  2 YYY  -0.000000   0.000051  -0.000878   0.000000  -0.000000
   63  O  2 ZZZ   0.000233   0.000000  -0.000000  -0.016208  -0.003176
   64  O  2 XXY  -0.000000   0.003271   0.000955   0.000000  -0.000000
   65  O  2 XXZ  -0.009885   0.000000  -0.000000   0.037816   0.002185
   66  O  2 YYX  -0.011183   0.000000  -0.000000   0.021108  -0.012153
   67  O  2 YYZ   0.009572   0.000000  -0.000000  -0.016071   0.002075
   68  O  2 ZZX   0.003989   0.000000  -0.000000  -0.015720  -0.000067
   69  O  2 ZZY  -0.000000  -0.003339   0.000223   0.000000  -0.000000
   70  O  2 XYZ  -0.000000  -0.002273   0.000197   0.000000  -0.000000
   71  O  3  S    0.090085   0.000000  -0.000000   0.078977  -0.049515
   72  O  3  S    0.239973   0.000000  -0.000000   0.196440  -0.165231
   73  O  3  S    0.079160   0.000000  -0.000000   0.085276  -0.035558
   74  O  3  S   -1.475231   0.000000  -0.000000  -1.886884  -0.716823
   75  O  3  X    0.016039   0.000000  -0.000000   0.007902   0.079691
   76  O  3  Y   -0.000000   0.044655   0.038637   0.000000  -0.000000
   77  O  3  Z    0.002040   0.000000  -0.000000   0.024698  -0.017790
   78  O  3  X    0.145955   0.000000  -0.000000   0.214823   0.273662
   79  O  3  Y   -0.000000   0.057186   0.057815   0.000000  -0.000000
   80  O  3  Z    0.087464   0.000000  -0.000000   0.173824   0.029393
   81  O  3  X    0.410461   0.000000  -0.000000   0.815329  -0.097907
   82  O  3  Y   -0.000000  -0.114008  -0.160624   0.000000  -0.000000
   83  O  3  Z    0.410539   0.000000  -0.000000   0.332325   0.572548
   84  O  3 XX    0.003375   0.000000  -0.000000   0.000563   0.017430
   85  O  3 YY   -0.006678   0.000000  -0.000000   0.000365  -0.008030
   86  O  3 ZZ    0.003303   0.000000  -0.000000  -0.000927  -0.009400
   87  O  3 XY   -0.000000  -0.000180   0.006162   0.000000  -0.000000
   88  O  3 XZ    0.002325   0.000000  -0.000000   0.012806  -0.000506
   89  O  3 YZ   -0.000000   0.005795  -0.004669   0.000000  -0.000000
   90  O  3 XX    0.033772   0.000000  -0.000000  -0.041910   0.515281
   91  O  3 YY    0.511752   0.000000  -0.000000  -0.446566  -0.104189
   92  O  3 ZZ   -0.545524   0.000000  -0.000000   0.488476  -0.411092
   93  O  3 XY   -0.000000   0.569546   0.016943   0.000000  -0.000000
   94  O  3 XZ    0.246670   0.000000  -0.000000  -0.327827  -0.565193
   95  O  3 YZ   -0.000000  -0.429994   0.675328   0.000000  -0.000000
   96  O  3 XXX   0.005362   0.000000  -0.000000   0.004016   0.009108
   97  O  3 YYY  -0.000000  -0.000051  -0.000878   0.000000  -0.000000
[...]
   95  O  3 YZ   -0.000000   0.000000   0.000000   0.000000  -0.000000
   96  O  3 XXX   0.537326  -0.123227  -0.063594   0.122430   0.097351
   97  O  3 YYY  -0.000000   0.000000   0.000000   0.000000  -0.000000
   98  O  3 ZZZ  -0.292222  -0.047066   0.101953  -0.220708  -0.207499
   99  O  3 XXY  -0.000000   0.000000   0.000000   0.000000  -0.000000
  100  O  3 XXZ   0.335283   0.304167  -0.171490   0.434042   0.478907
  101  O  3 YYX  -0.219869  -0.240929   0.073838  -0.226531  -0.302899
  102  O  3 YYZ   0.056773  -0.241021   0.034706  -0.137931  -0.200517
  103  O  3 ZZX  -0.501029   0.406255   0.011483   0.062274   0.172289
  104  O  3 ZZY  -0.000000   0.000000   0.000000   0.000000  -0.000000
  105  O  3 XYZ  -0.000000   0.000000   0.000000   0.000000  -0.000000

          -----------
          GI ORBITALS
          -----------


                    PAIR   1

                      1          2

    1  O  1  S    0.000000  -0.000000
    2  O  1  S    0.000000  -0.000000
    3  O  1  S    0.000000  -0.000000
    4  O  1  S    0.000000  -0.000000
    5  O  1  X    0.000000  -0.000000
    6  O  1  Y   -0.116244  -0.116244
    7  O  1  Z    0.000000  -0.000000
    8  O  1  X    0.000000  -0.000000
    9  O  1  Y   -0.153595  -0.153595
   10  O  1  Z    0.000000  -0.000000
   11  O  1  X    0.000000  -0.000000
   12  O  1  Y   -0.159396  -0.159396
   13  O  1  Z    0.000000  -0.000000
   14  O  1 XX    0.000000  -0.000000
   15  O  1 YY    0.000000  -0.000000
   16  O  1 ZZ    0.000000  -0.000000
   17  O  1 XY   -0.007887   0.007887
   18  O  1 XZ    0.000000  -0.000000
   19  O  1 YZ    0.000300   0.000300
   20  O  1 XX    0.000000  -0.000000
   21  O  1 YY    0.000000  -0.000000
   22  O  1 ZZ    0.000000  -0.000000
   23  O  1 XY   -0.028298   0.028298
   24  O  1 XZ    0.000000  -0.000000
   25  O  1 YZ   -0.005676  -0.005676
   26  O  1 XXX   0.000000  -0.000000
   27  O  1 YYY   0.000293   0.000293
   28  O  1 ZZZ   0.000000  -0.000000
   29  O  1 XXY  -0.000481  -0.000481
   30  O  1 XXZ   0.000000  -0.000000
   31  O  1 YYX   0.000000  -0.000000
   32  O  1 YYZ   0.000000  -0.000000
   33  O  1 ZZX   0.000000  -0.000000
   34  O  1 ZZY   0.000089   0.000089
   35  O  1 XYZ  -0.004666   0.004666
   36  O  2  S    0.000000  -0.000000
   37  O  2  S    0.000000  -0.000000
   38  O  2  S    0.000000  -0.000000
   39  O  2  S    0.000000  -0.000000
   40  O  2  X    0.000000  -0.000000
   41  O  2  Y    0.384343  -0.055745
   42  O  2  Z    0.000000  -0.000000
   43  O  2  X    0.000000  -0.000000
   44  O  2  Y    0.494069  -0.074851
   45  O  2  Z    0.000000  -0.000000
   46  O  2  X    0.000000  -0.000000
   47  O  2  Y    0.309388  -0.096655
   48  O  2  Z    0.000000  -0.000000
   49  O  2 XX    0.000000  -0.000000
   50  O  2 YY    0.000000  -0.000000
   51  O  2 ZZ    0.000000  -0.000000
   52  O  2 XY    0.002363  -0.002809
   53  O  2 XZ    0.000000  -0.000000
   54  O  2 YZ   -0.001430   0.002115
   55  O  2 XX    0.000000  -0.000000
   56  O  2 YY    0.000000  -0.000000
   57  O  2 ZZ    0.000000  -0.000000
   58  O  2 XY    0.006627  -0.016488
   59  O  2 XZ    0.000000  -0.000000
   60  O  2 YZ   -0.005686   0.008603
   61  O  2 XXX   0.000000  -0.000000
   62  O  2 YYY   0.005126   0.003710
   63  O  2 ZZZ   0.000000  -0.000000
   64  O  2 XXY  -0.002110  -0.003589
   65  O  2 XXZ   0.000000  -0.000000
   66  O  2 YYX   0.000000  -0.000000
   67  O  2 YYZ   0.000000  -0.000000
   68  O  2 ZZX   0.000000  -0.000000
   69  O  2 ZZY  -0.004767  -0.001388
   70  O  2 XYZ  -0.002964   0.002347
   71  O  3  S    0.000000  -0.000000
   72  O  3  S    0.000000  -0.000000
   73  O  3  S    0.000000  -0.000000
   74  O  3  S    0.000000  -0.000000
   75  O  3  X    0.000000  -0.000000
   76  O  3  Y   -0.055745   0.384343
   77  O  3  Z    0.000000  -0.000000
   78  O  3  X    0.000000  -0.000000
   79  O  3  Y   -0.074851   0.494069
   80  O  3  Z    0.000000  -0.000000
   81  O  3  X    0.000000  -0.000000
   82  O  3  Y   -0.096655   0.309388
   83  O  3  Z    0.000000  -0.000000
   84  O  3 XX    0.000000  -0.000000
   85  O  3 YY    0.000000  -0.000000
   86  O  3 ZZ    0.000000  -0.000000
   87  O  3 XY    0.002809  -0.002363
   88  O  3 XZ    0.000000  -0.000000
   89  O  3 YZ    0.002115  -0.001430
   90  O  3 XX    0.000000  -0.000000
   91  O  3 YY    0.000000  -0.000000
   92  O  3 ZZ    0.000000  -0.000000
   93  O  3 XY    0.016488  -0.006627
   94  O  3 XZ    0.000000  -0.000000
   95  O  3 YZ    0.008603  -0.005686
   96  O  3 XXX   0.000000  -0.000000
   97  O  3 YYY   0.003710   0.005126
   98  O  3 ZZZ   0.000000  -0.000000
   99  O  3 XXY  -0.003589  -0.002110
  100  O  3 XXZ   0.000000  -0.000000
  101  O  3 YYX   0.000000  -0.000000
  102  O  3 YYZ   0.000000  -0.000000
  103  O  3 ZZX   0.000000  -0.000000
  104  O  3 ZZY  -0.001388  -0.004767
  105  O  3 XYZ  -0.002347   0.002964

 ... END OF ROHF-GVB SCF CALCULATION ...
 STEP CPU TIME =    11.19 TOTAL CPU TIME =       11.2 (    0.2 MIN)
 TOTAL WALL CLOCK TIME=       11.3 SECONDS, CPU UTILIZATION IS  99.56%

     ----------------------------------------------------------------
     PROPERTY VALUES FOR THE GVB   SELF-CONSISTENT FIELD WAVEFUNCTION
     ----------------------------------------------------------------

          -----------------
          ENERGY COMPONENTS
          -----------------

         WAVEFUNCTION NORMALIZATION =       0.5000000000

                ONE ELECTRON ENERGY =    -223.8490433373
                TWO ELECTRON ENERGY =     -70.5007634235
           NUCLEAR REPULSION ENERGY =      69.9155323283
                                      ------------------
                       TOTAL ENERGY =    -224.4342744324

 ELECTRON-ELECTRON POTENTIAL ENERGY =     -70.5007634235
  NUCLEUS-ELECTRON POTENTIAL ENERGY =    -336.0058639874
   NUCLEUS-NUCLEUS POTENTIAL ENERGY =      69.9155323283
                                      ------------------
             TOTAL POTENTIAL ENERGY =    -336.5910950826
               TOTAL KINETIC ENERGY =     112.1568206501
                 VIRIAL RATIO (V/T) =       3.0010755755

          ---------------------------------------
          MULLIKEN AND LOWDIN POPULATION ANALYSES
          ---------------------------------------

               ----- POPULATIONS IN EACH AO -----
                             MULLIKEN      LOWDIN
              1  O  1  S      1.95019     0.78869
              2  O  1  S      1.04553     0.27532
              3  O  1  S      0.24744     0.19526
              4  O  1  S      0.51987     0.12886
              5  O  1  X      0.30057     0.12813
              6  O  1  Y      0.44171     0.19357
              7  O  1  Z      0.44663     0.19531
              8  O  1  X      0.56943     0.14574
              9  O  1  Y      0.76880     0.20446
             10  O  1  Z      0.75664     0.20738
             11  O  1  X      0.07272     0.09754
             12  O  1  Y      0.40594     0.16656
             13  O  1  Z      0.24743     0.14038
             14  O  1 XX      0.00119     0.07083
             15  O  1 YY      0.00199     0.07239
             16  O  1 ZZ      0.00130     0.07124
             17  O  1 XY      0.00472     0.00056
             18  O  1 XZ      0.00060     0.00229
             19  O  1 YZ      0.00000     0.00032
             20  O  1 XX      0.01842     0.07875
             21  O  1 YY      0.01927     0.05978
             22  O  1 ZZ      0.02123     0.07421
             23  O  1 XY      0.03240     0.02328
             24  O  1 XZ      0.00613     0.03629
             25  O  1 YZ      0.00000     0.00322
             26  O  1 XXX     0.00101     0.08493
             27  O  1 YYY     0.00162     0.10546
             28  O  1 ZZZ     0.00210     0.10768
             29  O  1 XXY     0.00075     0.05180
             30  O  1 XXZ     0.00002     0.06372
             31  O  1 YYX     0.00102     0.03179
             32  O  1 YYZ     0.00066     0.04779
             33  O  1 ZZX     0.00000     0.04433
             34  O  1 ZZY     0.00000     0.04939
             35  O  1 XYZ     0.00000     0.00134
             36  O  2  S      1.95056     0.79212
             37  O  2  S      1.06811     0.29098
             38  O  2  S      0.25281     0.20270
             39  O  2  S      0.64483     0.16036
             40  O  2  X      0.35838     0.15365
             41  O  2  Y      0.33453     0.14719
             42  O  2  Z      0.49464     0.21651
             43  O  2  X      0.63523     0.18144
             44  O  2  Y      0.55643     0.15414
             45  O  2  Z      0.81200     0.22881
             46  O  2  X      0.24382     0.13783
             47  O  2  Y      0.26862     0.12918
             48  O  2  Z      0.38710     0.17870
             49  O  2 XX      0.00041     0.07556
             50  O  2 YY      0.00139     0.07716
             51  O  2 ZZ      0.00070     0.07666
             52  O  2 XY      0.00200     0.00032
             53  O  2 XZ      0.00027     0.00100
             54  O  2 YZ      0.00000     0.00012
             55  O  2 XX      0.00373     0.07278
             56  O  2 YY      0.00867     0.07171
             57  O  2 ZZ      0.01053     0.07345
             58  O  2 XY      0.01362     0.01047
             59  O  2 XZ      0.00401     0.01586
             60  O  2 YZ      0.00000     0.00384
             61  O  2 XXX     0.00045     0.09866
             62  O  2 YYY     0.00113     0.08034
             63  O  2 ZZZ     0.00063     0.11756
             64  O  2 XXY     0.00054     0.03787
             65  O  2 XXZ     0.00002     0.06112
             66  O  2 YYX     0.00061     0.04052
             67  O  2 YYZ     0.00057     0.05422
             68  O  2 ZZX     0.00000     0.04631
             69  O  2 ZZY     0.00000     0.03597
             70  O  2 XYZ     0.00000     0.00058
             71  O  3  S      1.95056     0.79212
             72  O  3  S      1.06811     0.29098
             73  O  3  S      0.25281     0.20270
             74  O  3  S      0.64483     0.16036
             75  O  3  X      0.35838     0.15365
             76  O  3  Y      0.33453     0.14719
             77  O  3  Z      0.49464     0.21651
             78  O  3  X      0.63523     0.18144
             79  O  3  Y      0.55643     0.15414
             80  O  3  Z      0.81200     0.22881
             81  O  3  X      0.24382     0.13783
             82  O  3  Y      0.26862     0.12918
             83  O  3  Z      0.38710     0.17870
             84  O  3 XX      0.00041     0.07556
             85  O  3 YY      0.00139     0.07716
             86  O  3 ZZ      0.00070     0.07666
             87  O  3 XY      0.00200     0.00032
             88  O  3 XZ      0.00027     0.00100
             89  O  3 YZ      0.00000     0.00012
             90  O  3 XX      0.00373     0.07278
             91  O  3 YY      0.00867     0.07171
             92  O  3 ZZ      0.01053     0.07345
             93  O  3 XY      0.01362     0.01047
             94  O  3 XZ      0.00401     0.01586
             95  O  3 YZ      0.00000     0.00384
             96  O  3 XXX     0.00045     0.09866
             97  O  3 YYY     0.00113     0.08034
             98  O  3 ZZZ     0.00063     0.11756
             99  O  3 XXY     0.00054     0.03787
            100  O  3 XXZ     0.00002     0.06112
            101  O  3 YYX     0.00061     0.04052
            102  O  3 YYZ     0.00057     0.05422
            103  O  3 ZZX     0.00000     0.04631
            104  O  3 ZZY     0.00000     0.03597
            105  O  3 XYZ     0.00000     0.00058

          ----- MULLIKEN ATOMIC OVERLAP POPULATIONS -----
          (OFF-DIAGONAL ELEMENTS NEED TO BE MULTIPLIED BY 2)

             1           2           3

    1    7.6211889
    2    0.1330551   8.0087703
    3    0.1330551  -0.0854750   8.0087703

          TOTAL MULLIKEN AND LOWDIN ATOMIC POPULATIONS
       ATOM         MULL.POP.    CHARGE          LOW.POP.     CHARGE
    1 O             7.887299    0.112701         3.948597    4.051403
    2 O             8.056350   -0.056350         4.025701    3.974299
    3 O             8.056350   -0.056350         4.025701    3.974299

          MULLIKEN SPHERICAL HARMONIC POPULATIONS
       ATOM           S       P       D      F      G      H      I    TOTAL
    1 O             3.76    4.01    0.11   0.01   0.00   0.00   0.00    7.89
    2 O             3.92    4.09    0.05   0.00   0.00   0.00   0.00    8.06
    3 O             3.92    4.09    0.05   0.00   0.00   0.00   0.00    8.06

          ---------------------
          ELECTROSTATIC MOMENTS
          ---------------------

 POINT   1           X           Y           Z (BOHR)    CHARGE
                 0.000000    0.000000   -0.000000       -0.00 (A.U.)
         DX          DY          DZ         /D/  (DEBYE)
    -0.000000   -0.000000   -0.233754    0.233754
 ...... END OF PROPERTY EVALUATION ......
 STEP CPU TIME =     0.01 TOTAL CPU TIME =       11.3 (    0.2 MIN)
 TOTAL WALL CLOCK TIME=       11.3 SECONDS, CPU UTILIZATION IS  99.56%

 OCCUPATIONALLY RESTRICTED MULTIPLE ACTIVE SPACE CI OPTIONS
                                    NRNFG   NPFLG
 INTEGRAL TRANSFORMATION              1       0
 DIAGONALIZE HAMILTONIAN              1       0
 FORM 1E- DENSITY MATRIX              1       0
 FORM 2E- DENSITY MATRIX              0       0

     ------------------------------------------------------------
       DIRECT DETERMINANT ORMAS-CI INPUT SORTER
       PROGRAM WRITTEN BY JOE IVANIC AND MIKE SCHMIDT
       ORMAS = OCCUPATION RESTRICTED MULTIPLE ACTIVE SPACE
     ------------------------------------------------------------

 THE POINT GROUP                  =   C2V     
 THE STATE SYMMETRY               =   A1      
 NUMBER OF CORE ORBITALS          =    3
 NUMBER OF ACTIVE ORBITALS        =   87
 NUMBER OF ALPHA ELECTRONS        =   12 (   9 ACTIVE)
 NUMBER OF BETA ELECTRONS         =   12 (   9 ACTIVE)
 NUMBER OF OCCUPIED ORBITALS      =   90

 NUMBER OF CI STATES REQUESTED    =    1
 NUMBER OF CI STARTING VECTORS    =    1
 MAX. NO. OF CI EXPANSION VECTORS =   10
 SIZE OF INITIAL CI GUESS MATRIX  =  300

 MAX. NO. OF CI ITERS/STATE       =  100
 CI DIAGONALIZATION CRITERION     = 1.00E-06
 CI PROPERTIES WILL BE FOUND FOR ROOT NUMBER   1
 1E- DENSITY MATRIX OPTIONS (NFLGDM) ARE 1

 CORRELATION ENERGY ANALYSIS      =    F

 FULLY DIRECT OPTION              =    T

 CALC. OF DAVIDSON Q CORRECTION   =    T

 BLOCK SPACE MIXING IN NO DIAG    =    F

 SYMMETRIES FOR THE   3 CORE,  87 ACTIVE ARE

     CORE= A1    B1    A1  

   ACTIVE= A1    B1    A1    A1    B1    B2    B1    A1    A2    B2  
           A1    B1    A1    B2    B1    A1    B1    A1    A2    B2  
           B1    A1    A1    B1    B2    A2    A1    B1    A2    B2  
           A1    B1    A1    B2    A1    B1    A2    B1    A1    B2  
           A1    B1    A2    B1    B2    A1    A1    B2    A2    B1  
           B1    A1    B2    B1    A1    A2    B1    B2    A1    A2  
           A1    B1    B2    A1    A1    B1    B2    A1    A2    B1  
           A2    B2    A2    B2    A1    B1    A1    B1    A1    B2  
           A2    A1    B1    B1    A1    B1    A1  

 THE NUMBER OF SPACES             =   3
 EACH SPACE STARTS AT ORBITAL     =   4  12  14
 NO OF ORBITALS IN EACH SPACE     =   8   2  77
 MIN NO OF ELECS IN EACH SPACE    =  14   0   0
 MAX NO OF ELECS IN EACH SPACE    =  16   4   2

 SPACE SPECIFICATIONS HAVE PASSED PRELIMINARY CHECKS

 ALL VALID DETERMINANTS WILL BE EXPRESSED AS PAIRS OF ALPHA AND BETA STRINGS.

 MIN NO OF ALPHA ELECS =    6   0   0
 MAX NO OF ALPHA ELECS =    8   2   2

 MIN NO OF BETA  ELECS =    6   0   0
 MAX NO OF BETA  ELECS =    8   2   2

     --------------------------------------------
     PARTIAL TWO ELECTRON INTEGRAL TRANSFORMATION
     --------------------------------------------

 NUMBER OF CORE MOLECULAR ORBITALS     =    3
 NUMBER OF OCCUPIED MOLECULAR ORBITALS =   90
 TOTAL NUMBER OF MOLECULAR ORBITALS    =   90
 TOTAL NUMBER OF ATOMIC ORBITALS       =  105
 THRESHOLD FOR KEEPING TRANSFORMED 2E- INTEGRALS = 1.000E-09
 AO INTEGRALS WILL BE CALCULATED IN DIRECT MODE...
 EVALUATING THE FROZEN CORE ENERGY...
 ----- FROZEN CORE ENERGY =      -207.9075373960

 PLAN A: REQUIREMENTS FOR FULLY IN-MEMORY TRANSFORMATION:
 # OF WORDS AVAILABLE =             50000000
 # OF WORDS NEEDED    =             51006642

 PLAN B: REQUIREMENTS FOR THE SEGMENTED TRANSFORMATION:
       MINIMUM=         754692 WORDS FOR 1 MOLECULAR ORBITAL PER PASS
       MAXIMUM=       51006642 WORDS FOR ALL MOLECULAR ORBITALS IN 1 PASS
              (         584325 EXTRA WORDS INCLUDES 1 EXTRA ORBITAL/PASS)
 THIS RUN USES=       25880667 WORDS,
 DISTRIBUTING   2 PASSES EACH CONTAINING    44 ORBITALS OVER   1 PROCESSORS.

 CHOOSING SEGMENTED PARTIAL TRANSFORMATION...
 DIRECT TRANSFORMATION SKIPS AO INTEGRAL STORAGE ON DISK.
 PASS #   1 TOOK        2.46 SECONDS.
 DIRECT TRANSFORMATION SKIPS AO INTEGRAL STORAGE ON DISK.
 PASS #   2 TOOK        3.54 SECONDS.
 TOTAL NUMBER OF TRANSFORMED 2E- INTEGRALS KEPT =      1855542
 ... END OF INTEGRAL TRANSFORMATION ...
 STEP CPU TIME =     6.41 TOTAL CPU TIME =       17.7 (    0.3 MIN)
 TOTAL WALL CLOCK TIME=       17.7 SECONDS, CPU UTILIZATION IS  99.61%

     --------------------------------------------------
                 DIRECT DETERMINANT ORMAS-CI 
                PROGRAM WRITTEN BY JOE IVANIC
     --------------------------------------------------

 STORAGE OF BINOMIAL COEFFICIENTS REQUIRES         324 WORDS

 TOTAL NUMBER OF ALPHA GROUPS  =            7
 TOTAL NUMBER OF BETA  GROUPS  =            7

 TOTAL NUMBER OF ALPHA STRINGS =       190739
 TOTAL NUMBER OF BETA  STRINGS =       190739

 STORAGE OF TABLES REQUIRES                   1145096 WORDS

 TOTAL NUMBER OF ALPHA-BETA GROUP COMBINATIONS =           49
 OF THESE THE ALLOWED NUMBER OF COMBINATIONS   =           26

 TIME FOR SETTING UP TABLE SET 1 :          0.0

 THE NUMBER OF DETERMINANTS HAVING SPACE SYMMETRY A1 
 IN POINT GROUP C2V  WITH SZ=  0.0 IS         829005

 INTEGRAL STORAGE REQUIRES                 7366363 WORDS
 EXTRA ORMAS STORAGE REQUIRES             46936043 WORDS
 (EXTRA ORMAS STORAGE INCLUDES THAT FOR MXXPAN = 10)
 TOTAL ORMAS CALCULATION REQUIRES         55447826 WORDS
 ***** ERROR: MEMORY REQUEST EXCEEDS AVAILABLE MEMORY
 PROCESS NO.    0 WORDS REQUIRED=  55447826 AVAILABLE=  50000000
 EXECUTION OF GAMESS TERMINATED -ABNORMALLY- AT Fri Jun  2 00:47:45 2017
             25924767  WORDS OF DYNAMIC MEMORY USED
 STEP CPU TIME =     0.03 TOTAL CPU TIME =       17.7 (    0.3 MIN)
 TOTAL WALL CLOCK TIME=       17.8 SECONDS, CPU UTILIZATION IS  99.61%
 DDI Process 0: error code 911
 ddikick.x: application process 0 quit unexpectedly.
 ddikick.x: Fatal error detected.
 The error is most likely to be in the application, so check for
 input errors, disk space, memory needs, application bugs, etc.
 ddikick.x will now clean up all processes, and exit...
 ddikick.x: Sending kill signal to DDI processes.
 ddikick.x: Execution terminated due to error(s).
unset echo
----- accounting info -----
Files used on the master node compute-0-2.local were:
-rw-rw-r-- 1 sarom sarom    23588 Jun  2 00:47 /scratch/ormas-o3-cisd.F05
-rw-rw-r-- 1 sarom sarom 22352616 Jun  2 00:47 /scratch/ormas-o3-cisd.F09
-rw-rw-r-- 1 sarom sarom  3108400 Jun  2 00:47 /scratch/ormas-o3-cisd.F10
-rw-rw-r-- 1 sarom sarom   492000 Jun  2 00:47 /scratch/ormas-o3-cisd.F15
-rw-rw-r-- 1 sarom sarom   356224 Jun  2 00:47 /scratch/ormas-o3-cisd.F23
rm: cannot remove `/scratch/sarom': Is a directory
rm: cannot remove `/scratch/tmp': Is a directory
ls: No match.
ls: No match.
ls: No match.
Fri Jun  2 00:47:47 CDT 2017
0.143u 0.038s 0:20.02 0.8%	0+0k 48+416io 0pf+0w
Deleting shmid=3964928.
Deleting shmid=3997697.
Deleting shmid=4227074.
/opt/gridengine/default/spool/compute-0-2/active_jobs/23479.1/pe_hostfile compute-0-2.local
