-catch_rsh /opt/gridengine/default/spool/compute-0-8/active_jobs/23475.1/pe_hostfile
compute-0-8
The primary node assigned by SGE to this run is compute-0-8
Warning: no access to tty (Bad file descriptor).
Thus no job control in this shell.
Deleting shmid=2785280.
Deleting shmid=2818049.
source /home/sarom/gamess.github.2017-05-31.14.06/install.info
setenv GMS_PATH /home/sarom/gamess.github.2017-05-31.14.06
setenv GMS_BUILD_DIR /home/sarom/gamess.github.2017-05-31.14.06
setenv GMS_TARGET linux64
setenv GMS_FORTRAN gfortran
setenv GMS_GFORTRAN_VERNO 4.4
setenv GMS_MATHLIB mkl-so
setenv GMS_MATHLIB_PATH /share/apps/intel/compilers_and_libraries_2017.1.132/linux/mkl/lib/intel64
setenv GMS_MKL_VERNO 12
setenv GMS_DDI_COMM sockets
setenv GMS_LIBCCHEM false
setenv GMS_EIGEN_PATH
setenv GMS_PHI false
setenv GMS_SHMTYPE sysv
setenv GMS_OPENMP false
unset echo
ormas-hcn-acpf
tests/ci
----- GAMESS execution script 'rungms' -----
This job is running on host compute-0-8.local
under operating system Linux at Fri Jun 2 00:46:12 CDT 2017
Available scratch disk space (Kbyte units) at beginning of the job is
Filesystem           1K-blocks      Used Available Use% Mounted on
/dev/sda1             16126920   3867344  11440376  26% /
GAMESS temporary binary files will be written to /scratch
GAMESS supplementary output files will be written to /home/sarom/restart
Copying input file ormas-hcn-acpf.inp to your run's scratch directory...
cp tests/ci/ormas-hcn-acpf.inp /scratch/ormas-hcn-acpf.F05
unset echo
The generated host list is
compute-0-8.local
/home/sarom/gamess.github.2017-05-31.14.06/ddikick.x /home/sarom/gamess.github.2017-05-31.14.06/gamess.00.x ormas-hcn-acpf -ddi 1 1 compute-0-8.local -scr /scratch

 Distributed Data Interface kickoff program.
 Initiating 1 compute processes on 1 nodes to run the following command:
 /home/sarom/gamess.github.2017-05-31.14.06/gamess.00.x ormas-hcn-acpf 

          ******************************************************
          *         GAMESS VERSION = 20 APR 2017 (R1)          *
          *             FROM IOWA STATE UNIVERSITY             *
          * M.W.SCHMIDT, K.K.BALDRIDGE, J.A.BOATZ, S.T.ELBERT, *
          *   M.S.GORDON, J.H.JENSEN, S.KOSEKI, N.MATSUNAGA,   *
          *          K.A.NGUYEN, S.J.SU, T.L.WINDUS,           *
          *       TOGETHER WITH M.DUPUIS, J.A.MONTGOMERY       *
          *         J.COMPUT.CHEM.  14, 1347-1363(1993)        *
          **************** 64 BIT LINUX VERSION ****************

  SINCE 1993, STUDENTS AND POSTDOCS WORKING AT IOWA STATE UNIVERSITY
  AND ALSO IN THEIR VARIOUS JOBS AFTER LEAVING ISU HAVE MADE IMPORTANT
  CONTRIBUTIONS TO THE CODE:
     IVANA ADAMOVIC, CHRISTINE AIKENS, YURI ALEXEEV, POOJA ARORA,
     ANDREY ASADCHEV, ROB BELL, PRADIPTA BANDYOPADHYAY, JONATHAN BENTZ,
     BRETT BODE, KURT BRORSEN, CALEB CARLIN, GALINA CHABAN, WEI CHEN,
     CHEOL HO CHOI, PAUL DAY, ALBERT DEFUSCO, NUWAN DESILVA, TIM DUDLEY,
     DMITRI FEDOROV, GRAHAM FLETCHER, MARK FREITAG, KURT GLAESEMANN,
     DAN KEMP, GRANT MERRILL, NORIYUKI MINEZAWA, JONATHAN MULLIN,
     TAKESHI NAGATA, SEAN NEDD, HEATHER NETZLOFF, BOSILJKA NJEGIC, RYAN OLSON,
     MIKE PAK, SPENCER PRUITT, LUKE ROSKOP, JIM SHOEMAKER, LYUDMILA SLIPCHENKO,
     TONY SMITH, SAROM SOK LEANG, JIE SONG, TETSUYA TAKETSUGU, SIMON WEBB,
     PENG XU, SOOHAENG YOO, FEDERICO ZAHARIEV

  ADDITIONAL CODE HAS BEEN PROVIDED BY COLLABORATORS IN OTHER GROUPS:
     IOWA STATE UNIVERSITY:
          JOE IVANIC, AARON WEST, LAIMUTIS BYTAUTAS, KLAUS RUEDENBERG
     UNIVERSITY OF TOKYO: KIMIHIKO HIRAO, TAKAHITO NAKAJIMA,
          TAKAO TSUNEDA, MUNEAKI KAMIYA, SUSUMU YANAGISAWA,
          KIYOSHI YAGI, MAHITO CHIBA, SEIKEN TOKURA, NAOAKI KAWAKAMI
     UNIVERSITY OF AARHUS: FRANK JENSEN
     UNIVERSITY OF IOWA: VISVALDAS KAIRYS, HUI LI
     NATIONAL INST. OF STANDARDS AND TECHNOLOGY: WALT STEVENS, DAVID GARMER
     UNIVERSITY OF PISA: BENEDETTA MENNUCCI, JACOPO TOMASI
     UNIVERSITY OF MEMPHIS: HENRY KURTZ, PRAKASHAN KORAMBATH
     UNIVERSITY OF ALBERTA: TOBY ZENG, MARIUSZ KLOBUKOWSKI
     UNIVERSITY OF NEW ENGLAND: MARK SPACKMAN
     MIE UNIVERSITY: HIROAKI UMEDA
     NAT. INST. OF ADVANCED INDUSTRIAL SCIENCE AND TECHNOLOGY: KAZUO KITAURA
     MICHIGAN STATE UNIVERSITY:
          KAROL KOWALSKI, MARTA WLOCH, JEFFREY GOUR, JESSE LUTZ,
          WEI LI, PIOTR PIECUCH
     UNIVERSITY OF SILESIA: MONIKA MUSIAL, STANISLAW KUCHARSKI
     FACULTES UNIVERSITAIRES NOTRE-DAME DE LA PAIX:
          OLIVIER QUINET, BENOIT CHAMPAGNE
     UNIVERSITY OF CALIFORNIA - SANTA BARBARA: BERNARD KIRTMAN
     INSTITUTE FOR MOLECULAR SCIENCE:
          KAZUYA ISHIMURA, MICHIO KATOUDA, AND SHIGERU NAGASE
     UNIVERSITY OF NOTRE DAME: ANNA POMOGAEVA, DAN CHIPMAN
     KYUSHU UNIVERSITY:
          HARUYUKI NAKANO,
          FENG LONG GU, JACEK KORCHOWIEC, MARCIN MAKOWSKI, AND YURIKO AOKI,
          HIROTOSHI MORI AND EISAKU MIYOSHI
     PENNSYLVANIA STATE UNIVERSITY:
          TZVETELIN IORDANOV, CHET SWALINA, JONATHAN SKONE,
          SHARON HAMMES-SCHIFFER
     WASEDA UNIVERSITY:
          MASATO KOBAYASHI, TOMOKO AKAMA, TSUGUKI TOUMA,
          TAKESHI YOSHIKAWA, YASUHIRO IKABATA, JUNJI SEINO,
          YUYA NAKAJIMA, HIROMI NAKAI
     NANJING UNIVERSITY: SHUHUA LI
     UNIVERSITY OF NEBRASKA:
          PEIFENG SU, DEJUN SI, NANDUN THELLAMUREGE, YALI WANG, HUI LI
     UNIVERSITY OF ZURICH: ROBERTO PEVERATI, KIM BALDRIDGE
     N. COPERNICUS UNIVERSITY AND JACKSON STATE UNIVERSITY:
          MARIA BARYSZ
     UNIVERSITY OF COPENHAGEN: Jimmy Kromann, CASPER STEINMANN
     TOKYO INSTITUTE OF TECHNOLOGY: HIROYA NAKATA
     NAGOYA UNIVERSITY: YOSHIO NISHIMOTO, STEPHAN IRLE
     MOSCOW STATE UNIVERSITY: VLADIMIR MIRONOV

 EXECUTION OF GAMESS BEGUN Fri Jun  2 00:46:12 2017

            ECHO OF THE FIRST FEW INPUT CARDS -
 INPUT CARD>!    HCN...attempt to reproduce SCF and SR-CPF values of paper A:               
 INPUT CARD>!       M.Kofranek, H.Lischka, A.Karpfen                                        
 INPUT CARD>!       Mol.Phys. 61, 1519(1987)                                                
 INPUT CARD>!    and SR-ACPF values of paper B:                                             
 INPUT CARD>!       R.Shepard, H.Lischka, P.G.Szalay, T.Kovar, M.Ernzerhof                  
 INPUT CARD>!       J.Chem.Phys. 96, 2085(1992)                                             
 INPUT CARD>!    Together their data say                                                    
 INPUT CARD>!              r(CN)  r(CH)  dipole   energy                                    
 INPUT CARD>!       SCF:  1.1253 1.0578  3.271 -92.911553     paper A                       
 INPUT CARD>!       CPF:  1.1568 1.0686  2.934 -93.241383     paper A                       
 INPUT CARD>!      ACPF:  1.1578 1.0683  2.916 -93.242396     paper B                       
 INPUT CARD>!                                                                               
 INPUT CARD>!    results from this run, performed at the ACPF geometry, should be:          
 INPUT CARD>!       FINAL RHF E= -92.9087507201, 11 iters, dipole= 3.305937                 
 INPUT CARD>!         SR-ACPF E= -93.2423959694, 14 iters, dipole= 2.916116, C0= 0.9360979  
 INPUT CARD>!    which is a perfect match to the last literature row from paper B.          
 INPUT CARD>!                                                                               
 INPUT CARD>!    this run takes 54 seconds on 2.66 GHz Cloverton (22 Oct 2014)              
 INPUT CARD>!                                                                               
 INPUT CARD>!    -------------------------------------------------------------------        
 INPUT CARD>!    Joe's results are all done at the input's ACPF geometry,                   
 INPUT CARD>!      SR-CISD has 43,950 determinants (exploiting A1 irrep of C2v):            
 INPUT CARD>!      SR-CISD  (G=0.0)         -93.2124169998, dipole= 3.074674, C0= 0.9522245 
 INPUT CARD>!      SR-AQCC  (G=0.622222...) -93.2347282379                                  
 INPUT CARD>!      SR-ACPF  (G=0.8)         -93.2423959694                                  
 INPUT CARD>!      SR-CEPA0 (G=1.0)         -93.2522974007                                  
 INPUT CARD>!      E(CISD+Q)                -93.2433646                                     
 INPUT CARD>!      E(CISDTQ)                -93.2528160365                                  
 INPUT CARD>!                                                                               
 INPUT CARD>!    Paper A says Huzinaga's 11s,7p basis was contracted to 7s,5p,              
 INPUT CARD>!    and explicitly states all polarization functions used below.               
 INPUT CARD>!    Paper B says there are 74 basis functions, so we can infer                 
 INPUT CARD>!    the d functions are used as spherical harmonics.                           
 INPUT CARD>!    Paper A says hydrogen uses Huzinaga's 6s contracted to 4s.                 
 INPUT CARD>!    No explicit contraction pattern was specified, so we guess it.             
 INPUT CARD>!                                                                               
 INPUT CARD>!    The 11s,7p exponents for C,N in the open literature "part 2",              
 INPUT CARD>!        S.Huzinaga and Y.Sakai  JCP 50, 1371 (1969)                            
 INPUT CARD>!    differ from the 1971 technical report                                      
 INPUT CARD>!        Approximate Atomic Functions I, S.Huzinaga, U. of Alberta              
 INPUT CARD>!    with the latter giving slightly lower energies for C and N.                
 INPUT CARD>!    The C,N exponents used below are from the technical report.                
 INPUT CARD>!    The 6s exponents for H are taken from "part 1", Table V:                   
 INPUT CARD>!        S.Huzinaga, JCP 42, 1293(1965)                                         
 INPUT CARD>!                                                                               
 INPUT CARD>!    I have guessed that for C,N:                                               
 INPUT CARD>!       11s --> 7s means contract inner 5 with outer 6 left uncontracted        
 INPUT CARD>!        7p --> 5p means contract inner 3 with outer 4 left uncontracted        
 INPUT CARD>!    and for Hydrogen,                                                          
 INPUT CARD>!        6s --> 4s means contract inner 3 with outer 3 left uncontracted        
   10000000 WORDS OF MEMORY AVAILABLE

     BASIS OPTIONS
     -------------
     GBASIS=             IGAUSS=       0      POLAR=NONE    
     NDFUNC=       0     NFFUNC=       0     DIFFSP=       F
     NPFUNC=       0      DIFFS=       F     BASNAM=H-HUZ   

 USING BASNAM FOR ATOM CUSTOMIZED BASIS CONSTRUCTION
     ----------------
     ATOM  BASIS NAME
     ----------------
       1   H-HUZ   
       2   C-HUZ   
       3   N-HUZ   
 NOW LOCATING ALL    3 BASIS SETS IN YOUR INPUT FILE...
 FOUND BASIS SET  $H-HUZ 
   s 3                         
    1 68.1600 2.54893509E-03   
    2 10.2465 1.93800054E-02   
    3 2.34648 9.27962457E-02   
   s 1 ; 1 0.673320 1.0        
   s 1 ; 1 0.224660 1.0        
   s 1 ; 1 0.082217 1.0        
   p 1 ; 1 0.75 1.0            
   p 1 ; 1 0.25 1.0            
                               
  $end                         
 FOUND BASIS SET  $C-HUZ 
   s 5                         
     1 16371.074 2.26418325E-04
     2 2426.9925 1.78446816E-03
     3 544.54418 9.49015625E-03
     4 150.80487 3.96605151E-02
     5 47.708143 1.31340252E-01
   s 1 ; 1 16.457241 1.0       
   s 1 ; 1 6.0845578 1.0       
   s 1 ; 1 2.3824631 1.0       
   s 1 ; 1 0.66198660 1.0      
   s 1 ; 1 0.24698997 1.0      
   s 1 ; 1 0.094987300 1.0     
   p 3                         
     1 40.790423 4.09697985E-03
     2 9.5034633 2.75848266E-02
     3 2.9408357 1.06354560E-01
   p 1 ; 1 1.0751115 1.0       
   p 1 ; 1 0.42670240 1.0      
   p 1 ; 1 0.17481926 1.0      
   p 1 ; 1 0.071130540 1.0     
   d 1 ; 1 1.00 1.0            
   d 1 ; 1 0.30 1.0            
                               
  $end                         
 FOUND BASIS SET  $N-HUZ 
   s 5                         
     1 23274.857 2.15502695E-04
     2 3468.1830 1.69440409E-03
     3 777.98843 9.00631359E-03
     4 215.71976 3.77815056E-02
     5 68.078031 1.26854643E-01
   s 1 ; 1 23.424397 1.0       
   s 1 ; 1 8.6693766 1.0       
   s 1 ; 1 3.4217533 1.0       
   s 1 ; 1 0.93125652 1.0      
   s 1 ; 1 0.34656886 1.0      
   s 1 ; 1 0.13311538 1.0      
   p 3                         
     1 60.317240 3.97657661E-03
     2 14.100811 2.76419672E-02
     3 4.3877179 1.08101532E-01
   p 1 ; 1 1.6082717 1.0       
   p 1 ; 1 0.63885442 1.0      
   p 1 ; 1 0.26035829 1.0      
   p 1 ; 1 0.10396545 1.0      
   d 1 ; 1 0.95 1.0            
   d 1 ; 1 0.30 1.0            
                               
  $end                         
    3 UNIQUE ATOM CUSTOMIZED BASIS SETS WERE FOUND.

     SEARCHING FOR $MCP
     $MCP GROUP NOT FOUND


     RUN TITLE
     ---------
 HCN...below is the ACPF geometry                                                

 THE POINT GROUP OF THE MOLECULE IS CNV     
 THE ORDER OF THE PRINCIPAL AXIS IS     2
 *** WARNING! ATOM   1 SHELL    1 TYPE S HAS NORMALIZATION   9.27624006
 *** WARNING! ATOM   2 SHELL    7 TYPE S HAS NORMALIZATION   5.88723980
 *** WARNING! ATOM   2 SHELL   14 TYPE P HAS NORMALIZATION   7.83965862
 *** WARNING! ATOM   3 SHELL   21 TYPE S HAS NORMALIZATION   6.11720170
 *** WARNING! ATOM   3 SHELL   28 TYPE P HAS NORMALIZATION   7.73111852

 ATOM      ATOMIC                      COORDINATES (BOHR)
           CHARGE         X                   Y                   Z
 H           1.0     0.0000000000        0.0000000000       -2.0187942727
 C           6.0     0.0000000000        0.0000000000        0.0000000000
 N           7.0     0.0000000000        0.0000000000        2.1879247486

          INTERNUCLEAR DISTANCES (ANGS.)
          ------------------------------

                1 H          2 C          3 N     

   1 H       0.0000000    1.0683000 *  2.2261000 *
   2 C       1.0683000 *  0.0000000    1.1578000 *
   3 N       2.2261000 *  1.1578000 *  0.0000000  

  * ... LESS THAN  3.000


     ATOMIC BASIS SET
     ----------------
 THE CONTRACTED PRIMITIVE FUNCTIONS HAVE BEEN UNNORMALIZED
 THE CONTRACTED BASIS FUNCTIONS ARE NOW NORMALIZED TO UNITY

  SHELL TYPE  PRIMITIVE        EXPONENT          CONTRACTION COEFFICIENT(S)

 H         

      1   S       1            68.1600000    0.023644533795
      1   S       2            10.2465000    0.179773582475
      1   S       3             2.3464800    0.860800251876

      2   S       4             0.6733200    1.000000000000

      3   S       5             0.2246600    1.000000000000

      4   S       6             0.0822170    1.000000000000

      5   P       7             0.7500000    1.000000000000

      6   P       8             0.2500000    1.000000000000

 C         

      7   S       9         16371.0740000    0.001332978975
      7   S      10          2426.9925000    0.010505591979
      7   S      11           544.5441800    0.055870825614
      7   S      12           150.8048700    0.233490963114
      7   S      13            47.7081430    0.773231559344

      8   S      14            16.4572410    1.000000000000

      9   S      15             6.0845578    1.000000000000

     10   S      16             2.3824631    1.000000000000

     11   S      17             0.6619866    1.000000000000

     12   S      18             0.2469900    1.000000000000

     13   S      19             0.0949873    1.000000000000

     14   P      20            40.7904230    0.032118923377
     14   P      21             9.5034633    0.216255623498
     14   P      22             2.9408357    0.833783442549

     15   P      23             1.0751115    1.000000000000

     16   P      24             0.4267024    1.000000000000

     17   P      25             0.1748193    1.000000000000

     18   P      26             0.0711305    1.000000000000

     19   D      27             1.0000000    1.000000000000

     20   D      28             0.3000000    1.000000000000

 N         

     21   S      29         23274.8570000    0.001318273453
     21   S      30          3468.1830000    0.010365011586
     21   S      31           777.9884300    0.055093436836
     21   S      32           215.7197600    0.231117090420
     21   S      33            68.0780310    0.775995438267

     22   S      34            23.4243970    1.000000000000

     23   S      35             8.6693766    1.000000000000

     24   S      36             3.4217533    1.000000000000

     25   S      37             0.9312565    1.000000000000

     26   S      38             0.3465689    1.000000000000

     27   S      39             0.1331154    1.000000000000

     28   P      40            60.3172400    0.030743385074
     28   P      41            14.1008110    0.213703324534
     28   P      42             4.3877179    0.835745756027

     29   P      43             1.6082717    1.000000000000

     30   P      44             0.6388544    1.000000000000

     31   P      45             0.2603583    1.000000000000

     32   P      46             0.1039655    1.000000000000

     33   D      47             0.9500000    1.000000000000

     34   D      48             0.3000000    1.000000000000

 TOTAL NUMBER OF BASIS SET SHELLS             =   34
 NUMBER OF CARTESIAN GAUSSIAN BASIS FUNCTIONS =   78
 NOTE: THIS RUN WILL RESTRICT THE MO VARIATION SPACE TO SPHERICAL HARMONICS.
 THE NUMBER OF ORBITALS KEPT IN THE VARIATIONAL SPACE WILL BE PRINTED LATER.
 NUMBER OF ELECTRONS                          =   14
 CHARGE OF MOLECULE                           =    0
 SPIN MULTIPLICITY                            =    1
 NUMBER OF OCCUPIED ORBITALS (ALPHA)          =    7
 NUMBER OF OCCUPIED ORBITALS (BETA )          =    7
 TOTAL NUMBER OF ATOMS                        =    3
 THE NUCLEAR REPULSION ENERGY IS       23.8323483349

 THIS MOLECULE IS RECOGNIZED AS BEING LINEAR,
 ORBITAL LZ DEGENERACY TOLERANCE ETOLLZ= 1.00E-06

     $CONTRL OPTIONS
     ---------------
 SCFTYP=RHF          RUNTYP=ENERGY       EXETYP=RUN     
 MPLEVL=       0     CITYP =ORMAS        CCTYP =NONE         VBTYP =NONE    
 DFTTYP=NONE         TDDFT =NONE    
 MULT  =       1     ICHARG=       0     NZVAR =       0     COORD =UNIQUE  
 PP    =NONE         RELWFN=NONE         LOCAL =NONE         NUMGRD=       F
 ISPHER=       1     NOSYM =       0     MAXIT =      30     UNITS =ANGS    
 PLTORB=       F     MOLPLT=       F     AIMPAC=       F     FRIEND=        
 NPRINT=       7     IREST =       0     GEOM  =INPUT   
 NORMF =       0     NORMP =       0     ITOL  =      20     ICUT  =       9
 INTTYP=BEST         GRDTYP=BEST         QMTTOL= 1.0E-06

     $SYSTEM OPTIONS
     ---------------
  REPLICATED MEMORY=    10000000 WORDS (ON EVERY NODE).
 DISTRIBUTED MEMDDI=           0 MILLION WORDS IN AGGREGATE,
 MEMDDI DISTRIBUTED OVER   1 PROCESSORS IS           0 WORDS/PROCESSOR.
 TOTAL MEMORY REQUESTED ON EACH PROCESSOR=    10000000 WORDS.
 TIMLIM=      525600.00 MINUTES, OR     365.0 DAYS.
 PARALL= F  BALTYP=  DLB     KDIAG=    0  COREFL= F
 MXSEQ2=     300 MXSEQ3=     150  mem10=         0

          ----------------
          PROPERTIES INPUT
          ----------------

     MOMENTS            FIELD           POTENTIAL          DENSITY
 IEMOM =       1   IEFLD =       0   IEPOT =       0   IEDEN =       0
 WHERE =COMASS     WHERE =NUCLEI     WHERE =NUCLEI     WHERE =NUCLEI  
 OUTPUT=BOTH       OUTPUT=BOTH       OUTPUT=BOTH       OUTPUT=BOTH    
 IEMINT=       0   IEFINT=       0                     IEDINT=       0
                                                       MORB  =       0
          EXTRAPOLATION IN EFFECT
          SOSCF IN EFFECT
 ORBITAL PRINTING OPTION: NPREO=     1    78     2     1

     -------------------------------
     INTEGRAL TRANSFORMATION OPTIONS
     -------------------------------
     NWORD  =            0
     CUTOFF = 1.0E-09     MPTRAN =       0
     DIRTRF =       F     AOINTS =DUP     

          ----------------------
          INTEGRAL INPUT OPTIONS
          ----------------------
 NOPK  =       1 NORDER=       0 SCHWRZ=       F

     ------------------------------------------
     THE POINT GROUP IS CNV, NAXIS= 2, ORDER= 4
     ------------------------------------------

 -- VARIATIONAL SPACE WILL BE RESTRICTED TO PURE SPHERICAL HARMONICS ONLY --
 AFTER EXCLUDING CONTAMINANT COMBINATIONS FROM THE CARTESIAN GAUSSIAN BASIS
 SET, THE NUMBER OF SPHERICAL HARMONICS KEPT IN THE VARIATION SPACE IS   74

     DIMENSIONS OF THE SYMMETRY SUBSPACES ARE
 A1  =   38     A2  =    4     B1  =   16     B2  =   16

 ..... DONE SETTING UP THE RUN .....
 STEP CPU TIME =     0.03 TOTAL CPU TIME =        0.0 (    0.0 MIN)
 TOTAL WALL CLOCK TIME=        0.0 SECONDS, CPU UTILIZATION IS 100.00%

          ********************
          1 ELECTRON INTEGRALS
          ********************
 ...... END OF ONE-ELECTRON INTEGRALS ......
 STEP CPU TIME =     0.00 TOTAL CPU TIME =        0.0 (    0.0 MIN)
 TOTAL WALL CLOCK TIME=        0.0 SECONDS, CPU UTILIZATION IS 100.00%

          -------------
          GUESS OPTIONS
          -------------
          GUESS =HUCKEL            NORB  =       0          NORDER=       0
          MIX   =       F          PRTMO =       F          PUNMO =       F
          TOLZ  = 1.0E-08          TOLE  = 1.0E-05
          SYMDEN=       F          PURIFY=       F

 INITIAL GUESS ORBITALS GENERATED BY HUCKEL   ROUTINE.
 HUCKEL GUESS REQUIRES     46932 WORDS.

 STATISTICS FOR GENERATION OF SYMMETRY ORBITAL -Q- MATRIX
 NUMBER OF CARTESIAN ATOMIC ORBITALS=         78
 NUMBER OF SPHERICAL CONTAMINANTS DROPPED=     4
 NUMBER OF LINEARLY DEPENDENT MOS DROPPED=     0
 TOTAL NUMBER OF MOS IN VARIATION SPACE=      74

 SYMMETRIES FOR INITIAL GUESS ORBITALS FOLLOW.   BOTH SET(S).
     7 ORBITALS ARE OCCUPIED (    2 CORE ORBITALS).
     3=A1       4=A1       5=B1       6=B2       7=A1       8=B2       9=B1  
    10=A1      11=A1      12=A1      13=A1      14=A1      15=A1      16=A1  
    17=A1  
 ...... END OF INITIAL ORBITAL SELECTION ......
 STEP CPU TIME =     0.00 TOTAL CPU TIME =        0.0 (    0.0 MIN)
 TOTAL WALL CLOCK TIME=        0.0 SECONDS, CPU UTILIZATION IS  75.00%

                    ----------------------
                    AO INTEGRAL TECHNOLOGY
                    ----------------------
     S,P,L SHELL ROTATED AXIS INTEGRALS, REPROGRAMMED BY
        KAZUYA ISHIMURA (IMS) AND JOSE SIERRA (SYNSTAR).
     S,P,D,L SHELL ROTATED AXIS INTEGRALS PROGRAMMED BY
        KAZUYA ISHIMURA (INSTITUTE FOR MOLECULAR SCIENCE).
     S,P,D,F,G SHELL TO TOTAL QUARTET ANGULAR MOMENTUM SUM 5,
        ERIC PROGRAM BY GRAHAM FLETCHER (ELORET AND NASA ADVANCED
        SUPERCOMPUTING DIVISION, AMES RESEARCH CENTER).
     S,P,D,F,G,L SHELL GENERAL RYS QUADRATURE PROGRAMMED BY
        MICHEL DUPUIS (PACIFIC NORTHWEST NATIONAL LABORATORY).

          --------------------
          2 ELECTRON INTEGRALS
          --------------------

 THE -PK- OPTION IS OFF, THE INTEGRALS ARE NOT IN SUPERMATRIX FORM.
 STORING   15000 INTEGRALS/RECORD ON DISK, USING 12 BYTES/INTEGRAL.
 TWO ELECTRON INTEGRAL EVALUATION REQUIRES   90991 WORDS OF MEMORY.
 II,JST,KST,LST =  1  1  1  1 NREC =         1 INTLOC =    1
 II,JST,KST,LST =  2  1  1  1 NREC =         1 INTLOC =    2
 II,JST,KST,LST =  3  1  1  1 NREC =         1 INTLOC =    7
 II,JST,KST,LST =  4  1  1  1 NREC =         1 INTLOC =   22
 II,JST,KST,LST =  5  1  1  1 NREC =         1 INTLOC =   56
 II,JST,KST,LST =  6  1  1  1 NREC =         1 INTLOC =  125
 II,JST,KST,LST =  7  1  1  1 NREC =         1 INTLOC =  329
 II,JST,KST,LST =  8  1  1  1 NREC =         1 INTLOC =  600
 II,JST,KST,LST =  9  1  1  1 NREC =         1 INTLOC =  970
 II,JST,KST,LST = 10  1  1  1 NREC =         1 INTLOC = 1463
 II,JST,KST,LST = 11  1  1  1 NREC =         1 INTLOC = 2106
 II,JST,KST,LST = 12  1  1  1 NREC =         1 INTLOC = 2929
 II,JST,KST,LST = 13  1  1  1 NREC =         1 INTLOC = 3965
 II,JST,KST,LST = 14  1  1  1 NREC =         1 INTLOC = 5250
 II,JST,KST,LST = 15  1  1  1 NREC =         1 INTLOC = 8308
 II,JST,KST,LST = 16  1  1  1 NREC =         1 INTLOC =12821
 II,JST,KST,LST = 17  1  1  1 NREC =         2 INTLOC = 4107
 II,JST,KST,LST = 18  1  1  1 NREC =         2 INTLOC =12547
 II,JST,KST,LST = 19  1  1  1 NREC =         3 INTLOC = 8585
 II,JST,KST,LST = 20  1  1  1 NREC =         5 INTLOC = 9912
 II,JST,KST,LST = 21  1  1  1 NREC =         8 INTLOC =12256
 II,JST,KST,LST = 22  1  1  1 NREC =         9 INTLOC = 9034
 II,JST,KST,LST = 23  1  1  1 NREC =        10 INTLOC = 7322
 II,JST,KST,LST = 24  1  1  1 NREC =        11 INTLOC = 7558
 II,JST,KST,LST = 25  1  1  1 NREC =        12 INTLOC =10101
 II,JST,KST,LST = 26  1  1  1 NREC =        13 INTLOC =14781
 II,JST,KST,LST = 27  1  1  1 NREC =        15 INTLOC = 6063
 II,JST,KST,LST = 28  1  1  1 NREC =        16 INTLOC =13992
 II,JST,KST,LST = 29  1  1  1 NREC =        20 INTLOC =12162
 II,JST,KST,LST = 30  1  1  1 NREC =        25 INTLOC = 8114
 II,JST,KST,LST = 31  1  1  1 NREC =        31 INTLOC = 1364
 II,JST,KST,LST = 32  1  1  1 NREC =        37 INTLOC = 7388
 II,JST,KST,LST = 33  1  1  1 NREC =        44 INTLOC =12200
 II,JST,KST,LST = 34  1  1  1 NREC =        62 INTLOC = 8018
 TOTAL NUMBER OF NONZERO TWO-ELECTRON INTEGRALS =             1258739
         84 INTEGRAL RECORDS WERE STORED ON DISK FILE  8.
  ...... END OF TWO-ELECTRON INTEGRALS .....
 STEP CPU TIME =     0.22 TOTAL CPU TIME =        0.3 (    0.0 MIN)
 TOTAL WALL CLOCK TIME=        0.3 SECONDS, CPU UTILIZATION IS  96.15%

          --------------------------
                 RHF SCF CALCULATION
          --------------------------

     NUCLEAR ENERGY =        23.8323483349
     MAXIT =   30     NPUNCH=    2
     EXTRAP=T  DAMP=F  SHIFT=F  RSTRCT=F  DIIS=F  DEM=F  SOSCF=T
     DENSITY MATRIX CONV=  1.00E-06
     SOSCF WILL OPTIMIZE     469 ORBITAL ROTATIONS, SOGTOL=   0.250
     MEMORY REQUIRED FOR RHF ITERS=     75556 WORDS.

 ITER EX DEM     TOTAL ENERGY        E CHANGE  DENSITY CHANGE     ORB. GRAD
   1  0  0      -92.5521847202   -92.5521847202   0.324276740   0.000000000
          ---------------START SECOND ORDER SCF---------------
   2  1  0      -92.8629961497    -0.3108114295   0.076698644   0.069974522
   3  2  0      -92.8776757447    -0.0146795950   0.028112107   0.050975442
   4  3  0      -92.9083770727    -0.0307013279   0.007554737   0.005499430
   5  4  0      -92.9087154354    -0.0003383627   0.004386251   0.001461119
   6  5  0      -92.9087498923    -0.0000344570   0.000448315   0.000189816
   7  6  0      -92.9087506988    -0.0000008065   0.000182411   0.000043918
   8  7  0      -92.9087507193    -0.0000000205   0.000023856   0.000008869
   9  8  0      -92.9087507201    -0.0000000008   0.000004540   0.000000827
  10  9  0      -92.9087507201    -0.0000000000   0.000001237   0.000000178
  11 10  0      -92.9087507201    -0.0000000000   0.000000078   0.000000030

          -----------------
          DENSITY CONVERGED
          -----------------
     TIME TO FORM FOCK OPERATORS=       0.2 SECONDS (       0.0 SEC/ITER)
     TIME TO SOLVE SCF EQUATIONS=       0.0 SECONDS (       0.0 SEC/ITER)

 FINAL RHF ENERGY IS      -92.9087507201 AFTER  11 ITERATIONS

 LZ VALUE ANALYSIS FOR THE MOS
 ----------------------------------------
 MO     1 (    1) HAS LZ(WEIGHT)= 0.00(100.0%) 
 MO     2 (    2) HAS LZ(WEIGHT)= 0.00(100.0%) 
 MO     3 (    3) HAS LZ(WEIGHT)= 0.00(100.0%) 
 MO     4 (    4) HAS LZ(WEIGHT)= 0.00(100.0%) 
 MO     5 (    5) HAS LZ(WEIGHT)= 0.00(100.0%) 
 MO     6 (    6) HAS LZ(WEIGHT)=-1.00( 50.0%)  1.00( 50.0%) 
 MO     7 (    6) HAS LZ(WEIGHT)=-1.00( 50.0%)  1.00( 50.0%) 
 MO     8 (    7) HAS LZ(WEIGHT)= 0.00(100.0%) 
 MO     9 (    8) HAS LZ(WEIGHT)=-1.00( 50.0%)  1.00( 50.0%) 
 MO    10 (    8) HAS LZ(WEIGHT)=-1.00( 50.0%)  1.00( 50.0%) 
 MO    11 (    9) HAS LZ(WEIGHT)= 0.00(100.0%) 
 MO    12 (   10) HAS LZ(WEIGHT)=-1.00( 50.0%)  1.00( 50.0%) 
 MO    13 (   10) HAS LZ(WEIGHT)=-1.00( 50.0%)  1.00( 50.0%) 
 MO    14 (   11) HAS LZ(WEIGHT)= 0.00(100.0%) 
 MO    15 (   12) HAS LZ(WEIGHT)= 0.00(100.0%) 
 MO    16 (   13) HAS LZ(WEIGHT)=-1.00( 50.0%)  1.00( 50.0%) 
 MO    17 (   13) HAS LZ(WEIGHT)=-1.00( 50.0%)  1.00( 50.0%) 
 MO    18 (   14) HAS LZ(WEIGHT)= 0.00(100.0%) 
 MO    19 (   15) HAS LZ(WEIGHT)=-1.00( 50.0%)  1.00( 50.0%) 
 MO    20 (   15) HAS LZ(WEIGHT)=-1.00( 50.0%)  1.00( 50.0%) 
 MO    21 (   16) HAS LZ(WEIGHT)= 0.00(100.0%) 
 MO    22 (   17) HAS LZ(WEIGHT)=-2.00( 50.0%)  2.00( 50.0%) 
 MO    23 (   17) HAS LZ(WEIGHT)=-2.00( 50.0%)  2.00( 50.0%) 
 MO    24 (   18) HAS LZ(WEIGHT)=-1.00( 50.0%)  1.00( 50.0%) 
 MO    25 (   18) HAS LZ(WEIGHT)=-1.00( 50.0%)  1.00( 50.0%) 
 MO    26 (   19) HAS LZ(WEIGHT)= 0.00(100.0%) 
 MO    27 (   20) HAS LZ(WEIGHT)= 0.00(100.0%) 
 MO    28 (   21) HAS LZ(WEIGHT)= 0.00(100.0%) 
 MO    29 (   22) HAS LZ(WEIGHT)=-2.00( 50.0%)  2.00( 50.0%) 
 MO    30 (   22) HAS LZ(WEIGHT)=-2.00( 50.0%)  2.00( 50.0%) 
 MO    31 (   23) HAS LZ(WEIGHT)=-1.00( 50.0%)  1.00( 50.0%) 
 MO    32 (   23) HAS LZ(WEIGHT)=-1.00( 50.0%)  1.00( 50.0%) 
 MO    33 (   24) HAS LZ(WEIGHT)= 0.00(100.0%) 
 MO    34 (   25) HAS LZ(WEIGHT)=-1.00( 50.0%)  1.00( 50.0%) 
 MO    35 (   25) HAS LZ(WEIGHT)=-1.00( 50.0%)  1.00( 50.0%) 
 MO    36 (   26) HAS LZ(WEIGHT)=-1.00( 50.0%)  1.00( 50.0%) 
 MO    37 (   26) HAS LZ(WEIGHT)=-1.00( 50.0%)  1.00( 50.0%) 
 MO    38 (   27) HAS LZ(WEIGHT)= 0.00(100.0%) 
 MO    39 (   28) HAS LZ(WEIGHT)= 0.00(100.0%) 
 MO    40 (   29) HAS LZ(WEIGHT)= 0.00(100.0%) 
 MO    41 (   30) HAS LZ(WEIGHT)=-1.00( 50.0%)  1.00( 50.0%) 
 MO    42 (   30) HAS LZ(WEIGHT)=-1.00( 50.0%)  1.00( 50.0%) 
 MO    43 (   31) HAS LZ(WEIGHT)= 0.00(100.0%) 
 MO    44 (   32) HAS LZ(WEIGHT)=-1.00( 50.0%)  1.00( 50.0%) 
 MO    45 (   32) HAS LZ(WEIGHT)=-1.00( 50.0%)  1.00( 50.0%) 
 MO    46 (   33) HAS LZ(WEIGHT)= 0.00(100.0%) 
 MO    47 (   34) HAS LZ(WEIGHT)= 0.00(100.0%) 
 MO    48 (   35) HAS LZ(WEIGHT)=-1.00( 50.0%)  1.00( 50.0%) 
 MO    49 (   35) HAS LZ(WEIGHT)=-1.00( 50.0%)  1.00( 50.0%) 
 MO    50 (   36) HAS LZ(WEIGHT)=-2.00( 50.0%)  2.00( 50.0%) 
 MO    51 (   36) HAS LZ(WEIGHT)=-2.00( 50.0%)  2.00( 50.0%) 
 MO    52 (   37) HAS LZ(WEIGHT)=-2.00( 50.0%)  2.00( 50.0%) 
 MO    53 (   37) HAS LZ(WEIGHT)=-2.00( 50.0%)  2.00( 50.0%) 
 MO    54 (   38) HAS LZ(WEIGHT)= 0.00(100.0%) 
 MO    55 (   39) HAS LZ(WEIGHT)= 0.00(100.0%) 
 MO    56 (   40) HAS LZ(WEIGHT)=-1.00( 50.0%)  1.00( 50.0%) 
 MO    57 (   40) HAS LZ(WEIGHT)=-1.00( 50.0%)  1.00( 50.0%) 
 MO    58 (   41) HAS LZ(WEIGHT)=-1.00( 50.0%)  1.00( 50.0%) 
 MO    59 (   41) HAS LZ(WEIGHT)=-1.00( 50.0%)  1.00( 50.0%) 
 MO    60 (   42) HAS LZ(WEIGHT)= 0.00(100.0%) 
 MO    61 (   43) HAS LZ(WEIGHT)= 0.00(100.0%) 
 MO    62 (   44) HAS LZ(WEIGHT)= 0.00(100.0%) 
 MO    63 (   45) HAS LZ(WEIGHT)= 0.00(100.0%) 
 MO    64 (   46) HAS LZ(WEIGHT)=-1.00( 50.0%)  1.00( 50.0%) 
 MO    65 (   46) HAS LZ(WEIGHT)=-1.00( 50.0%)  1.00( 50.0%) 
 MO    66 (   47) HAS LZ(WEIGHT)= 0.00(100.0%) 
 MO    67 (   48) HAS LZ(WEIGHT)= 0.00(100.0%) 
 MO    68 (   49) HAS LZ(WEIGHT)=-1.00( 50.0%)  1.00( 50.0%) 
 MO    69 (   49) HAS LZ(WEIGHT)=-1.00( 50.0%)  1.00( 50.0%) 
 MO    70 (   50) HAS LZ(WEIGHT)= 0.00(100.0%) 
 MO    71 (   51) HAS LZ(WEIGHT)= 0.00(100.0%) 
 MO    72 (   52) HAS LZ(WEIGHT)= 0.00(100.0%) 
 MO    73 (   53) HAS LZ(WEIGHT)= 0.00(100.0%) 
 MO    74 (   54) HAS LZ(WEIGHT)= 0.00(100.0%) 

          ------------
          EIGENVECTORS
          ------------

                      1          2          3          4          5
                  -15.6016   -11.2953    -1.2366    -0.8135    -0.5829
                     A1         A1         A1         A1         A1  
    1  H  1  S    0.000014   0.000126   0.009530   0.082336   0.023197
    2  H  1  S   -0.000052   0.000325   0.016649   0.204991   0.059591
    3  H  1  S    0.003213   0.002894   0.036014   0.138574   0.014682
    4  H  1  S   -0.000388  -0.000493   0.009205   0.001311   0.038039
    5  H  1  X    0.000000   0.000000   0.000000   0.000000   0.000000
    6  H  1  Y    0.000000   0.000000   0.000000   0.000000   0.000000
    7  H  1  Z    0.000067   0.000023  -0.000805   0.035337   0.010896
    8  H  1  X    0.000000   0.000000   0.000000   0.000000   0.000000
    9  H  1  Y    0.000000   0.000000   0.000000   0.000000   0.000000
   10  H  1  Z    0.000875   0.000903   0.010316  -0.013799  -0.018410
   11  C  2  S    0.000023   0.169716  -0.024464  -0.020897   0.010303
   12  C  2  S    0.000025   0.317565  -0.052091  -0.044809   0.021967
   13  C  2  S    0.000051   0.438360  -0.096185  -0.083019   0.042041
   14  C  2  S   -0.000060   0.207452  -0.073605  -0.065507   0.031502
   15  C  2  S    0.000420   0.012393   0.224119   0.181548  -0.116514
   16  C  2  S    0.001939  -0.005180   0.189573   0.330217  -0.033119
   17  C  2  S    0.001704   0.000682   0.024200   0.066155   0.000569
   18  C  2  X    0.000000   0.000000   0.000000   0.000000   0.000000
   19  C  2  Y    0.000000   0.000000   0.000000   0.000000   0.000000
   20  C  2  Z    0.000058  -0.000948   0.043918  -0.065438  -0.053882
   21  C  2  X    0.000000   0.000000   0.000000   0.000000   0.000000
   22  C  2  Y    0.000000   0.000000   0.000000   0.000000   0.000000
   23  C  2  Z   -0.000024   0.000809   0.094848  -0.138119  -0.116782
   24  C  2  X    0.000000   0.000000   0.000000   0.000000   0.000000
   25  C  2  Y    0.000000   0.000000   0.000000   0.000000   0.000000
   26  C  2  Z    0.000993  -0.000597   0.070072  -0.156588  -0.100099
   27  C  2  X    0.000000   0.000000   0.000000   0.000000   0.000000
   28  C  2  Y    0.000000   0.000000   0.000000   0.000000   0.000000
   29  C  2  Z    0.004258   0.001359   0.038333  -0.119008  -0.077750
   30  C  2  X    0.000000   0.000000   0.000000   0.000000   0.000000
   31  C  2  Y    0.000000   0.000000   0.000000   0.000000   0.000000
   32  C  2  Z   -0.000312  -0.000350   0.008216  -0.017888   0.017268
   33  C  2 XX    0.000008  -0.000472  -0.012410  -0.007173   0.003273
   34  C  2 YY    0.000008  -0.000472  -0.012410  -0.007173   0.003273
   35  C  2 ZZ   -0.000016   0.000944   0.024820   0.014346  -0.006547
   36  C  2 XY    0.000000   0.000000   0.000000   0.000000   0.000000
   37  C  2 XZ    0.000000   0.000000   0.000000   0.000000   0.000000
   38  C  2 YZ    0.000000   0.000000   0.000000   0.000000   0.000000
   39  C  2 XX    0.000135   0.000613   0.001549  -0.013652  -0.015025
   40  C  2 YY    0.000135   0.000613   0.001549  -0.013652  -0.015025
   41  C  2 ZZ   -0.000270  -0.001225  -0.003099   0.027304   0.030050
   42  C  2 XY    0.000000   0.000000   0.000000   0.000000   0.000000
   43  C  2 XZ    0.000000   0.000000   0.000000   0.000000   0.000000
   44  C  2 YZ    0.000000   0.000000   0.000000   0.000000   0.000000
   45  N  3  S    0.163233  -0.000138  -0.029161   0.011534  -0.017400
   46  N  3  S    0.312510  -0.000276  -0.063566   0.025364  -0.037706
   47  N  3  S    0.438679  -0.000436  -0.121097   0.048112  -0.075520
   48  N  3  S    0.216682  -0.000316  -0.088462   0.036822  -0.049859
   49  N  3  S    0.014263   0.000397   0.277725  -0.116474   0.168400
   50  N  3  S   -0.004115   0.001823   0.375059  -0.196705   0.294423
   51  N  3  S   -0.003505  -0.000177   0.036518  -0.013237   0.230216
   52  N  3  X    0.000000   0.000000   0.000000   0.000000   0.000000
   53  N  3  Y    0.000000   0.000000   0.000000   0.000000   0.000000
   54  N  3  Z   -0.001639  -0.000106  -0.037982  -0.002191   0.099857
   55  N  3  X    0.000000   0.000000   0.000000   0.000000   0.000000
   56  N  3  Y    0.000000   0.000000   0.000000   0.000000   0.000000
   57  N  3  Z    0.000112  -0.000364  -0.075407  -0.004173   0.196418
   58  N  3  X    0.000000   0.000000   0.000000   0.000000   0.000000
   59  N  3  Y    0.000000   0.000000   0.000000   0.000000   0.000000
   60  N  3  Z   -0.001054  -0.000579  -0.114204   0.006947   0.289333
   61  N  3  X    0.000000   0.000000   0.000000   0.000000   0.000000
   62  N  3  Y    0.000000   0.000000   0.000000   0.000000   0.000000
   63  N  3  Z    0.003015  -0.000740  -0.034289  -0.018856   0.215025
   64  N  3  X    0.000000   0.000000   0.000000   0.000000   0.000000
   65  N  3  Y    0.000000   0.000000   0.000000   0.000000   0.000000
   66  N  3  Z    0.000726   0.000271   0.003560  -0.013287   0.066144
   67  N  3 XX   -0.000316  -0.000123  -0.012419   0.003996   0.013577
   68  N  3 YY   -0.000316  -0.000123  -0.012419   0.003996   0.013577
   69  N  3 ZZ    0.000632   0.000246   0.024838  -0.007993  -0.027154
   70  N  3 XY    0.000000   0.000000   0.000000   0.000000   0.000000
   71  N  3 XZ    0.000000   0.000000   0.000000   0.000000   0.000000
   72  N  3 YZ    0.000000   0.000000   0.000000   0.000000   0.000000
   73  N  3 XX    0.000432  -0.000013  -0.001620  -0.001085   0.004848
   74  N  3 YY    0.000432  -0.000013  -0.001620  -0.001085   0.004848
   75  N  3 ZZ   -0.000864   0.000026   0.003241   0.002169  -0.009696
   76  N  3 XY    0.000000   0.000000   0.000000   0.000000   0.000000
   77  N  3 XZ    0.000000   0.000000   0.000000   0.000000   0.000000
   78  N  3 YZ    0.000000   0.000000   0.000000   0.000000   0.000000

                      6          7          8          9         10
                   -0.4955    -0.4955     0.1117     0.1262     0.1262
                     B1         B2         A1         B2         B1  
    1  H  1  S    0.000000   0.000000  -0.003102   0.000000   0.000000
    2  H  1  S    0.000000   0.000000   0.005870   0.000000   0.000000
    3  H  1  S    0.000000   0.000000   0.163362   0.000000   0.000000
    4  H  1  S    0.000000   0.000000   3.509867   0.000000   0.000000
    5  H  1  X    0.013546   0.000000  -0.000000   0.000000   0.012469
    6  H  1  Y    0.000000   0.013546  -0.000000   0.012469   0.000000
    7  H  1  Z    0.000000   0.000000  -0.081203   0.000000   0.000000
    8  H  1  X    0.004293   0.000000  -0.000000   0.000000   0.058861
    9  H  1  Y    0.000000   0.004293  -0.000000   0.058861   0.000000
   10  H  1  Z    0.000000   0.000000   0.325174   0.000000   0.000000
   11  C  2  S    0.000000   0.000000   0.009356   0.000000   0.000000
   12  C  2  S    0.000000   0.000000   0.020874   0.000000   0.000000
   13  C  2  S    0.000000   0.000000   0.036103   0.000000   0.000000
   14  C  2  S    0.000000   0.000000   0.037109   0.000000   0.000000
   15  C  2  S    0.000000   0.000000  -0.164054   0.000000   0.000000
   16  C  2  S    0.000000   0.000000   0.232153   0.000000   0.000000
   17  C  2  S    0.000000   0.000000  -2.176325   0.000000   0.000000
   18  C  2  X    0.077164   0.000000  -0.000000   0.000000   0.036939
   19  C  2  Y    0.000000   0.077164  -0.000000   0.036939   0.000000
   20  C  2  Z    0.000000   0.000000   0.029891   0.000000   0.000000
   21  C  2  X    0.156147   0.000000  -0.000000   0.000000   0.037375
   22  C  2  Y    0.000000   0.156147  -0.000000   0.037375   0.000000
   23  C  2  Z    0.000000   0.000000   0.063780   0.000000   0.000000
   24  C  2  X    0.227653   0.000000  -0.000000   0.000000   0.205792
   25  C  2  Y    0.000000   0.227653  -0.000000   0.205792   0.000000
   26  C  2  Z    0.000000   0.000000   0.124825   0.000000   0.000000
   27  C  2  X    0.171325   0.000000  -0.000000   0.000000  -0.193456
   28  C  2  Y    0.000000   0.171325  -0.000000  -0.193456   0.000000
   29  C  2  Z    0.000000   0.000000   1.099089   0.000000   0.000000
   30  C  2  X    0.048527   0.000000  -0.000000   0.000000   1.361410
   31  C  2  Y    0.000000   0.048527  -0.000000   1.361410   0.000000
   32  C  2  Z    0.000000   0.000000   0.858134   0.000000   0.000000
   33  C  2 XX    0.000000   0.000000  -0.007859   0.000000   0.000000
   34  C  2 YY    0.000000   0.000000  -0.007859   0.000000   0.000000
   35  C  2 ZZ    0.000000   0.000000   0.015717   0.000000   0.000000
   36  C  2 XY    0.000000   0.000000  -0.000000   0.000000   0.000000
   37  C  2 XZ    0.024185   0.000000  -0.000000   0.000000  -0.021176
   38  C  2 YZ    0.000000   0.024185  -0.000000  -0.021176   0.000000
   39  C  2 XX    0.000000   0.000000  -0.049542   0.000000   0.000000
   40  C  2 YY    0.000000   0.000000  -0.049542   0.000000   0.000000
   41  C  2 ZZ    0.000000   0.000000   0.099084   0.000000   0.000000
   42  C  2 XY    0.000000   0.000000  -0.000000   0.000000   0.000000
   43  C  2 XZ    0.020661   0.000000  -0.000000   0.000000  -0.061494
   44  C  2 YZ    0.000000   0.020661  -0.000000  -0.061494   0.000000
   45  N  3  S    0.000000   0.000000  -0.001209   0.000000   0.000000
   46  N  3  S    0.000000   0.000000  -0.003830   0.000000   0.000000
   47  N  3  S    0.000000   0.000000  -0.001501   0.000000   0.000000
   48  N  3  S    0.000000   0.000000  -0.015123   0.000000   0.000000
   49  N  3  S    0.000000   0.000000   0.076660   0.000000   0.000000
   50  N  3  S    0.000000   0.000000  -0.344590   0.000000   0.000000
   51  N  3  S    0.000000   0.000000  -0.851172   0.000000   0.000000
   52  N  3  X    0.083772   0.000000  -0.000000   0.000000  -0.060313
   53  N  3  Y    0.000000   0.083772  -0.000000  -0.060313   0.000000
   54  N  3  Z    0.000000   0.000000  -0.011961   0.000000   0.000000
   55  N  3  X    0.162246   0.000000  -0.000000   0.000000  -0.099556
   56  N  3  Y    0.000000   0.162246  -0.000000  -0.099556   0.000000
   57  N  3  Z    0.000000   0.000000  -0.023042   0.000000   0.000000
   58  N  3  X    0.251316   0.000000  -0.000000   0.000000  -0.232007
   59  N  3  Y    0.000000   0.251316  -0.000000  -0.232007   0.000000
   60  N  3  Z    0.000000   0.000000  -0.033599   0.000000   0.000000
   61  N  3  X    0.202961   0.000000  -0.000000   0.000000   0.021293
   62  N  3  Y    0.000000   0.202961  -0.000000   0.021293   0.000000
   63  N  3  Z    0.000000   0.000000   0.348559   0.000000   0.000000
   64  N  3  X    0.079636   0.000000  -0.000000   0.000000  -0.837424
   65  N  3  Y    0.000000   0.079636  -0.000000  -0.837424   0.000000
   66  N  3  Z    0.000000   0.000000  -0.087268   0.000000   0.000000
   67  N  3 XX    0.000000   0.000000   0.003023   0.000000   0.000000
   68  N  3 YY    0.000000   0.000000   0.003023   0.000000   0.000000
   69  N  3 ZZ    0.000000   0.000000  -0.006046   0.000000   0.000000
   70  N  3 XY    0.000000   0.000000  -0.000000   0.000000   0.000000
   71  N  3 XZ   -0.035033   0.000000  -0.000000   0.000000  -0.001452
   72  N  3 YZ    0.000000  -0.035033  -0.000000  -0.001452   0.000000
   73  N  3 XX    0.000000   0.000000   0.023811   0.000000   0.000000
   74  N  3 YY    0.000000   0.000000   0.023811   0.000000   0.000000
   75  N  3 ZZ    0.000000   0.000000  -0.047623   0.000000   0.000000
   76  N  3 XY    0.000000   0.000000  -0.000000   0.000000   0.000000
   77  N  3 XZ   -0.019507   0.000000  -0.000000   0.000000  -0.012114
   78  N  3 YZ    0.000000  -0.019507  -0.000000  -0.012114   0.000000

                     11         12         13         14         15
                    0.1592     0.2230     0.2230     0.2762     0.3567
                     A1         B1         B2         A1         A1  
    1  H  1  S    0.019383  -0.000000  -0.000000   0.039601  -0.012484
    2  H  1  S    0.167423  -0.000000  -0.000000   0.188331  -0.124052
    3  H  1  S   -0.663044  -0.000000  -0.000000   3.417060   1.889858
    4  H  1  S   -1.856301  -0.000000  -0.000000   2.804138  -5.612842
    5  H  1  X   -0.000000   0.013092  -0.000000   0.000000   0.000000
    6  H  1  Y   -0.000000  -0.000000   0.013092   0.000000   0.000000
    7  H  1  Z    0.020627  -0.000000  -0.000000   0.077399  -0.020311
    8  H  1  X   -0.000000   0.077090  -0.000000   0.000000   0.000000
    9  H  1  Y   -0.000000  -0.000000   0.077090   0.000000   0.000000
   10  H  1  Z   -0.326597  -0.000000  -0.000000   0.858525   0.689513
   11  C  2  S    0.001320  -0.000000  -0.000000  -0.001114  -0.004122
   12  C  2  S    0.001391  -0.000000  -0.000000  -0.002104  -0.010447
   13  C  2  S    0.010187  -0.000000  -0.000000  -0.005298  -0.012273
   14  C  2  S   -0.012997  -0.000000  -0.000000  -0.006187  -0.029104
   15  C  2  S    0.156356  -0.000000  -0.000000   0.256375   0.120660
   16  C  2  S   -2.054176  -0.000000  -0.000000  -1.476874   0.265604
   17  C  2  S   -3.807789  -0.000000  -0.000000  -2.782265   9.113553
   18  C  2  X   -0.000000   0.067547  -0.000000   0.000000   0.000000
   19  C  2  Y   -0.000000  -0.000000   0.067547   0.000000   0.000000
   20  C  2  Z   -0.002486  -0.000000  -0.000000   0.016524   0.008630
   21  C  2  X   -0.000000   0.214132  -0.000000   0.000000   0.000000
   22  C  2  Y   -0.000000  -0.000000   0.214132   0.000000   0.000000
   23  C  2  Z    0.063750  -0.000000  -0.000000   0.024137   0.058397
   24  C  2  X   -0.000000   0.001313  -0.000000   0.000000   0.000000
   25  C  2  Y   -0.000000  -0.000000   0.001313   0.000000   0.000000
   26  C  2  Z   -0.448629  -0.000000  -0.000000   0.013956   0.024220
   27  C  2  X   -0.000000   1.200324  -0.000000   0.000000   0.000000
   28  C  2  Y   -0.000000  -0.000000   1.200324   0.000000   0.000000
   29  C  2  Z   -2.636303  -0.000000  -0.000000   1.549203   3.851224
   30  C  2  X   -0.000000  -1.076054  -0.000000   0.000000   0.000000
   31  C  2  Y   -0.000000  -0.000000  -1.076054   0.000000   0.000000
   32  C  2  Z   -2.618321  -0.000000  -0.000000   2.351122  -4.346749
   33  C  2 XX   -0.008677  -0.000000  -0.000000  -0.017750  -0.000781
   34  C  2 YY   -0.008677  -0.000000  -0.000000  -0.017750  -0.000781
   35  C  2 ZZ    0.017355  -0.000000  -0.000000   0.035500   0.001562
   36  C  2 XY   -0.000000  -0.000000  -0.000000   0.000000   0.000000
   37  C  2 XZ   -0.000000  -0.015107  -0.000000   0.000000   0.000000
   38  C  2 YZ   -0.000000  -0.000000  -0.015107   0.000000   0.000000
   39  C  2 XX    0.157489  -0.000000  -0.000000   0.449273   0.016975
   40  C  2 YY    0.157489  -0.000000  -0.000000   0.449273   0.016975
   41  C  2 ZZ   -0.314979  -0.000000  -0.000000  -0.898547  -0.033950
   42  C  2 XY   -0.000000  -0.000000  -0.000000   0.000000   0.000000
   43  C  2 XZ   -0.000000   0.058657  -0.000000   0.000000   0.000000
   44  C  2 YZ   -0.000000  -0.000000   0.058657   0.000000   0.000000
   45  N  3  S   -0.009854  -0.000000  -0.000000  -0.000903   0.001756
   46  N  3  S   -0.021492  -0.000000  -0.000000   0.000729   0.001242
   47  N  3  S   -0.042921  -0.000000  -0.000000  -0.012202   0.015749
   48  N  3  S   -0.029222  -0.000000  -0.000000   0.022936  -0.019494
   49  N  3  S    0.069267  -0.000000  -0.000000  -0.138425   0.102991
   50  N  3  S    0.595039  -0.000000  -0.000000   1.392715  -0.466423
   51  N  3  S    7.260899  -0.000000  -0.000000  -2.373283  -4.772621
   52  N  3  X   -0.000000  -0.028344  -0.000000   0.000000   0.000000
   53  N  3  Y   -0.000000  -0.000000  -0.028344   0.000000   0.000000
   54  N  3  Z    0.003851  -0.000000  -0.000000  -0.037729  -0.002939
   55  N  3  X   -0.000000  -0.048037  -0.000000   0.000000   0.000000
   56  N  3  Y   -0.000000  -0.000000  -0.048037   0.000000   0.000000
   57  N  3  Z   -0.009307  -0.000000  -0.000000  -0.047052  -0.025706
   58  N  3  X   -0.000000  -0.095488  -0.000000   0.000000   0.000000
   59  N  3  Y   -0.000000  -0.000000  -0.095488   0.000000   0.000000
   60  N  3  Z    0.049422  -0.000000  -0.000000  -0.269784  -0.007043
   61  N  3  X   -0.000000  -0.160585  -0.000000   0.000000   0.000000
   62  N  3  Y   -0.000000  -0.000000  -0.160585   0.000000   0.000000
   63  N  3  Z   -1.598154  -0.000000  -0.000000  -0.477947   0.645879
   64  N  3  X   -0.000000  -0.405648  -0.000000   0.000000   0.000000
   65  N  3  Y   -0.000000  -0.000000  -0.405648   0.000000   0.000000
   66  N  3  Z   -1.437674  -0.000000  -0.000000   0.967015   4.013879
   67  N  3 XX   -0.002257  -0.000000  -0.000000  -0.021957  -0.023063
   68  N  3 YY   -0.002257  -0.000000  -0.000000  -0.021957  -0.023063
   69  N  3 ZZ    0.004513  -0.000000  -0.000000   0.043915   0.046126
   70  N  3 XY   -0.000000  -0.000000  -0.000000   0.000000   0.000000
   71  N  3 XZ   -0.000000  -0.033782  -0.000000   0.000000   0.000000
   72  N  3 YZ   -0.000000  -0.000000  -0.033782   0.000000   0.000000
   73  N  3 XX   -0.203620  -0.000000  -0.000000   0.007888   0.144346
   74  N  3 YY   -0.203620  -0.000000  -0.000000   0.007888   0.144346
   75  N  3 ZZ    0.407241  -0.000000  -0.000000  -0.015775  -0.288692
   76  N  3 XY   -0.000000  -0.000000  -0.000000   0.000000   0.000000
   77  N  3 XZ   -0.000000   0.077160  -0.000000   0.000000   0.000000
   78  N  3 YZ   -0.000000  -0.000000   0.077160   0.000000   0.000000

                     16         17         18         19         20
                    0.4066     0.4066     0.4495     0.6293     0.6293
                     B2         B1         A1         B1         B2  
    1  H  1  S    0.000000   0.000000   0.071566   0.000000   0.000000
    2  H  1  S    0.000000   0.000000  -0.099497   0.000000   0.000000
    3  H  1  S    0.000000   0.000000  -0.771332   0.000000   0.000000
    4  H  1  S    0.000000   0.000000  -4.803778   0.000000   0.000000
    5  H  1  X    0.000000  -0.004529   0.000000  -0.118282   0.000000
    6  H  1  Y   -0.004529   0.000000   0.000000   0.000000  -0.118282
    7  H  1  Z    0.000000   0.000000   0.013949   0.000000   0.000000
    8  H  1  X    0.000000   0.107281   0.000000   1.607074   0.000000
    9  H  1  Y    0.107281   0.000000   0.000000   0.000000   1.607074
   10  H  1  Z    0.000000   0.000000  -1.336315   0.000000   0.000000
   11  C  2  S    0.000000   0.000000   0.019711   0.000000   0.000000
   12  C  2  S    0.000000   0.000000   0.042120   0.000000   0.000000
   13  C  2  S    0.000000   0.000000   0.082857   0.000000   0.000000
   14  C  2  S    0.000000   0.000000   0.066235   0.000000   0.000000
   15  C  2  S    0.000000   0.000000  -0.357954   0.000000   0.000000
   16  C  2  S    0.000000   0.000000   2.107489   0.000000   0.000000
   17  C  2  S    0.000000   0.000000   8.003674   0.000000   0.000000
   18  C  2  X    0.000000   0.035414   0.000000  -0.041873   0.000000
   19  C  2  Y    0.035414   0.000000   0.000000   0.000000  -0.041873
   20  C  2  Z    0.000000   0.000000   0.047749   0.000000   0.000000
   21  C  2  X    0.000000   0.068823   0.000000  -0.071321   0.000000
   22  C  2  Y    0.068823   0.000000   0.000000   0.000000  -0.071321
   23  C  2  Z    0.000000   0.000000   0.055937   0.000000   0.000000
   24  C  2  X    0.000000   0.119091   0.000000  -0.159048   0.000000
   25  C  2  Y    0.119091   0.000000   0.000000   0.000000  -0.159048
   26  C  2  Z    0.000000   0.000000   0.493416   0.000000   0.000000
   27  C  2  X    0.000000   0.303895   0.000000  -0.299613   0.000000
   28  C  2  Y    0.303895   0.000000   0.000000   0.000000  -0.299613
   29  C  2  Z    0.000000   0.000000   0.440488   0.000000   0.000000
   30  C  2  X    0.000000  -1.350675   0.000000  -0.711379   0.000000
   31  C  2  Y   -1.350675   0.000000   0.000000   0.000000  -0.711379
   32  C  2  Z    0.000000   0.000000  -1.385029   0.000000   0.000000
   33  C  2 XX    0.000000   0.000000  -0.003435   0.000000   0.000000
   34  C  2 YY    0.000000   0.000000  -0.003435   0.000000   0.000000
   35  C  2 ZZ    0.000000   0.000000   0.006870   0.000000   0.000000
   36  C  2 XY    0.000000   0.000000   0.000000   0.000000   0.000000
   37  C  2 XZ    0.000000  -0.020505   0.000000  -0.052551   0.000000
   38  C  2 YZ   -0.020505   0.000000   0.000000   0.000000  -0.052551
   39  C  2 XX    0.000000   0.000000  -0.483597   0.000000   0.000000
   40  C  2 YY    0.000000   0.000000  -0.483597   0.000000   0.000000
   41  C  2 ZZ    0.000000   0.000000   0.967194   0.000000   0.000000
   42  C  2 XY    0.000000   0.000000   0.000000   0.000000   0.000000
   43  C  2 XZ    0.000000  -0.018241   0.000000   0.428116   0.000000
   44  C  2 YZ   -0.018241   0.000000   0.000000   0.000000   0.428116
   45  N  3  S    0.000000   0.000000  -0.006462   0.000000   0.000000
   46  N  3  S    0.000000   0.000000  -0.014443   0.000000   0.000000
   47  N  3  S    0.000000   0.000000  -0.027123   0.000000   0.000000
   48  N  3  S    0.000000   0.000000  -0.024244   0.000000   0.000000
   49  N  3  S    0.000000   0.000000   0.130806   0.000000   0.000000
   50  N  3  S    0.000000   0.000000  -0.731374   0.000000   0.000000
   51  N  3  S    0.000000   0.000000  -4.055100   0.000000   0.000000
   52  N  3  X    0.000000  -0.063587   0.000000   0.021596   0.000000
   53  N  3  Y   -0.063587   0.000000   0.000000   0.000000   0.021596
   54  N  3  Z    0.000000   0.000000  -0.026366   0.000000   0.000000
   55  N  3  X    0.000000  -0.223418   0.000000   0.040635   0.000000
   56  N  3  Y   -0.223418   0.000000   0.000000   0.000000   0.040635
   57  N  3  Z    0.000000   0.000000  -0.066638   0.000000   0.000000
   58  N  3  X    0.000000   0.083131   0.000000   0.080501   0.000000
   59  N  3  Y    0.083131   0.000000   0.000000   0.000000   0.080501
   60  N  3  Z    0.000000   0.000000   0.007050   0.000000   0.000000
   61  N  3  X    0.000000  -1.280290   0.000000  -0.252338   0.000000
   62  N  3  Y   -1.280290   0.000000   0.000000   0.000000  -0.252338
   63  N  3  Z    0.000000   0.000000   1.294895   0.000000   0.000000
   64  N  3  X    0.000000   2.250787   0.000000   0.558098   0.000000
   65  N  3  Y    2.250787   0.000000   0.000000   0.000000   0.558098
   66  N  3  Z    0.000000   0.000000   1.231713   0.000000   0.000000
   67  N  3 XX    0.000000   0.000000   0.003270   0.000000   0.000000
   68  N  3 YY    0.000000   0.000000   0.003270   0.000000   0.000000
   69  N  3 ZZ    0.000000   0.000000  -0.006540   0.000000   0.000000
   70  N  3 XY    0.000000   0.000000   0.000000   0.000000   0.000000
   71  N  3 XZ    0.000000   0.016115   0.000000   0.005579   0.000000
   72  N  3 YZ    0.016115   0.000000   0.000000   0.000000   0.005579
   73  N  3 XX    0.000000   0.000000   0.200234   0.000000   0.000000
   74  N  3 YY    0.000000   0.000000   0.200234   0.000000   0.000000
   75  N  3 ZZ    0.000000   0.000000  -0.400468   0.000000   0.000000
   76  N  3 XY    0.000000   0.000000   0.000000   0.000000   0.000000
   77  N  3 XZ    0.000000  -0.021367   0.000000   0.356613   0.000000
   78  N  3 YZ   -0.021367   0.000000   0.000000   0.000000   0.356613

                     21         22         23         24         25
                    0.6321     0.7298     0.7298     0.8365     0.8365
                     A1         A1         A2         B2         B1  
    1  H  1  S   -0.031219   0.000000  -0.000000   0.000000   0.000000
    2  H  1  S    0.247753   0.000000  -0.000000   0.000000   0.000000
    3  H  1  S   -3.556765   0.000000  -0.000000   0.000000   0.000000
    4  H  1  S   -2.746410   0.000000  -0.000000   0.000000   0.000000
    5  H  1  X   -0.000000   0.000000  -0.000000   0.000000   0.044671
    6  H  1  Y   -0.000000   0.000000  -0.000000   0.044671   0.000000
    7  H  1  Z    0.064483   0.000000  -0.000000   0.000000   0.000000
    8  H  1  X   -0.000000   0.000000  -0.000000   0.000000  -0.517894
    9  H  1  Y   -0.000000   0.000000  -0.000000  -0.517894   0.000000
   10  H  1  Z   -1.332613   0.000000  -0.000000   0.000000   0.000000
   11  C  2  S    0.005784   0.000000  -0.000000   0.000000   0.000000
   12  C  2  S    0.006777   0.000000  -0.000000   0.000000   0.000000
   13  C  2  S    0.043002   0.000000  -0.000000   0.000000   0.000000
   14  C  2  S   -0.044164   0.000000  -0.000000   0.000000   0.000000
   15  C  2  S    0.453126   0.000000  -0.000000   0.000000   0.000000
   16  C  2  S   -6.394826   0.000000  -0.000000   0.000000   0.000000
   17  C  2  S   -6.569561   0.000000  -0.000000   0.000000   0.000000
   18  C  2  X   -0.000000   0.000000  -0.000000   0.000000  -0.144570
   19  C  2  Y   -0.000000   0.000000  -0.000000  -0.144570   0.000000
   20  C  2  Z    0.007959   0.000000  -0.000000   0.000000   0.000000
   21  C  2  X   -0.000000   0.000000  -0.000000   0.000000  -0.003745
   22  C  2  Y   -0.000000   0.000000  -0.000000  -0.003745   0.000000
   23  C  2  Z    0.183383   0.000000  -0.000000   0.000000   0.000000
   24  C  2  X   -0.000000   0.000000  -0.000000   0.000000  -1.434514
   25  C  2  Y   -0.000000   0.000000  -0.000000  -1.434514   0.000000
   26  C  2  Z   -1.185704   0.000000  -0.000000   0.000000   0.000000
   27  C  2  X   -0.000000   0.000000  -0.000000   0.000000   3.166193
   28  C  2  Y   -0.000000   0.000000  -0.000000   3.166193   0.000000
   29  C  2  Z   -8.715749   0.000000  -0.000000   0.000000   0.000000
   30  C  2  X   -0.000000   0.000000  -0.000000   0.000000  -0.965059
   31  C  2  Y   -0.000000   0.000000  -0.000000  -0.965059   0.000000
   32  C  2  Z   -3.137066   0.000000  -0.000000   0.000000   0.000000
   33  C  2 XX    0.020702   0.017295  -0.000000   0.000000   0.000000
   34  C  2 YY    0.020702  -0.017295  -0.000000   0.000000   0.000000
   35  C  2 ZZ   -0.041404   0.000000  -0.000000   0.000000   0.000000
   36  C  2 XY   -0.000000   0.000000  -0.019971   0.000000   0.000000
   37  C  2 XZ   -0.000000   0.000000  -0.000000   0.000000  -0.010482
   38  C  2 YZ   -0.000000   0.000000  -0.000000  -0.010482   0.000000
   39  C  2 XX    0.475090  -0.611659  -0.000000   0.000000   0.000000
   40  C  2 YY    0.475090   0.611659  -0.000000   0.000000   0.000000
   41  C  2 ZZ   -0.950180   0.000000  -0.000000   0.000000   0.000000
   42  C  2 XY   -0.000000   0.000000   0.706283   0.000000   0.000000
   43  C  2 XZ   -0.000000   0.000000  -0.000000   0.000000   0.152655
   44  C  2 YZ   -0.000000   0.000000  -0.000000   0.152655   0.000000
   45  N  3  S    0.015885   0.000000  -0.000000   0.000000   0.000000
   46  N  3  S    0.035904   0.000000  -0.000000   0.000000   0.000000
   47  N  3  S    0.066321   0.000000  -0.000000   0.000000   0.000000
   48  N  3  S    0.062618   0.000000  -0.000000   0.000000   0.000000
   49  N  3  S   -0.339922   0.000000  -0.000000   0.000000   0.000000
   50  N  3  S    0.873988   0.000000  -0.000000   0.000000   0.000000
   51  N  3  S   17.674068   0.000000  -0.000000   0.000000   0.000000
   52  N  3  X   -0.000000   0.000000  -0.000000   0.000000  -0.003792
   53  N  3  Y   -0.000000   0.000000  -0.000000  -0.003792   0.000000
   54  N  3  Z   -0.010841   0.000000  -0.000000   0.000000   0.000000
   55  N  3  X   -0.000000   0.000000  -0.000000   0.000000  -0.013375
   56  N  3  Y   -0.000000   0.000000  -0.000000  -0.013375   0.000000
   57  N  3  Z   -0.095637   0.000000  -0.000000   0.000000   0.000000
   58  N  3  X   -0.000000   0.000000  -0.000000   0.000000   0.019785
   59  N  3  Y   -0.000000   0.000000  -0.000000   0.019785   0.000000
   60  N  3  Z    0.194546   0.000000  -0.000000   0.000000   0.000000
   61  N  3  X   -0.000000   0.000000  -0.000000   0.000000  -0.423415
   62  N  3  Y   -0.000000   0.000000  -0.000000  -0.423415   0.000000
   63  N  3  Z   -5.283065   0.000000  -0.000000   0.000000   0.000000
   64  N  3  X   -0.000000   0.000000  -0.000000   0.000000  -0.262237
   65  N  3  Y   -0.000000   0.000000  -0.000000  -0.262237   0.000000
   66  N  3  Z   -2.596965   0.000000  -0.000000   0.000000   0.000000
   67  N  3 XX   -0.004698   0.013675  -0.000000   0.000000   0.000000
   68  N  3 YY   -0.004698  -0.013675  -0.000000   0.000000   0.000000
   69  N  3 ZZ    0.009395   0.000000  -0.000000   0.000000   0.000000
   70  N  3 XY   -0.000000   0.000000  -0.015791   0.000000   0.000000
   71  N  3 XZ   -0.000000   0.000000  -0.000000   0.000000  -0.014788
   72  N  3 YZ   -0.000000   0.000000  -0.000000  -0.014788   0.000000
   73  N  3 XX   -0.556218  -0.400270  -0.000000   0.000000   0.000000
   74  N  3 YY   -0.556218   0.400270  -0.000000   0.000000   0.000000
   75  N  3 ZZ    1.112436   0.000000  -0.000000   0.000000   0.000000
   76  N  3 XY   -0.000000   0.000000   0.462192   0.000000   0.000000
   77  N  3 XZ   -0.000000   0.000000  -0.000000   0.000000   0.340318
   78  N  3 YZ   -0.000000   0.000000  -0.000000   0.340318   0.000000

                     26         27         28         29         30
                    0.8374     0.9384     1.0225     1.0648     1.0648
                     A1         A1         A1         A2         A1  
    1  H  1  S    0.054018   0.033921   0.036176   0.000000   0.000000
    2  H  1  S    0.192330  -0.170130  -0.085815   0.000000   0.000000
    3  H  1  S   -0.578109   5.335893 -11.068871   0.000000   0.000000
    4  H  1  S   -0.386432  -3.543838  -0.968536   0.000000   0.000000
    5  H  1  X    0.000000   0.000000   0.000000   0.000000   0.000000
    6  H  1  Y    0.000000   0.000000   0.000000   0.000000   0.000000
    7  H  1  Z   -0.189640  -0.035817  -0.227819   0.000000   0.000000
    8  H  1  X    0.000000   0.000000   0.000000   0.000000   0.000000
    9  H  1  Y    0.000000   0.000000   0.000000   0.000000   0.000000
   10  H  1  Z    1.132262   0.358426  -4.243198   0.000000   0.000000
   11  C  2  S    0.010462  -0.001980  -0.018013   0.000000   0.000000
   12  C  2  S    0.015682   0.000108  -0.029314   0.000000   0.000000
   13  C  2  S    0.066301  -0.022133  -0.109763   0.000000   0.000000
   14  C  2  S   -0.033179   0.037137   0.053468   0.000000   0.000000
   15  C  2  S   -0.015721  -0.306371  -1.127487   0.000000   0.000000
   16  C  2  S   -1.012793   3.402863  11.210970   0.000000   0.000000
   17  C  2  S    0.135989   9.028921   1.270008   0.000000   0.000000
   18  C  2  X    0.000000   0.000000   0.000000   0.000000   0.000000
   19  C  2  Y    0.000000   0.000000   0.000000   0.000000   0.000000
   20  C  2  Z   -0.056265  -0.058536   0.020225   0.000000   0.000000
   21  C  2  X    0.000000   0.000000   0.000000   0.000000   0.000000
   22  C  2  Y    0.000000   0.000000   0.000000   0.000000   0.000000
   23  C  2  Z   -0.102635   0.051542   0.072470   0.000000   0.000000
   24  C  2  X    0.000000   0.000000   0.000000   0.000000   0.000000
   25  C  2  Y    0.000000   0.000000   0.000000   0.000000   0.000000
   26  C  2  Z   -0.034406  -0.607746   0.154926   0.000000   0.000000
   27  C  2  X    0.000000   0.000000   0.000000   0.000000   0.000000
   28  C  2  Y    0.000000   0.000000   0.000000   0.000000   0.000000
   29  C  2  Z    0.714658  10.949090  -4.708248   0.000000   0.000000
   30  C  2  X    0.000000   0.000000   0.000000   0.000000   0.000000
   31  C  2  Y    0.000000   0.000000   0.000000   0.000000   0.000000
   32  C  2  Z   -1.599679  -2.264398  -0.528013   0.000000   0.000000
   33  C  2 XX   -0.047201   0.001047  -0.011243   0.000000   0.034620
   34  C  2 YY   -0.047201   0.001047  -0.011243   0.000000  -0.034620
   35  C  2 ZZ    0.094402  -0.002094   0.022485   0.000000   0.000000
   36  C  2 XY    0.000000   0.000000   0.000000   0.039976   0.000000
   37  C  2 XZ    0.000000   0.000000   0.000000   0.000000   0.000000
   38  C  2 YZ    0.000000   0.000000   0.000000   0.000000   0.000000
   39  C  2 XX   -0.526274  -0.165951  -1.757162   0.000000  -0.813167
   40  C  2 YY   -0.526274  -0.165951  -1.757162   0.000000   0.813167
   41  C  2 ZZ    1.052548   0.331902   3.514323   0.000000   0.000000
   42  C  2 XY    0.000000   0.000000   0.000000  -0.938964   0.000000
   43  C  2 XZ    0.000000   0.000000   0.000000   0.000000   0.000000
   44  C  2 YZ    0.000000   0.000000   0.000000   0.000000   0.000000
   45  N  3  S   -0.003183   0.008516   0.007426   0.000000   0.000000
   46  N  3  S   -0.011454   0.009187   0.009233   0.000000   0.000000
   47  N  3  S    0.000153   0.067499   0.055393   0.000000   0.000000
   48  N  3  S   -0.054915  -0.065113  -0.047008   0.000000   0.000000
   49  N  3  S    0.311917   0.384342   0.387740   0.000000   0.000000
   50  N  3  S   -2.057638  -3.010964  -4.969737   0.000000   0.000000
   51  N  3  S    2.478824 -10.704775   2.802255   0.000000   0.000000
   52  N  3  X    0.000000   0.000000   0.000000   0.000000   0.000000
   53  N  3  Y    0.000000   0.000000   0.000000   0.000000   0.000000
   54  N  3  Z   -0.060772   0.021818  -0.027235   0.000000   0.000000
   55  N  3  X    0.000000   0.000000   0.000000   0.000000   0.000000
   56  N  3  Y    0.000000   0.000000   0.000000   0.000000   0.000000
   57  N  3  Z   -0.207722   0.059969  -0.087583   0.000000   0.000000
   58  N  3  X    0.000000   0.000000   0.000000   0.000000   0.000000
   59  N  3  Y    0.000000   0.000000   0.000000   0.000000   0.000000
   60  N  3  Z    0.150095  -0.061330   0.276182   0.000000   0.000000
   61  N  3  X    0.000000   0.000000   0.000000   0.000000   0.000000
   62  N  3  Y    0.000000   0.000000   0.000000   0.000000   0.000000
   63  N  3  Z   -0.368724   3.035267   2.815065   0.000000   0.000000
   64  N  3  X    0.000000   0.000000   0.000000   0.000000   0.000000
   65  N  3  Y    0.000000   0.000000   0.000000   0.000000   0.000000
   66  N  3  Z    0.104896   3.329459  -1.684458   0.000000   0.000000
   67  N  3 XX    0.035387   0.008239   0.024130   0.000000  -0.049216
   68  N  3 YY    0.035387   0.008239   0.024130   0.000000   0.049216
   69  N  3 ZZ   -0.070775  -0.016478  -0.048261   0.000000   0.000000
   70  N  3 XY    0.000000   0.000000   0.000000  -0.056830   0.000000
   71  N  3 XZ    0.000000   0.000000   0.000000   0.000000   0.000000
   72  N  3 YZ    0.000000   0.000000   0.000000   0.000000   0.000000
   73  N  3 XX    0.089636   0.296079  -0.049699   0.000000   0.944146
   74  N  3 YY    0.089636   0.296079  -0.049699   0.000000  -0.944146
   75  N  3 ZZ   -0.179271  -0.592158   0.099399   0.000000   0.000000
   76  N  3 XY    0.000000   0.000000   0.000000   1.090205   0.000000
   77  N  3 XZ    0.000000   0.000000   0.000000   0.000000   0.000000
   78  N  3 YZ    0.000000   0.000000   0.000000   0.000000   0.000000

                     31         32         33         34         35
                    1.1610     1.1610     1.2332     1.3396     1.3396
                     B1         B2         A1         B1         B2  
    1  H  1  S   -0.000000  -0.000000   0.058576   0.000000   0.000000
    2  H  1  S   -0.000000  -0.000000   0.399375   0.000000   0.000000
    3  H  1  S   -0.000000  -0.000000  14.521510   0.000000   0.000000
    4  H  1  S   -0.000000  -0.000000   2.739415   0.000000   0.000000
    5  H  1  X   -0.094136  -0.000000   0.000000  -0.084857   0.000000
    6  H  1  Y   -0.000000  -0.094136   0.000000   0.000000  -0.084857
    7  H  1  Z   -0.000000  -0.000000  -0.133759   0.000000   0.000000
    8  H  1  X    1.147102  -0.000000   0.000000   0.700976   0.000000
    9  H  1  Y   -0.000000   1.147102   0.000000   0.000000   0.700976
   10  H  1  Z   -0.000000  -0.000000   6.272990   0.000000   0.000000
   11  C  2  S   -0.000000  -0.000000   0.008983   0.000000   0.000000
   12  C  2  S   -0.000000  -0.000000   0.010048   0.000000   0.000000
   13  C  2  S   -0.000000  -0.000000   0.069649   0.000000   0.000000
   14  C  2  S   -0.000000  -0.000000  -0.073511   0.000000   0.000000
   15  C  2  S   -0.000000  -0.000000   0.876652   0.000000   0.000000
   16  C  2  S   -0.000000  -0.000000 -12.516181   0.000000   0.000000
   17  C  2  S   -0.000000  -0.000000  -1.983980   0.000000   0.000000
   18  C  2  X   -0.041241  -0.000000   0.000000   0.027981   0.000000
   19  C  2  Y   -0.000000  -0.041241   0.000000   0.000000   0.027981
   20  C  2  Z   -0.000000  -0.000000   0.110440   0.000000   0.000000
   21  C  2  X   -0.000461  -0.000000   0.000000   0.055255   0.000000
   22  C  2  Y   -0.000000  -0.000461   0.000000   0.000000   0.055255
   23  C  2  Z   -0.000000  -0.000000   0.231847   0.000000   0.000000
   24  C  2  X   -0.523858  -0.000000   0.000000   0.150344   0.000000
   25  C  2  Y   -0.000000  -0.523858   0.000000   0.000000   0.150344
   26  C  2  Z   -0.000000  -0.000000   0.104878   0.000000   0.000000
   27  C  2  X   -0.552031  -0.000000   0.000000  -0.366838   0.000000
   28  C  2  Y   -0.000000  -0.552031   0.000000   0.000000  -0.366838
   29  C  2  Z   -0.000000  -0.000000  10.591316   0.000000   0.000000
   30  C  2  X   -0.533547  -0.000000   0.000000   0.428730   0.000000
   31  C  2  Y   -0.000000  -0.533547   0.000000   0.000000   0.428730
   32  C  2  Z   -0.000000  -0.000000   1.004600   0.000000   0.000000
   33  C  2 XX   -0.000000  -0.000000  -0.006324   0.000000   0.000000
   34  C  2 YY   -0.000000  -0.000000  -0.006324   0.000000   0.000000
   35  C  2 ZZ   -0.000000  -0.000000   0.012649   0.000000   0.000000
   36  C  2 XY   -0.000000  -0.000000   0.000000   0.000000   0.000000
   37  C  2 XZ   -0.000037  -0.000000   0.000000  -0.034590   0.000000
   38  C  2 YZ   -0.000000  -0.000037   0.000000   0.000000  -0.034590
   39  C  2 XX   -0.000000  -0.000000   1.224287   0.000000   0.000000
   40  C  2 YY   -0.000000  -0.000000   1.224287   0.000000   0.000000
   41  C  2 ZZ   -0.000000  -0.000000  -2.448574   0.000000   0.000000
   42  C  2 XY   -0.000000  -0.000000   0.000000   0.000000   0.000000
   43  C  2 XZ    0.826243  -0.000000   0.000000   1.013802   0.000000
   44  C  2 YZ   -0.000000   0.826243   0.000000   0.000000   1.013802
   45  N  3  S   -0.000000  -0.000000   0.007763   0.000000   0.000000
   46  N  3  S   -0.000000  -0.000000   0.017151   0.000000   0.000000
   47  N  3  S   -0.000000  -0.000000   0.034364   0.000000   0.000000
   48  N  3  S   -0.000000  -0.000000   0.027332   0.000000   0.000000
   49  N  3  S   -0.000000  -0.000000  -0.151602   0.000000   0.000000
   50  N  3  S   -0.000000  -0.000000   1.001641   0.000000   0.000000
   51  N  3  S   -0.000000  -0.000000  -3.912396   0.000000   0.000000
   52  N  3  X    0.020864  -0.000000   0.000000  -0.157044   0.000000
   53  N  3  Y   -0.000000   0.020864   0.000000   0.000000  -0.157044
   54  N  3  Z   -0.000000  -0.000000   0.023015   0.000000   0.000000
   55  N  3  X   -0.019833  -0.000000   0.000000  -0.039561   0.000000
   56  N  3  Y   -0.000000  -0.019833   0.000000   0.000000  -0.039561
   57  N  3  Z   -0.000000  -0.000000   0.158005   0.000000   0.000000
   58  N  3  X    0.239482  -0.000000   0.000000  -1.434779   0.000000
   59  N  3  Y   -0.000000   0.239482   0.000000   0.000000  -1.434779
   60  N  3  Z   -0.000000  -0.000000  -0.389738   0.000000   0.000000
   61  N  3  X   -0.891927  -0.000000   0.000000   1.709138   0.000000
   62  N  3  Y   -0.000000  -0.891927   0.000000   0.000000   1.709138
   63  N  3  Z   -0.000000  -0.000000  -0.729923   0.000000   0.000000
   64  N  3  X    1.053765  -0.000000   0.000000  -1.189470   0.000000
   65  N  3  Y   -0.000000   1.053765   0.000000   0.000000  -1.189470
   66  N  3  Z   -0.000000  -0.000000   0.304754   0.000000   0.000000
   67  N  3 XX   -0.000000  -0.000000  -0.013567   0.000000   0.000000
   68  N  3 YY   -0.000000  -0.000000  -0.013567   0.000000   0.000000
   69  N  3 ZZ   -0.000000  -0.000000   0.027133   0.000000   0.000000
   70  N  3 XY   -0.000000  -0.000000   0.000000   0.000000   0.000000
   71  N  3 XZ    0.020927  -0.000000   0.000000  -0.000496   0.000000
   72  N  3 YZ   -0.000000   0.020927   0.000000   0.000000  -0.000496
   73  N  3 XX   -0.000000  -0.000000  -0.699478   0.000000   0.000000
   74  N  3 YY   -0.000000  -0.000000  -0.699478   0.000000   0.000000
   75  N  3 ZZ   -0.000000  -0.000000   1.398956   0.000000   0.000000
   76  N  3 XY   -0.000000  -0.000000   0.000000   0.000000   0.000000
   77  N  3 XZ   -0.943778  -0.000000   0.000000   0.391740   0.000000
   78  N  3 YZ   -0.000000  -0.943778   0.000000   0.000000   0.391740

                     36         37         38         39         40
                    1.5348     1.5348     1.5661     1.6954     1.7432
                     B1         B2         A1         A1         A1  
    1  H  1  S    0.000000   0.000000   0.032064   0.014697   0.009272
    2  H  1  S    0.000000   0.000000   0.021531   1.715060   1.314386
    3  H  1  S    0.000000   0.000000  -6.311877 -14.571425  -5.998752
    4  H  1  S    0.000000   0.000000   0.054293  -0.896272   2.450573
    5  H  1  X    0.166176   0.000000   0.000000   0.000000   0.000000
    6  H  1  Y    0.000000   0.166176   0.000000   0.000000   0.000000
    7  H  1  Z    0.000000   0.000000  -0.221111  -0.218451  -0.131320
    8  H  1  X   -0.996353   0.000000   0.000000   0.000000   0.000000
    9  H  1  Y    0.000000  -0.996353   0.000000   0.000000   0.000000
   10  H  1  Z    0.000000   0.000000  -1.898011  -4.306638  -2.123899
   11  C  2  S    0.000000   0.000000  -0.013786  -0.000529   0.027597
   12  C  2  S    0.000000   0.000000  -0.029549  -0.000474   0.092688
   13  C  2  S    0.000000   0.000000  -0.063144  -0.003788   0.019329
   14  C  2  S    0.000000   0.000000  -0.033948  -0.000736   0.443434
   15  C  2  S    0.000000   0.000000  -0.715830  -0.100527  -2.288541
   16  C  2  S    0.000000   0.000000  16.418879  -3.430288  11.509189
   17  C  2  S    0.000000   0.000000   3.790792  -7.041775  -0.980808
   18  C  2  X   -0.051886   0.000000   0.000000   0.000000   0.000000
   19  C  2  Y    0.000000  -0.051886   0.000000   0.000000   0.000000
   20  C  2  Z    0.000000   0.000000   0.151126   0.001162   0.005731
   21  C  2  X   -0.031852   0.000000   0.000000   0.000000   0.000000
   22  C  2  Y    0.000000  -0.031852   0.000000   0.000000   0.000000
   23  C  2  Z    0.000000   0.000000  -0.024374   0.311850  -0.078046
   24  C  2  X   -0.805897   0.000000   0.000000   0.000000   0.000000
   25  C  2  Y    0.000000  -0.805897   0.000000   0.000000   0.000000
   26  C  2  Z    0.000000   0.000000   3.792482  -2.520153   0.908931
   27  C  2  X   -2.138619   0.000000   0.000000   0.000000   0.000000
   28  C  2  Y    0.000000  -2.138619   0.000000   0.000000   0.000000
   29  C  2  Z    0.000000   0.000000  -0.267781 -16.484744  -1.923072
   30  C  2  X    0.737777   0.000000   0.000000   0.000000   0.000000
   31  C  2  Y    0.000000   0.737777   0.000000   0.000000   0.000000
   32  C  2  Z    0.000000   0.000000   0.414836  -1.848554   1.919739
   33  C  2 XX    0.000000   0.000000   0.003062  -0.018283  -0.057493
   34  C  2 YY    0.000000   0.000000   0.003062  -0.018283  -0.057493
   35  C  2 ZZ    0.000000   0.000000  -0.006124   0.036566   0.114987
   36  C  2 XY    0.000000   0.000000   0.000000   0.000000   0.000000
   37  C  2 XZ    0.015743   0.000000   0.000000   0.000000   0.000000
   38  C  2 YZ    0.000000   0.015743   0.000000   0.000000   0.000000
   39  C  2 XX    0.000000   0.000000  -1.510552   0.003452   0.145517
   40  C  2 YY    0.000000   0.000000  -1.510552   0.003452   0.145517
   41  C  2 ZZ    0.000000   0.000000   3.021104  -0.006904  -0.291035
   42  C  2 XY    0.000000   0.000000   0.000000   0.000000   0.000000
   43  C  2 XZ   -2.894619   0.000000   0.000000   0.000000   0.000000
   44  C  2 YZ    0.000000  -2.894619   0.000000   0.000000   0.000000
   45  N  3  S    0.000000   0.000000   0.017509  -0.013742   0.000464
   46  N  3  S    0.000000   0.000000   0.032809  -0.026027   0.000033
   47  N  3  S    0.000000   0.000000   0.098098  -0.076691   0.005384
   48  N  3  S    0.000000   0.000000  -0.004973  -0.000286  -0.008370
   49  N  3  S    0.000000   0.000000   0.387087  -0.185239   0.090355
   50  N  3  S    0.000000   0.000000  -5.965718   3.443064   0.171123
   51  N  3  S    0.000000   0.000000  -7.778460  19.957642  -5.136593
   52  N  3  X   -0.047552   0.000000   0.000000   0.000000   0.000000
   53  N  3  Y    0.000000  -0.047552   0.000000   0.000000   0.000000
   54  N  3  Z    0.000000   0.000000   0.093923   0.109605  -0.090279
   55  N  3  X    0.059027   0.000000   0.000000   0.000000   0.000000
   56  N  3  Y    0.000000   0.059027   0.000000   0.000000   0.000000
   57  N  3  Z    0.000000   0.000000   0.051957  -0.024458  -0.031080
   58  N  3  X   -0.768282   0.000000   0.000000   0.000000   0.000000
   59  N  3  Y    0.000000  -0.768282   0.000000   0.000000   0.000000
   60  N  3  Z    0.000000   0.000000   0.988238   1.394090  -0.935495
   61  N  3  X    4.192546   0.000000   0.000000   0.000000   0.000000
   62  N  3  Y    0.000000   4.192546   0.000000   0.000000   0.000000
   63  N  3  Z    0.000000   0.000000   6.705151  -9.040138   4.512832
   64  N  3  X   -0.639420   0.000000   0.000000   0.000000   0.000000
   65  N  3  Y    0.000000  -0.639420   0.000000   0.000000   0.000000
   66  N  3  Z    0.000000   0.000000   1.359108  -2.672982   0.109344
   67  N  3 XX    0.000000   0.000000  -0.006834  -0.011018   0.030054
   68  N  3 YY    0.000000   0.000000  -0.006834  -0.011018   0.030054
   69  N  3 ZZ    0.000000   0.000000   0.013668   0.022037  -0.060108
   70  N  3 XY    0.000000   0.000000   0.000000   0.000000   0.000000
   71  N  3 XZ    0.119255   0.000000   0.000000   0.000000   0.000000
   72  N  3 YZ    0.000000   0.119255   0.000000   0.000000   0.000000
   73  N  3 XX    0.000000   0.000000   1.600424  -0.867139   0.746361
   74  N  3 YY    0.000000   0.000000   1.600424  -0.867139   0.746361
   75  N  3 ZZ    0.000000   0.000000  -3.200847   1.734278  -1.492721
   76  N  3 XY    0.000000   0.000000   0.000000   0.000000   0.000000
   77  N  3 XZ   -2.363446   0.000000   0.000000   0.000000   0.000000
   78  N  3 YZ    0.000000  -2.363446   0.000000   0.000000   0.000000

                     41         42         43         44         45
                    2.4060     2.4060     2.5273     2.5884     2.5884
                     B1         B2         A1         B1         B2  
    1  H  1  S    0.000000   0.000000  -0.012194   0.000000   0.000000
    2  H  1  S    0.000000   0.000000  -1.643327   0.000000   0.000000
    3  H  1  S    0.000000   0.000000 -13.514271   0.000000   0.000000
    4  H  1  S    0.000000   0.000000   0.732183   0.000000   0.000000
    5  H  1  X   -1.563937   0.000000   0.000000  -0.039559   0.000000
    6  H  1  Y    0.000000  -1.563937   0.000000   0.000000  -0.039559
    7  H  1  Z    0.000000   0.000000  -0.923495   0.000000   0.000000
    8  H  1  X    0.531999   0.000000   0.000000   0.162017   0.000000
    9  H  1  Y    0.000000   0.531999   0.000000   0.000000   0.162017
   10  H  1  Z    0.000000   0.000000  -3.999641   0.000000   0.000000
   11  C  2  S    0.000000   0.000000   0.015051   0.000000   0.000000
   12  C  2  S    0.000000   0.000000   0.063608   0.000000   0.000000
   13  C  2  S    0.000000   0.000000  -0.032919   0.000000   0.000000
   14  C  2  S    0.000000   0.000000   0.453620   0.000000   0.000000
   15  C  2  S    0.000000   0.000000  -4.542979   0.000000   0.000000
   16  C  2  S    0.000000   0.000000  15.687017   0.000000   0.000000
   17  C  2  S    0.000000   0.000000  -1.489552   0.000000   0.000000
   18  C  2  X    0.006588   0.000000   0.000000  -0.155877   0.000000
   19  C  2  Y    0.000000   0.006588   0.000000   0.000000  -0.155877
   20  C  2  Z    0.000000   0.000000  -0.038027   0.000000   0.000000
   21  C  2  X    0.002943   0.000000   0.000000  -1.700364   0.000000
   22  C  2  Y    0.000000   0.002943   0.000000   0.000000  -1.700364
   23  C  2  Z    0.000000   0.000000  -0.507394   0.000000   0.000000
   24  C  2  X   -0.201465   0.000000   0.000000   3.017706   0.000000
   25  C  2  Y    0.000000  -0.201465   0.000000   0.000000   3.017706
   26  C  2  Z    0.000000   0.000000   0.897814   0.000000   0.000000
   27  C  2  X   -1.512776   0.000000   0.000000  -1.510947   0.000000
   28  C  2  Y    0.000000  -1.512776   0.000000   0.000000  -1.510947
   29  C  2  Z    0.000000   0.000000  -7.584220   0.000000   0.000000
[...]
   61  N  3  X   -0.000000   0.000000  -1.814799   0.000000   0.000000
   62  N  3  Y   -0.000000  -1.814799   0.000000   0.000000   0.000000
   63  N  3  Z   -1.118051   0.000000   0.000000   9.076492   3.694403
   64  N  3  X   -0.000000   0.000000   1.357445   0.000000   0.000000
   65  N  3  Y   -0.000000   1.357445   0.000000   0.000000   0.000000
   66  N  3  Z   -0.345736   0.000000   0.000000   0.167526  -2.236647
   67  N  3 XX    0.273720   0.000000   0.000000   0.142452  -0.004767
   68  N  3 YY    0.273720   0.000000   0.000000   0.142452  -0.004767
   69  N  3 ZZ   -0.547440   0.000000   0.000000  -0.284903   0.009534
   70  N  3 XY   -0.000000   0.000000   0.000000   0.000000   0.000000
   71  N  3 XZ   -0.000000   0.000000   0.132330   0.000000   0.000000
   72  N  3 YZ   -0.000000   0.132330   0.000000   0.000000   0.000000
   73  N  3 XX    0.074293   0.000000   0.000000   0.854091   0.370048
   74  N  3 YY    0.074293   0.000000   0.000000   0.854091   0.370048
   75  N  3 ZZ   -0.148586   0.000000   0.000000  -1.708182  -0.740096
   76  N  3 XY   -0.000000   0.000000   0.000000   0.000000   0.000000
   77  N  3 XZ   -0.000000   0.000000  -0.262605   0.000000   0.000000
   78  N  3 YZ   -0.000000  -0.262605   0.000000   0.000000   0.000000

                     66         67         68         69         70
                    0.0000     0.0000     0.0000     0.0000     0.0000
                     A1         B1         B2         A1         A1  
    1  H  1  S   -0.078420  -0.000000  -0.000000  -0.326365   0.370232
    2  H  1  S   -1.055141  -0.000000  -0.000000   1.173497  -1.655038
    3  H  1  S   -8.551933  -0.000000  -0.000000 -19.532165 -12.694095
    4  H  1  S   -4.011262  -0.000000  -0.000000  -1.834160  -8.523259
    5  H  1  X   -0.000000   0.086235  -0.000000  -0.000000  -0.000000
    6  H  1  Y   -0.000000  -0.000000   0.086235  -0.000000  -0.000000
    7  H  1  Z   -0.966653  -0.000000  -0.000000  -0.268361   0.065383
    8  H  1  X   -0.000000  -0.626401  -0.000000  -0.000000  -0.000000
    9  H  1  Y   -0.000000  -0.000000  -0.626401  -0.000000  -0.000000
   10  H  1  Z   -2.345721  -0.000000  -0.000000  -5.718456  -6.606254
   11  C  2  S   -0.009986  -0.000000  -0.000000   0.002934  -0.020095
   12  C  2  S   -0.077794  -0.000000  -0.000000   0.131615  -0.155959
   13  C  2  S    0.026255  -0.000000  -0.000000  -0.293078   0.237301
   14  C  2  S    0.285747  -0.000000  -0.000000   0.282035   0.035498
   15  C  2  S   -2.993704  -0.000000  -0.000000  -0.801471  -2.045238
   16  C  2  S   19.252232  -0.000000  -0.000000  -1.396637  13.916952
   17  C  2  S   10.278209  -0.000000  -0.000000 -13.037701   9.924942
   18  C  2  X   -0.000000   0.293564  -0.000000  -0.000000  -0.000000
   19  C  2  Y   -0.000000  -0.000000   0.293564  -0.000000  -0.000000
   20  C  2  Z    0.013708  -0.000000  -0.000000  -0.141473  -0.131881
   21  C  2  X   -0.000000  -0.836603  -0.000000  -0.000000  -0.000000
   22  C  2  Y   -0.000000  -0.000000  -0.836603  -0.000000  -0.000000
   23  C  2  Z    0.027883  -0.000000  -0.000000   0.512527   0.454028
   24  C  2  X   -0.000000   1.450961  -0.000000  -0.000000  -0.000000
   25  C  2  Y   -0.000000  -0.000000   1.450961  -0.000000  -0.000000
   26  C  2  Z    1.559562  -0.000000  -0.000000  -2.175953  -0.630486
   27  C  2  X   -0.000000  -2.334823  -0.000000  -0.000000  -0.000000
   28  C  2  Y   -0.000000  -0.000000  -2.334823  -0.000000  -0.000000
   29  C  2  Z    3.495886  -0.000000  -0.000000 -23.209515  -6.742566
   30  C  2  X   -0.000000   2.637835  -0.000000  -0.000000  -0.000000
   31  C  2  Y   -0.000000  -0.000000   2.637835  -0.000000  -0.000000
   32  C  2  Z   -3.998523  -0.000000  -0.000000  -3.672327  -3.578485
   33  C  2 XX   -0.098767  -0.000000  -0.000000  -0.063849  -0.007210
   34  C  2 YY   -0.098767  -0.000000  -0.000000  -0.063849  -0.007210
   35  C  2 ZZ    0.197534  -0.000000  -0.000000   0.127698   0.014420
   36  C  2 XY   -0.000000  -0.000000  -0.000000  -0.000000  -0.000000
   37  C  2 XZ   -0.000000   0.117811  -0.000000  -0.000000  -0.000000
   38  C  2 YZ   -0.000000  -0.000000   0.117811  -0.000000  -0.000000
   39  C  2 XX   -2.869249  -0.000000  -0.000000  -0.691706  -2.127945
   40  C  2 YY   -2.869249  -0.000000  -0.000000  -0.691706  -2.127945
   41  C  2 ZZ    5.738498  -0.000000  -0.000000   1.383411   4.255889
   42  C  2 XY   -0.000000  -0.000000  -0.000000  -0.000000  -0.000000
   43  C  2 XZ   -0.000000  -0.712537  -0.000000  -0.000000  -0.000000
   44  C  2 YZ   -0.000000  -0.000000  -0.712537  -0.000000  -0.000000
   45  N  3  S    0.021167  -0.000000  -0.000000   0.014437  -0.003262
   46  N  3  S    0.138712  -0.000000  -0.000000   0.255097  -0.041193
   47  N  3  S   -0.052339  -0.000000  -0.000000  -0.437940   0.084158
   48  N  3  S   -0.361743  -0.000000  -0.000000   0.289719  -0.060743
   49  N  3  S    1.699693  -0.000000  -0.000000  -0.475405   0.231762
   50  N  3  S  -10.778629  -0.000000  -0.000000   1.173432  -4.259964
   51  N  3  S   -7.094156  -0.000000  -0.000000  31.802932   1.443357
   52  N  3  X   -0.000000  -0.383964  -0.000000  -0.000000  -0.000000
   53  N  3  Y   -0.000000  -0.000000  -0.383964  -0.000000  -0.000000
   54  N  3  Z    0.245299  -0.000000  -0.000000   0.276779   0.130375
   55  N  3  X   -0.000000   1.072450  -0.000000  -0.000000  -0.000000
   56  N  3  Y   -0.000000  -0.000000   1.072450  -0.000000  -0.000000
   57  N  3  Z   -0.842316  -0.000000  -0.000000  -0.967710  -0.505522
   58  N  3  X   -0.000000  -1.995769  -0.000000  -0.000000  -0.000000
   59  N  3  Y   -0.000000  -0.000000  -1.995769  -0.000000  -0.000000
   60  N  3  Z    2.458140  -0.000000  -0.000000   2.726573   1.638259
   61  N  3  X   -0.000000   3.288851  -0.000000  -0.000000  -0.000000
   62  N  3  Y   -0.000000  -0.000000   3.288851  -0.000000  -0.000000
   63  N  3  Z    5.118766  -0.000000  -0.000000 -10.466565   0.710706
   64  N  3  X   -0.000000  -2.582086  -0.000000  -0.000000  -0.000000
   65  N  3  Y   -0.000000  -0.000000  -2.582086  -0.000000  -0.000000
   66  N  3  Z    3.276341  -0.000000  -0.000000  -5.449457   1.039005
   67  N  3 XX    0.061973  -0.000000  -0.000000   0.087845   0.037789
   68  N  3 YY    0.061973  -0.000000  -0.000000   0.087845   0.037789
   69  N  3 ZZ   -0.123946  -0.000000  -0.000000  -0.175690  -0.075577
   70  N  3 XY   -0.000000  -0.000000  -0.000000  -0.000000  -0.000000
   71  N  3 XZ   -0.000000  -0.008539  -0.000000  -0.000000  -0.000000
   72  N  3 YZ   -0.000000  -0.000000  -0.008539  -0.000000  -0.000000
   73  N  3 XX    0.867197  -0.000000  -0.000000  -0.986757   0.288350
   74  N  3 YY    0.867197  -0.000000  -0.000000  -0.986757   0.288350
   75  N  3 ZZ   -1.734393  -0.000000  -0.000000   1.973514  -0.576700
   76  N  3 XY   -0.000000  -0.000000  -0.000000  -0.000000  -0.000000
   77  N  3 XZ   -0.000000  -0.241702  -0.000000  -0.000000  -0.000000
   78  N  3 YZ   -0.000000  -0.000000  -0.241702  -0.000000  -0.000000

                     71         72         73         74
                    0.0000     0.0000     0.0000     0.0000
                     A1         A1         A1         A1  
    1  H  1  S    0.015608   0.062714  -0.001658   0.015467
    2  H  1  S   -0.170448  -0.487897  -0.031690  -0.143846
    3  H  1  S   -3.831880  -4.630501  -1.659920  -1.623214
    4  H  1  S    0.521785  -0.603262   0.198942  -0.071532
    5  H  1  X   -0.000000   0.000000   0.000000   0.000000
    6  H  1  Y   -0.000000   0.000000   0.000000   0.000000
    7  H  1  Z    0.000732   0.093117  -0.017044   0.055509
    8  H  1  X   -0.000000   0.000000   0.000000   0.000000
    9  H  1  Y   -0.000000   0.000000   0.000000   0.000000
   10  H  1  Z   -1.574665  -2.000425  -0.580337  -0.694963
   11  C  2  S    0.186339   0.243724  -1.123024  -1.429863
   12  C  2  S    1.194727   1.385439   2.092250   2.711680
   13  C  2  S   -2.729335  -3.317141  -2.088511  -2.796122
   14  C  2  S    2.398357   3.138888   1.307741   1.881229
   15  C  2  S   -2.270319  -3.664825  -0.945465  -1.660771
   16  C  2  S    4.678726  12.706284   1.214341   4.827070
   17  C  2  S    0.673703   1.982083  -0.287773   0.609371
   18  C  2  X   -0.000000   0.000000   0.000000   0.000000
   19  C  2  Y   -0.000000   0.000000   0.000000   0.000000
   20  C  2  Z   -0.059463   0.088909  -0.021081   0.042603
   21  C  2  X   -0.000000   0.000000   0.000000   0.000000
   22  C  2  Y   -0.000000   0.000000   0.000000   0.000000
   23  C  2  Z    0.179192  -0.346604   0.078779  -0.160827
   24  C  2  X   -0.000000   0.000000   0.000000   0.000000
   25  C  2  Y   -0.000000   0.000000   0.000000   0.000000
   26  C  2  Z   -0.543423   1.768425  -0.325135   0.687921
   27  C  2  X   -0.000000   0.000000   0.000000   0.000000
   28  C  2  Y   -0.000000   0.000000   0.000000   0.000000
   29  C  2  Z   -1.961662   0.351714  -1.260053   0.207926
   30  C  2  X   -0.000000   0.000000   0.000000   0.000000
   31  C  2  Y   -0.000000   0.000000   0.000000   0.000000
   32  C  2  Z    0.935322  -0.351107   0.211994  -0.016160
   33  C  2 XX    0.013654   0.074563   0.003667   0.043572
   34  C  2 YY    0.013654   0.074563   0.003667   0.043572
   35  C  2 ZZ   -0.027308  -0.149125  -0.007333  -0.087145
   36  C  2 XY   -0.000000   0.000000   0.000000   0.000000
   37  C  2 XZ   -0.000000   0.000000   0.000000   0.000000
   38  C  2 YZ   -0.000000   0.000000   0.000000   0.000000
   39  C  2 XX   -0.471546  -1.318500  -0.156190  -0.474038
   40  C  2 YY   -0.471546  -1.318500  -0.156190  -0.474038
   41  C  2 ZZ    0.943092   2.636999   0.312379   0.948076
   42  C  2 XY   -0.000000   0.000000   0.000000   0.000000
   43  C  2 XZ   -0.000000   0.000000   0.000000   0.000000
   44  C  2 YZ   -0.000000   0.000000   0.000000   0.000000
   45  N  3  S    0.223776  -0.203774  -1.431433   1.122731
   46  N  3  S    1.392396  -1.171827   2.661685  -2.130072
   47  N  3  S   -3.177009   2.809261  -2.653337   2.199874
   48  N  3  S    2.704029  -2.607927   1.625311  -1.449811
   49  N  3  S   -1.995572   2.536511  -0.983676   1.095986
   50  N  3  S    1.506155  -6.641853   0.822740  -2.475765
   51  N  3  S   -1.665040  -2.748118   0.434263  -1.165637
   52  N  3  X   -0.000000   0.000000   0.000000   0.000000
   53  N  3  Y   -0.000000   0.000000   0.000000   0.000000
   54  N  3  Z    0.050818   0.055466   0.015788   0.021150
   55  N  3  X   -0.000000   0.000000   0.000000   0.000000
   56  N  3  Y   -0.000000   0.000000   0.000000   0.000000
   57  N  3  Z   -0.125167  -0.165213  -0.054039  -0.056905
   58  N  3  X   -0.000000   0.000000   0.000000   0.000000
   59  N  3  Y   -0.000000   0.000000   0.000000   0.000000
   60  N  3  Z    0.196377   0.469178   0.116627   0.118757
   61  N  3  X   -0.000000   0.000000   0.000000   0.000000
   62  N  3  Y   -0.000000   0.000000   0.000000   0.000000
   63  N  3  Z    0.042354   3.955325  -0.439771   1.518301
   64  N  3  X   -0.000000   0.000000   0.000000   0.000000
   65  N  3  Y   -0.000000   0.000000   0.000000   0.000000
   66  N  3  Z    0.145729   0.370440  -0.117787   0.135387
   67  N  3 XX   -0.028097  -0.039281  -0.009016  -0.025559
   68  N  3 YY   -0.028097  -0.039281  -0.009016  -0.025559
   69  N  3 ZZ    0.056195   0.078562   0.018031   0.051119
   70  N  3 XY   -0.000000   0.000000   0.000000   0.000000
   71  N  3 XZ   -0.000000   0.000000   0.000000   0.000000
   72  N  3 YZ   -0.000000   0.000000   0.000000   0.000000
   73  N  3 XX    0.009345   0.558802  -0.058622   0.209048
   74  N  3 YY    0.009345   0.558802  -0.058622   0.209048
   75  N  3 ZZ   -0.018689  -1.117603   0.117244  -0.418095
   76  N  3 XY   -0.000000   0.000000   0.000000   0.000000
   77  N  3 XZ   -0.000000   0.000000   0.000000   0.000000
   78  N  3 YZ   -0.000000   0.000000   0.000000   0.000000
 ..... DONE WITH ONE PARTICLE DENSITY MATRIX .....
 STEP CPU TIME =     0.12 TOTAL CPU TIME =       28.7 (    0.5 MIN)
 TOTAL WALL CLOCK TIME=       28.8 SECONDS, CPU UTILIZATION IS  99.62%

     --------------------------------------------------------
     ORMAS CI PROPERTIES...FOR THE WAVEFUNCTION OF STATE    1
               USING THE EXPECTATION VALUE DENSITY
     --------------------------------------------------------

          -----------------
          ENERGY COMPONENTS
          -----------------

         WAVEFUNCTION NORMALIZATION =       1.0000000000

                ONE ELECTRON ENERGY =    -172.4470948668
                TWO ELECTRON ENERGY =      55.3723505625
           NUCLEAR REPULSION ENERGY =      23.8323483349
                                      ------------------
                       TOTAL ENERGY =     -93.2423959694

 ELECTRON-ELECTRON POTENTIAL ENERGY =      55.3723505625
  NUCLEUS-ELECTRON POTENTIAL ENERGY =    -265.7265171188
   NUCLEUS-NUCLEUS POTENTIAL ENERGY =      23.8323483349
                                      ------------------
             TOTAL POTENTIAL ENERGY =    -186.5218182214
               TOTAL KINETIC ENERGY =      93.2794222520
                 VIRIAL RATIO (V/T) =       1.9996030605

          ---------------------------------------
          MULLIKEN AND LOWDIN POPULATION ANALYSES
          ---------------------------------------

               ----- POPULATIONS IN EACH AO -----
                             MULLIKEN      LOWDIN
              1  H  1  S      0.08644     0.09955
              2  H  1  S      0.35177     0.28691
              3  H  1  S      0.26907     0.25150
              4  H  1  S      0.02750     0.10226
              5  H  1  X      0.00596     0.01032
              6  H  1  Y      0.00596     0.01032
              7  H  1  Z      0.02057     0.02963
              8  H  1  X      0.00352     0.03439
              9  H  1  Y      0.00352     0.03439
             10  H  1  Z      0.00250     0.04397
             11  C  2  S      0.23128     0.26635
             12  C  2  S      0.60618     0.63581
             13  C  2  S      0.84605     0.69431
             14  C  2  S      0.28109     0.36657
             15  C  2  S      0.48018     0.21240
             16  C  2  S      0.61850     0.20604
             17  C  2  S      0.09870     0.11992
             18  C  2  X      0.05408     0.05710
             19  C  2  Y      0.05408     0.05710
             20  C  2  Z      0.07807     0.08230
             21  C  2  X      0.19893     0.19388
             22  C  2  Y      0.19893     0.19388
             23  C  2  Z      0.30896     0.28850
             24  C  2  X      0.36038     0.30120
             25  C  2  Y      0.36038     0.30120
             26  C  2  Z      0.34157     0.38082
             27  C  2  X      0.25290     0.22091
             28  C  2  Y      0.25290     0.22091
             29  C  2  Z      0.19144     0.24317
             30  C  2  X      0.04704     0.07188
             31  C  2  Y      0.04704     0.07188
             32  C  2  Z      0.04273     0.08523
             33  C  2 XX      0.01374     0.09219
             34  C  2 YY      0.00183     0.09219
             35  C  2 ZZ      0.00183     0.18717
             36  C  2 XY      0.00900     0.00186
             37  C  2 XZ      0.00900     0.01050
             38  C  2 YZ      0.00000     0.01050
             39  C  2 XX      0.02309     0.04173
             40  C  2 YY      0.00268     0.04173
             41  C  2 ZZ      0.00268     0.21043
             42  C  2 XY      0.00982     0.00262
             43  C  2 XZ      0.00982     0.04394
             44  C  2 YZ      0.00000     0.04394
             45  N  3  S      0.22151     0.25808
             46  N  3  S      0.59768     0.63262
             47  N  3  S      0.84981     0.70964
             48  N  3  S      0.29543     0.39315
             49  N  3  S      0.55559     0.33997
             50  N  3  S      0.91851     0.31145
             51  N  3  S      0.23840     0.18142
             52  N  3  X      0.05974     0.06320
             53  N  3  Y      0.05974     0.06320
             54  N  3  Z      0.08870     0.09390
             55  N  3  X      0.20441     0.20726
             56  N  3  Y      0.20441     0.20726
             57  N  3  Z      0.30781     0.31408
             58  N  3  X      0.38888     0.33176
             59  N  3  Y      0.38888     0.33176
             60  N  3  Z      0.54643     0.48193
             61  N  3  X      0.30436     0.28718
             62  N  3  Y      0.30436     0.28718
             63  N  3  Z      0.33450     0.35855
             64  N  3  X      0.08222     0.12449
             65  N  3  Y      0.08222     0.12449
             66  N  3  Z      0.07234     0.13825
             67  N  3 XX      0.01607     0.15316
             68  N  3 YY      0.00317     0.15316
             69  N  3 ZZ      0.00317     0.18409
             70  N  3 XY      0.01457     0.00305
             71  N  3 XZ      0.01457     0.01276
             72  N  3 YZ      0.00000     0.01276
             73  N  3 XX      0.00469     0.05588
             74  N  3 YY      0.00230     0.05588
             75  N  3 ZZ      0.00230     0.10097
             76  N  3 XY      0.01077     0.00245
             77  N  3 XZ      0.01077     0.03582
             78  N  3 YZ      0.00000     0.03582

          ----- MULLIKEN ATOMIC OVERLAP POPULATIONS -----
          (OFF-DIAGONAL ELEMENTS NEED TO BE MULTIPLIED BY 2)

             1           2           3

    1    0.4269097
    2    0.3445038   4.9437804
    3    0.0053856   0.7466041   6.4363230

          TOTAL MULLIKEN AND LOWDIN ATOMIC POPULATIONS
       ATOM         MULL.POP.    CHARGE          LOW.POP.     CHARGE
    1 H             0.776799    0.223201         0.903247    0.096753
    2 C             6.034888   -0.034888         6.050147   -0.050147
    3 N             7.188313   -0.188313         7.046606   -0.046606

          MULLIKEN SPHERICAL HARMONIC POPULATIONS
       ATOM           S       P       D      F      G      H      I    TOTAL
    1 H             0.73    0.04    0.00   0.00   0.00   0.00   0.00    0.78
    2 C             3.16    2.79    0.08   0.00   0.00   0.00   0.00    6.03
    3 N             3.68    3.43    0.08   0.00   0.00   0.00   0.00    7.19

          ---------------------
          ELECTROSTATIC MOMENTS
          ---------------------

 POINT   1           X           Y           Z (BOHR)    CHARGE
                 0.000000    0.000000    1.058946        0.00 (A.U.)
         DX          DY          DZ         /D/  (DEBYE)
     0.000000    0.000000   -2.916116    2.916116
 ...... END OF PROPERTY EVALUATION ......
 STEP CPU TIME =     0.01 TOTAL CPU TIME =       28.7 (    0.5 MIN)
 TOTAL WALL CLOCK TIME=       28.8 SECONDS, CPU UTILIZATION IS  99.65%
              8742026  WORDS OF DYNAMIC MEMORY USED
 EXECUTION OF GAMESS TERMINATED NORMALLY Fri Jun  2 00:46:41 2017
 DDI: 263640 bytes (0.3 MB / 0 MWords) used by master data server.

 ----------------------------------------
 CPU timing information for all processes
 ========================================
 0: 28.672 + 0.46 = 28.719
 ----------------------------------------
 ddikick.x: exited gracefully.
unset echo
----- accounting info -----
Files used on the master node compute-0-8.local were:
-rw-rw-r-- 1 sarom sarom     4560 Jun  2 00:46 /scratch/ormas-hcn-acpf.F05
-rw-rw-r-- 1 sarom sarom 15121344 Jun  2 00:46 /scratch/ormas-hcn-acpf.F08
-rw-rw-r-- 1 sarom sarom 10461960 Jun  2 00:46 /scratch/ormas-hcn-acpf.F09
-rw-rw-r-- 1 sarom sarom  1995920 Jun  2 00:46 /scratch/ormas-hcn-acpf.F10
-rw-rw-r-- 1 sarom sarom   351632 Jun  2 00:46 /scratch/ormas-hcn-acpf.F12
rm: cannot remove `/scratch/sarom': Is a directory
rm: cannot remove `/scratch/tmp': Is a directory
ls: No match.
ls: No match.
ls: No match.
Fri Jun  2 00:46:44 CDT 2017
0.256u 0.164s 0:32.32 1.2%	0+0k 16+376io 0pf+0w
Deleting shmid=2785280.
Deleting shmid=2818049.
/opt/gridengine/default/spool/compute-0-8/active_jobs/23475.1/pe_hostfile compute-0-8.local
