----- GAMESS execution script 'rungms' -----
This job is running on host compute-3-0
under operating system Linux at Mon Nov 28 17:57:25 CST 2016
Available scratch disk space (Kbyte units) at beginning of the job is
Filesystem            1K-blocks       Used  Available Use% Mounted on
bolt.local:/export/home/sarom
                     9590469632 1554393088 7548908544  18% /home/sarom
Copying input file ormas-meoh-cisd.inp to your run's scratch directory...
cp ormas-meoh-cisd.inp .//ormas-meoh-cisd.F05
unset echo
/home/sarom/gamessGH/ddikick.x /home/sarom/gamessGH/gamess.00.x ormas-meoh-cisd -ddi 1 1 localhost -scr ./

 Distributed Data Interface kickoff program.
 Initiating 1 compute processes on 1 nodes to run the following command:
 /home/sarom/gamessGH/gamess.00.x ormas-meoh-cisd 

          ******************************************************
          *         GAMESS VERSION = 18 AUG 2016 (R1)          *
          *             FROM IOWA STATE UNIVERSITY             *
          * M.W.SCHMIDT, K.K.BALDRIDGE, J.A.BOATZ, S.T.ELBERT, *
          *   M.S.GORDON, J.H.JENSEN, S.KOSEKI, N.MATSUNAGA,   *
          *          K.A.NGUYEN, S.J.SU, T.L.WINDUS,           *
          *       TOGETHER WITH M.DUPUIS, J.A.MONTGOMERY       *
          *         J.COMPUT.CHEM.  14, 1347-1363(1993)        *
          **************** 64 BIT LINUX VERSION ****************

  SINCE 1993, STUDENTS AND POSTDOCS WORKING AT IOWA STATE UNIVERSITY
  AND ALSO IN THEIR VARIOUS JOBS AFTER LEAVING ISU HAVE MADE IMPORTANT
  CONTRIBUTIONS TO THE CODE:
     IVANA ADAMOVIC, CHRISTINE AIKENS, YURI ALEXEEV, POOJA ARORA,
     ANDREY ASADCHEV, ROB BELL, PRADIPTA BANDYOPADHYAY, JONATHAN BENTZ,
     BRETT BODE, KURT BRORSEN, CALEB CARLIN, GALINA CHABAN, WEI CHEN,
     CHEOL HO CHOI, PAUL DAY, ALBERT DEFUSCO, NUWAN DESILVA, TIM DUDLEY,
     DMITRI FEDOROV, GRAHAM FLETCHER, MARK FREITAG, KURT GLAESEMANN,
     DAN KEMP, GRANT MERRILL, NORIYUKI MINEZAWA, JONATHAN MULLIN,
     TAKESHI NAGATA, SEAN NEDD, HEATHER NETZLOFF, BOSILJKA NJEGIC, RYAN OLSON,
     MIKE PAK, SPENCER PRUITT, LUKE ROSKOP, JIM SHOEMAKER, LYUDMILA SLIPCHENKO,
     TONY SMITH, SAROM SOK LEANG, JIE SONG, TETSUYA TAKETSUGU, SIMON WEBB,
     PENG XU, SOOHAENG YOO, FEDERICO ZAHARIEV

  ADDITIONAL CODE HAS BEEN PROVIDED BY COLLABORATORS IN OTHER GROUPS:
     IOWA STATE UNIVERSITY:
          JOE IVANIC, AARON WEST, LAIMUTIS BYTAUTAS, KLAUS RUEDENBERG
     UNIVERSITY OF TOKYO: KIMIHIKO HIRAO, TAKAHITO NAKAJIMA,
          TAKAO TSUNEDA, MUNEAKI KAMIYA, SUSUMU YANAGISAWA,
          KIYOSHI YAGI, MAHITO CHIBA, SEIKEN TOKURA, NAOAKI KAWAKAMI
     UNIVERSITY OF AARHUS: FRANK JENSEN
     UNIVERSITY OF IOWA: VISVALDAS KAIRYS, HUI LI
     NATIONAL INST. OF STANDARDS AND TECHNOLOGY: WALT STEVENS, DAVID GARMER
     UNIVERSITY OF PISA: BENEDETTA MENNUCCI, JACOPO TOMASI
     UNIVERSITY OF MEMPHIS: HENRY KURTZ, PRAKASHAN KORAMBATH
     UNIVERSITY OF ALBERTA: TOBY ZENG, MARIUSZ KLOBUKOWSKI
     UNIVERSITY OF NEW ENGLAND: MARK SPACKMAN
     MIE UNIVERSITY: HIROAKI UMEDA
     NAT. INST. OF ADVANCED INDUSTRIAL SCIENCE AND TECHNOLOGY: KAZUO KITAURA
     MICHIGAN STATE UNIVERSITY:
          KAROL KOWALSKI, MARTA WLOCH, JEFFREY GOUR, JESSE LUTZ,
          WEI LI, PIOTR PIECUCH
     UNIVERSITY OF SILESIA: MONIKA MUSIAL, STANISLAW KUCHARSKI
     FACULTES UNIVERSITAIRES NOTRE-DAME DE LA PAIX:
          OLIVIER QUINET, BENOIT CHAMPAGNE
     UNIVERSITY OF CALIFORNIA - SANTA BARBARA: BERNARD KIRTMAN
     INSTITUTE FOR MOLECULAR SCIENCE:
          KAZUYA ISHIMURA, MICHIO KATOUDA, AND SHIGERU NAGASE
     UNIVERSITY OF NOTRE DAME: ANNA POMOGAEVA, DAN CHIPMAN
     KYUSHU UNIVERSITY:
          HARUYUKI NAKANO,
          FENG LONG GU, JACEK KORCHOWIEC, MARCIN MAKOWSKI, AND YURIKO AOKI,
          HIROTOSHI MORI AND EISAKU MIYOSHI
     PENNSYLVANIA STATE UNIVERSITY:
          TZVETELIN IORDANOV, CHET SWALINA, JONATHAN SKONE,
          SHARON HAMMES-SCHIFFER
     WASEDA UNIVERSITY:
          MASATO KOBAYASHI, TOMOKO AKAMA, TSUGUKI TOUMA,
          TAKESHI YOSHIKAWA, YASUHIRO IKABATA, JUNJI SEINO,
          YUYA NAKAJIMA, HIROMI NAKAI
     NANJING UNIVERSITY: SHUHUA LI
     UNIVERSITY OF NEBRASKA:
          PEIFENG SU, DEJUN SI, NANDUN THELLAMUREGE, YALI WANG, HUI LI
     UNIVERSITY OF ZURICH: ROBERTO PEVERATI, KIM BALDRIDGE
     N. COPERNICUS UNIVERSITY AND JACKSON STATE UNIVERSITY:
          MARIA BARYSZ
     UNIVERSITY OF COPENHAGEN: Jimmy Kromann, CASPER STEINMANN
     TOKYO INSTITUTE OF TECHNOLOGY: HIROYA NAKATA
     NAGOYA UNIVERSITY: YOSHIO NISHIMOTO, STEPHAN IRLE
     MOSCOW STATE UNIVERSITY: VLADIMIR MIRONOV

 EXECUTION OF GAMESS BEGUN Mon Nov 28 17:57:25 2016

            ECHO OF THE FIRST FEW INPUT CARDS -
 INPUT CARD>!   single reference CISD on CH3OH, using ORMAS' CI-X option.                   
 INPUT CARD>!          counting: 2 core, 7 occ. valence, 39 empty MOs (50 AOs, 48 MOs)      
 INPUT CARD>!          the resulting CI-SD has 53,964 Sz=0 A' determinants                  
 INPUT CARD>!                                                                               
 INPUT CARD>!   E(RHF) = -115.0495964060, 11 iters                                          
 INPUT CARD>!   37 Davidson iterations find three roots:                                    
 INPUT CARD>!     STATE   1  ENERGY= -115.3830636097  S=  0.00  SPACE SYM=A'                
 INPUT CARD>!     STATE   2  ENERGY= -114.7902719332  S=  1.00  SPACE SYM=A'                
 INPUT CARD>!     STATE   3  ENERGY= -114.7564985304  S=  1.00  SPACE SYM=A'                
 INPUT CARD>!   dipoles are RHF= 1.739576 and CISD= 1.628771 debye                          
 INPUT CARD>!                                                                               
 INPUT CARD>!   This run takes 80 seconds on a 2.66 GHz Cloverton (13 Apr 2015)             
 INPUT CARD>!                                                                               
 INPUT CARD> $contrl scftyp=rhf cityp=ormas runtyp=energy ispher=1 $end                     
 INPUT CARD> $system mwords=50 $end                                                         
 INPUT CARD> $basis  gbasis=ccd $end                                                        
 INPUT CARD> $guess  guess=huckel $end                                                      
 INPUT CARD> $scf    dirscf=.true. $end                                                     
 INPUT CARD> $trans  dirtrf=.true. $end                                                     
 INPUT CARD> $cidet  group=Cs stsym=Ap ncore=2 nact=46 nels=14 nstate=3 $end                
 INPUT CARD> $ormas  nspace=2 mstart(1)=3,10 mine(1)=12,0                                   
 INPUT CARD>                                 maxe(1)=14,2 $end                              
 INPUT CARD> $data                                                                          
 INPUT CARD>Methanol...CISD...RHF/6-31G(d) geometry                                         
 INPUT CARD>Cs                                                                              
 INPUT CARD>                                                                                
 INPUT CARD>H     1.0  -1.0616171503   0.8036449245   0.0000000000                          
 INPUT CARD>O     8.0  -0.6870131482  -0.0653470836   0.0000000000                          
 INPUT CARD>C     6.0   0.7093551399   0.0291827007   0.0000000000                          
 INPUT CARD>H     1.0   1.0836641283   0.5408321444   0.8835398105                          
 INPUT CARD>H     1.0   1.0975386849  -0.9797829903   0.0000000000                          
 INPUT CARD> $end                                                                           
   50000000 WORDS OF MEMORY AVAILABLE

     BASIS OPTIONS
     -------------
     GBASIS=CCD          IGAUSS=       0      POLAR=NONE    
     NDFUNC=       0     NFFUNC=       0     DIFFSP=       F
     NPFUNC=       0      DIFFS=       F     BASNAM=        


     RUN TITLE
     ---------
 Methanol...CISD...RHF/6-31G(d) geometry                                         

 THE POINT GROUP OF THE MOLECULE IS CS      
 THE ORDER OF THE PRINCIPAL AXIS IS     0

 ATOM      ATOMIC                      COORDINATES (BOHR)
           CHARGE         X                   Y                   Z
 H           1.0    -2.0061655179        1.5186686987        0.0000000000
 O           8.0    -1.2982666001       -0.1234880821        0.0000000000
 C           6.0     1.3404868424        0.0551473079        0.0000000000
 H           1.0     2.0478282652        1.0220245583       -1.6696481411
 H           1.0     2.0478282652        1.0220245583        1.6696481411
 H           1.0     2.0740473754       -1.8515213791        0.0000000000

          INTERNUCLEAR DISTANCES (ANGS.)
          ------------------------------

                1 H          2 O          3 C          4 H          5 H     

   1 H       0.0000000    0.9462956 *  1.9329083 *  2.3349400 *  2.3349400 *
   2 O       0.9462956 *  0.0000000    1.3995643 *  2.0696362 *  2.0696362 *
   3 C       1.9329083 *  1.3995643 *  0.0000000    1.0874442 *  1.0874442 *
   4 H       2.3349400 *  2.0696362 *  1.0874442 *  0.0000000    1.7670796 *
   5 H       2.3349400 *  2.0696362 *  1.0874442 *  1.7670796 *  0.0000000  
   6 H       2.8004587 *  2.0051978 *  1.0810635 *  1.7587227 *  1.7587227 *

                6 H     

   1 H       2.8004587 *
   2 O       2.0051978 *
   3 C       1.0810635 *
   4 H       1.7587227 *
   5 H       1.7587227 *
   6 H       0.0000000  

  * ... LESS THAN  3.000


     ATOMIC BASIS SET
     ----------------
 THE CONTRACTED PRIMITIVE FUNCTIONS HAVE BEEN UNNORMALIZED
 THE CONTRACTED BASIS FUNCTIONS ARE NOW NORMALIZED TO UNITY

  SHELL TYPE  PRIMITIVE        EXPONENT          CONTRACTION COEFFICIENT(S)

 H         

      1   S       1            13.0100000    0.033498726390
      1   S       2             1.9620000    0.234800801174
      1   S       3             0.4446000    0.813682957883

      2   S       4             0.1220000    1.000000000000

      3   P       5             0.7270000    1.000000000000

 O         

      4   S       6         11720.0000000    0.000709645947
      4   S       7          1759.0000000    0.005467272292
      4   S       8           400.8000000    0.027823118610
      4   S       9           113.7000000    0.104747739711
      4   S      10            37.0300000    0.282920846357
      4   S      11            13.2700000    0.448495238698
      4   S      12             5.0250000    0.270816885213
      4   S      13             1.0130000    0.015450291607

      5   S      14         11720.0000000   -0.000314443412
      5   S      15          1759.0000000   -0.002482137681
      5   S      16           400.8000000   -0.012316355382
      5   S      17           113.7000000   -0.050538917344
      5   S      18            37.0300000   -0.139384903316
      5   S      19            13.2700000   -0.325077494818
      5   S      20             5.0250000   -0.229848307588
      5   S      21             1.0130000    1.095379346788

      6   S      22             0.3023000    1.000000000000

      7   P      23            17.7000000    0.062679166282
      7   P      24             3.8540000    0.333536565879
      7   P      25             1.0460000    0.741239641640

      8   P      26             0.2753000    1.000000000000

      9   D      27             1.1850000    1.000000000000

 C         

     10   S      28          6665.0000000    0.000691583963
     10   S      29          1000.0000000    0.005325796153
     10   S      30           228.0000000    0.027060721042
     10   S      31            64.7100000    0.101656846141
     10   S      32            21.0600000    0.274574823617
     10   S      33             7.4950000    0.448294318924
     10   S      34             2.7970000    0.284902610715
     10   S      35             0.5215000    0.015194859206

     11   S      36          6665.0000000   -0.000293269653
     11   S      37          1000.0000000   -0.002318035474
     11   S      38           228.0000000   -0.011499786039
     11   S      39            64.7100000   -0.046826727010
     11   S      40            21.0600000   -0.128466168750
     11   S      41             7.4950000   -0.301266272463
     11   S      42             2.7970000   -0.255630702330
     11   S      43             0.5215000    1.093793361012

     12   S      44             0.1596000    1.000000000000

     13   P      45             9.4390000    0.056979251590
     13   P      46             2.0020000    0.313207211501
     13   P      47             0.5456000    0.760376741738

     14   P      48             0.1517000    1.000000000000

     15   D      49             0.5500000    1.000000000000

 H         

     19   S      50            13.0100000    0.033498726390
     19   S      51             1.9620000    0.234800801174
     19   S      52             0.4446000    0.813682957883

     20   S      53             0.1220000    1.000000000000

     21   P      54             0.7270000    1.000000000000

 H         

     22   S      55            13.0100000    0.033498726390
     22   S      56             1.9620000    0.234800801174
     22   S      57             0.4446000    0.813682957883

     23   S      58             0.1220000    1.000000000000

     24   P      59             0.7270000    1.000000000000

 TOTAL NUMBER OF BASIS SET SHELLS             =   24
 NUMBER OF CARTESIAN GAUSSIAN BASIS FUNCTIONS =   50
 NOTE: THIS RUN WILL RESTRICT THE MO VARIATION SPACE TO SPHERICAL HARMONICS.
 THE NUMBER OF ORBITALS KEPT IN THE VARIATIONAL SPACE WILL BE PRINTED LATER.
 NUMBER OF ELECTRONS                          =   18
 CHARGE OF MOLECULE                           =    0
 SPIN MULTIPLICITY                            =    1
 NUMBER OF OCCUPIED ORBITALS (ALPHA)          =    9
 NUMBER OF OCCUPIED ORBITALS (BETA )          =    9
 TOTAL NUMBER OF ATOMS                        =    6
 THE NUCLEAR REPULSION ENERGY IS       40.7873239319

     $CONTRL OPTIONS
     ---------------
 SCFTYP=RHF          RUNTYP=ENERGY       EXETYP=RUN     
 MPLEVL=       0     CITYP =ORMAS        CCTYP =NONE         VBTYP =NONE    
 DFTTYP=NONE         TDDFT =NONE    
 MULT  =       1     ICHARG=       0     NZVAR =       0     COORD =UNIQUE  
 PP    =NONE         RELWFN=NONE         LOCAL =NONE         NUMGRD=       F
 ISPHER=       1     NOSYM =       0     MAXIT =      30     UNITS =ANGS    
 PLTORB=       F     MOLPLT=       F     AIMPAC=       F     FRIEND=        
 NPRINT=       7     IREST =       0     GEOM  =INPUT   
 NORMF =       0     NORMP =       0     ITOL  =      20     ICUT  =       9
 INTTYP=BEST         GRDTYP=BEST         QMTTOL= 1.0E-06

     $SYSTEM OPTIONS
     ---------------
  REPLICATED MEMORY=    50000000 WORDS (ON EVERY NODE).
 DISTRIBUTED MEMDDI=           0 MILLION WORDS IN AGGREGATE,
 MEMDDI DISTRIBUTED OVER   1 PROCESSORS IS           0 WORDS/PROCESSOR.
 TOTAL MEMORY REQUESTED ON EACH PROCESSOR=    50000000 WORDS.
 TIMLIM=      525600.00 MINUTES, OR     365.0 DAYS.
 PARALL= F  BALTYP=  DLB     KDIAG=    0  COREFL= F
 MXSEQ2=     300 MXSEQ3=     150  mem10=         0

          ----------------
          PROPERTIES INPUT
          ----------------

     MOMENTS            FIELD           POTENTIAL          DENSITY
 IEMOM =       1   IEFLD =       0   IEPOT =       0   IEDEN =       0
 WHERE =COMASS     WHERE =NUCLEI     WHERE =NUCLEI     WHERE =NUCLEI  
 OUTPUT=BOTH       OUTPUT=BOTH       OUTPUT=BOTH       OUTPUT=BOTH    
 IEMINT=       0   IEFINT=       0                     IEDINT=       0
                                                       MORB  =       0
          EXTRAPOLATION IN EFFECT
          SOSCF IN EFFECT
 ORBITAL PRINTING OPTION: NPREO=     1    50     2     1

     -------------------------------
     INTEGRAL TRANSFORMATION OPTIONS
     -------------------------------
     NWORD  =            0
     CUTOFF = 1.0E-09     MPTRAN =       0
     DIRTRF =       T     AOINTS =DUP     

          ----------------------
          INTEGRAL INPUT OPTIONS
          ----------------------
 NOPK  =       1 NORDER=       0 SCHWRZ=       T

     ------------------------------------------
     THE POINT GROUP IS CS , NAXIS= 0, ORDER= 2
     ------------------------------------------

 -- VARIATIONAL SPACE WILL BE RESTRICTED TO PURE SPHERICAL HARMONICS ONLY --
 AFTER EXCLUDING CONTAMINANT COMBINATIONS FROM THE CARTESIAN GAUSSIAN BASIS
 SET, THE NUMBER OF SPHERICAL HARMONICS KEPT IN THE VARIATION SPACE IS   48

     DIMENSIONS OF THE SYMMETRY SUBSPACES ARE
 A'  =   33     A'' =   15

 ..... DONE SETTING UP THE RUN .....
 STEP CPU TIME =     0.01 TOTAL CPU TIME =        0.0 (    0.0 MIN)
 TOTAL WALL CLOCK TIME=        0.2 SECONDS, CPU UTILIZATION IS   4.76%

          ********************
          1 ELECTRON INTEGRALS
          ********************
 ...... END OF ONE-ELECTRON INTEGRALS ......
 STEP CPU TIME =     0.01 TOTAL CPU TIME =        0.0 (    0.0 MIN)
 TOTAL WALL CLOCK TIME=        0.2 SECONDS, CPU UTILIZATION IS   9.52%

          -------------
          GUESS OPTIONS
          -------------
          GUESS =HUCKEL            NORB  =       0          NORDER=       0
          MIX   =       F          PRTMO =       F          PUNMO =       F
          TOLZ  = 1.0E-08          TOLE  = 1.0E-05
          SYMDEN=       F          PURIFY=       F

 INITIAL GUESS ORBITALS GENERATED BY HUCKEL   ROUTINE.
 HUCKEL GUESS REQUIRES     23454 WORDS.

 STATISTICS FOR GENERATION OF SYMMETRY ORBITAL -Q- MATRIX
 NUMBER OF CARTESIAN ATOMIC ORBITALS=         50
 NUMBER OF SPHERICAL CONTAMINANTS DROPPED=     2
 NUMBER OF LINEARLY DEPENDENT MOS DROPPED=     0
 TOTAL NUMBER OF MOS IN VARIATION SPACE=      48

 SYMMETRIES FOR INITIAL GUESS ORBITALS FOLLOW.   BOTH SET(S).
     9 ORBITALS ARE OCCUPIED (    2 CORE ORBITALS).
     3=A'       4=A'       5=A'       6=A''      7=A'       8=A'       9=A'' 
    10=A'      11=A''     12=A'      13=A'      14=A'      15=A'      16=A'  
    17=A'      18=A'      19=A'  
 ...... END OF INITIAL ORBITAL SELECTION ......
 STEP CPU TIME =     0.01 TOTAL CPU TIME =        0.0 (    0.0 MIN)
 TOTAL WALL CLOCK TIME=        0.2 SECONDS, CPU UTILIZATION IS  13.64%

                    ----------------------
                    AO INTEGRAL TECHNOLOGY
                    ----------------------
     S,P,L SHELL ROTATED AXIS INTEGRALS, REPROGRAMMED BY
        KAZUYA ISHIMURA (IMS) AND JOSE SIERRA (SYNSTAR).
     S,P,D,L SHELL ROTATED AXIS INTEGRALS PROGRAMMED BY
        KAZUYA ISHIMURA (INSTITUTE FOR MOLECULAR SCIENCE).
     S,P,D,F,G SHELL TO TOTAL QUARTET ANGULAR MOMENTUM SUM 5,
        ERIC PROGRAM BY GRAHAM FLETCHER (ELORET AND NASA ADVANCED
        SUPERCOMPUTING DIVISION, AMES RESEARCH CENTER).
     S,P,D,F,G,L SHELL GENERAL RYS QUADRATURE PROGRAMMED BY
        MICHEL DUPUIS (PACIFIC NORTHWEST NATIONAL LABORATORY).

          --------------------
          2 ELECTRON INTEGRALS
          --------------------

 DIRECT SCF METHOD SKIPS INTEGRAL STORAGE ON DISK.
 DIRECT TRANSFORMATION SKIPS AO INTEGRAL STORAGE ON DISK.
  ...... END OF TWO-ELECTRON INTEGRALS .....
 STEP CPU TIME =     0.02 TOTAL CPU TIME =        0.0 (    0.0 MIN)
 TOTAL WALL CLOCK TIME=        0.3 SECONDS, CPU UTILIZATION IS  14.29%

          --------------------------
                 RHF SCF CALCULATION
          --------------------------

     NUCLEAR ENERGY =        40.7873239319
     MAXIT =   30     NPUNCH=    2
     EXTRAP=T  DAMP=F  SHIFT=F  RSTRCT=F  DIIS=F  DEM=F  SOSCF=T
     DENSITY MATRIX CONV=  2.00E-06
     SOSCF WILL OPTIMIZE     351 ORBITAL ROTATIONS, SOGTOL=   0.250
     MEMORY REQUIRED FOR RHF ITERS=     65600 WORDS.

 DIRECT SCF CALCULATION, SCHWRZ=T   FDIFF=T,  DIRTHR=  0.00E+00 NITDIR=10
 SCHWARZ INEQUALITY OVERHEAD:      1275 INTEGRALS, T=        0.00

                                                                                   NONZERO     BLOCKS
 ITER EX DEM     TOTAL ENERGY        E CHANGE  DENSITY CHANGE     ORB. GRAD      INTEGRALS    SKIPPED
   1  0  0     -114.6903703013  -114.6903703013   0.153225663   0.000000000         416158          0
          ---------------START SECOND ORDER SCF---------------
   2  1  0     -115.0279421160    -0.3375718147   0.062074137   0.031852711         416158          0
   3  2  0     -115.0473835099    -0.0194413939   0.023711036   0.011975138         416149          1
   4  3  0     -115.0495408618    -0.0021573519   0.002939086   0.001696132         416053         11
   5  4  0     -115.0495899816    -0.0000491198   0.001265240   0.000559867         416009         18
   6  5  0     -115.0495958599    -0.0000058783   0.000410349   0.000224778         415867         39
   7  6  0     -115.0495963602    -0.0000005002   0.000104157   0.000058939         415111         83
   8  7  0     -115.0495964029    -0.0000000427   0.000032987   0.000012411         414573        154
   9  8  0     -115.0495964059    -0.0000000030   0.000009454   0.000002951         411011        376
  10  9  0     -115.0495964060    -0.0000000001   0.000002311   0.000000649         406112        799
  11 10  0     -115.0495964060    -0.0000000000   0.000000356   0.000000170         399584       1323

          -----------------
          DENSITY CONVERGED
          -----------------
     TIME TO FORM FOCK OPERATORS=       1.0 SECONDS (       0.1 SEC/ITER)
     FOCK TIME ON FIRST ITERATION=       0.1, LAST ITERATION=       0.1
     TIME TO SOLVE SCF EQUATIONS=       0.0 SECONDS (       0.0 SEC/ITER)

 FINAL RHF ENERGY IS     -115.0495964060 AFTER  11 ITERATIONS

          ------------
          EIGENVECTORS
          ------------

                      1          2          3          4          5
                  -20.5466   -11.2703    -1.3586    -0.9247    -0.6900
                     A'         A'         A'         A'         A'  
    1  H  1  S   -0.000110   0.000336   0.178726  -0.163393   0.306836
    2  H  1  S    0.000070   0.000186   0.005930  -0.020509   0.066105
    3  H  1  X   -0.000190   0.000327   0.017668  -0.008169   0.017475
    4  H  1  Y    0.000729  -0.000047  -0.033828   0.024172  -0.032544
    5  H  1  Z    0.000000   0.000000   0.000000   0.000000  -0.000000
    6  O  2  S    1.001174   0.000114  -0.011078  -0.001608  -0.000615
    7  O  2  S    0.001705   0.000427   0.422223  -0.130045  -0.087879
    8  O  2  S   -0.004678  -0.000616   0.408550  -0.120692  -0.179080
    9  O  2  X    0.000777   0.000249   0.049629   0.184486  -0.212936
   10  O  2  Y    0.001444  -0.000004   0.063137  -0.070920   0.360820
   11  O  2  Z    0.000000   0.000000   0.000000   0.000000  -0.000000
   12  O  2  X   -0.001492  -0.000638   0.035268   0.100515  -0.092562
   13  O  2  Y   -0.000492  -0.000335  -0.004426  -0.006770   0.181260
   14  O  2  Z    0.000000   0.000000   0.000000   0.000000  -0.000000
   15  O  2 XX   -0.000200  -0.000230   0.006759   0.013493  -0.014173
   16  O  2 YY    0.000158   0.000023  -0.000191  -0.009655   0.018119
   17  O  2 ZZ    0.000043   0.000207  -0.006568  -0.003838  -0.003946
   18  O  2 XY   -0.000133  -0.000010   0.000098   0.006251   0.000179
   19  O  2 XZ    0.000000   0.000000   0.000000   0.000000  -0.000000
   20  O  2 YZ    0.000000   0.000000   0.000000   0.000000  -0.000000
   21  C  3  S    0.000012   1.002075  -0.010609  -0.016565  -0.004399
   22  C  3  S    0.000042   0.004190   0.135853   0.354423   0.041944
   23  C  3  S    0.002517  -0.007327   0.034782   0.203597   0.039071
   24  C  3  X   -0.000286  -0.000603  -0.106198   0.052828   0.191829
   25  C  3  Y   -0.000003   0.000022  -0.001384  -0.013207   0.204489
   26  C  3  Z    0.000000   0.000000   0.000000   0.000000  -0.000000
   27  C  3  X   -0.001061  -0.000576  -0.014945   0.029090   0.069485
   28  C  3  Y   -0.000020  -0.000074   0.008201   0.002799   0.094223
   29  C  3  Z    0.000000   0.000000   0.000000   0.000000  -0.000000
   30  C  3 XX   -0.000191   0.000010   0.030965  -0.001407  -0.026236
   31  C  3 YY    0.000078   0.000001  -0.015526   0.002576   0.006200
   32  C  3 ZZ    0.000112  -0.000011  -0.015439  -0.001169   0.020035
   33  C  3 XY   -0.000069  -0.000008  -0.002641   0.003691  -0.018289
   34  C  3 XZ    0.000000   0.000000   0.000000   0.000000  -0.000000
   35  C  3 YZ    0.000000   0.000000   0.000000   0.000000  -0.000000
   36  H  4  S   -0.000329   0.000114   0.037110   0.185058   0.149153
   37  H  4  S   -0.000128   0.001361   0.003076   0.025730   0.035832
   38  H  4  X    0.000138   0.000141  -0.004984  -0.007021   0.000165
   39  H  4  Y    0.000028   0.000135  -0.003774  -0.012060  -0.001926
   40  H  4  Z   -0.000030  -0.000216   0.006353   0.019625   0.013644
   41  H  5  S   -0.000329   0.000114   0.037110   0.185058   0.149153
   42  H  5  S   -0.000128   0.001361   0.003076   0.025730   0.035832
   43  H  5  X    0.000138   0.000141  -0.004984  -0.007021   0.000165
   44  H  5  Y    0.000028   0.000135  -0.003774  -0.012060  -0.001926
   45  H  5  Z    0.000030   0.000216  -0.006353  -0.019625  -0.013644
   46  H  6  S   -0.000326   0.000103   0.038135   0.195654  -0.055786
   47  H  6  S   -0.000155   0.001290   0.006391   0.030413  -0.008324
   48  H  6  X    0.000105   0.000160  -0.004614  -0.006505   0.003545
   49  H  6  Y   -0.000057  -0.000241   0.005806   0.024287  -0.002346
   50  H  6  Z    0.000000   0.000000   0.000000   0.000000  -0.000000

                      6          7          8          9         10
                   -0.6180    -0.5920    -0.4947    -0.4409     0.1862
                     A''        A'         A'         A''        A'  
    1  H  1  S   -0.000000  -0.066236   0.198818   0.000000  -0.035279
    2  H  1  S   -0.000000  -0.049285   0.051831   0.000000  -0.862332
    3  H  1  X   -0.000000   0.015201   0.018969   0.000000  -0.006496
    4  H  1  Y   -0.000000   0.013457  -0.009362   0.000000   0.018252
    5  H  1  Z    0.016168  -0.000000   0.000000   0.027343  -0.000000
    6  O  2  S   -0.000000  -0.000160   0.000335   0.000000  -0.019504
    7  O  2  S   -0.000000  -0.057603  -0.101224   0.000000   0.058247
    8  O  2  S   -0.000000  -0.105372  -0.218522   0.000000   0.477103
    9  O  2  X   -0.000000   0.379697   0.173864   0.000000  -0.058437
   10  O  2  Y   -0.000000   0.143547   0.369167   0.000000   0.114988
   11  O  2  Z    0.341595  -0.000000   0.000000   0.536104  -0.000000
   12  O  2  X   -0.000000   0.239884   0.159332   0.000000  -0.208196
   13  O  2  Y   -0.000000   0.113629   0.257745   0.000000   0.218184
   14  O  2  Z    0.233364  -0.000000   0.000000   0.436406  -0.000000
   15  O  2 XX   -0.000000   0.011004   0.001063   0.000000  -0.001906
   16  O  2 YY   -0.000000  -0.003714   0.010338   0.000000   0.007919
   17  O  2 ZZ   -0.000000  -0.007290  -0.011401   0.000000  -0.006013
   18  O  2 XY   -0.000000   0.018930   0.000433   0.000000  -0.003007
   19  O  2 XZ    0.013118  -0.000000   0.000000   0.003244  -0.000000
   20  O  2 YZ    0.008896  -0.000000   0.000000   0.011526  -0.000000
   21  C  3  S   -0.000000   0.002717   0.002964   0.000000  -0.074117
   22  C  3  S   -0.000000   0.007643   0.025649   0.000000   0.023075
   23  C  3  S   -0.000000  -0.008413  -0.015978   0.000000   1.764577
   24  C  3  X   -0.000000  -0.295119  -0.099383   0.000000   0.140716
   25  C  3  Y   -0.000000   0.242786  -0.308776   0.000000   0.045001
   26  C  3  Z    0.367868  -0.000000   0.000000  -0.237724  -0.000000
   27  C  3  X   -0.000000  -0.109720  -0.002446   0.000000   0.323759
   28  C  3  Y   -0.000000   0.125043  -0.109385   0.000000   0.143419
   29  C  3  Z    0.149871  -0.000000   0.000000  -0.081494  -0.000000
   30  C  3 XX   -0.000000   0.038648   0.012511   0.000000   0.003914
   31  C  3 YY   -0.000000  -0.028763   0.008922   0.000000  -0.005437
   32  C  3 ZZ   -0.000000  -0.009885  -0.021433   0.000000   0.001523
   33  C  3 XY   -0.000000   0.002791  -0.032367   0.000000   0.001161
   34  C  3 XZ   -0.007023  -0.000000   0.000000  -0.040180  -0.000000
   35  C  3 YZ    0.017989  -0.000000   0.000000  -0.017100  -0.000000
   36  H  4  S   -0.243006   0.013470  -0.166482   0.229710  -0.009760
   37  H  4  S   -0.088768   0.000712  -0.093627   0.130969  -0.857986
   38  H  4  X    0.006245  -0.006836   0.001320  -0.005584   0.011124
   39  H  4  Y    0.011619   0.005755  -0.004544  -0.007872   0.003855
   40  H  4  Z   -0.010037   0.001184  -0.012546   0.005959  -0.010958
   41  H  5  S    0.243006   0.013470  -0.166482  -0.229710  -0.009760
   42  H  5  S    0.088768   0.000712  -0.093627  -0.130969  -0.857986
   43  H  5  X   -0.006245  -0.006836   0.001320   0.005584   0.011124
   44  H  5  Y   -0.011619   0.005755  -0.004544   0.007872   0.003855
   45  H  5  Z   -0.010037  -0.001184   0.012546   0.005959   0.010958
   46  H  6  S   -0.000000  -0.279462   0.273067   0.000000  -0.016452
   47  H  6  S   -0.000000  -0.089903   0.125852   0.000000  -0.551364
   48  H  6  X   -0.000000   0.001437  -0.010721   0.000000   0.009997
   49  H  6  Y   -0.000000  -0.019136   0.010981   0.000000  -0.005668
   50  H  6  Z    0.011631  -0.000000   0.000000  -0.008790  -0.000000

                     11         12         13         14         15
                    0.2262     0.2684     0.2702     0.3687     0.6290
                     A'         A''        A'         A'         A'  
    1  H  1  S    0.060915   0.000000  -0.002591  -0.007508  -0.109292
    2  H  1  S    1.169504   0.000000   0.206008   0.897675  -0.156638
    3  H  1  X    0.001169   0.000000   0.006354   0.000843   0.069750
    4  H  1  Y   -0.029628   0.000000  -0.010740  -0.005545  -0.024464
    5  H  1  Z    0.000000  -0.008788  -0.000000  -0.000000   0.000000
    6  O  2  S    0.032621   0.000000   0.012366  -0.043272   0.007560
    7  O  2  S   -0.058158   0.000000  -0.018182   0.038214   0.051035
    8  O  2  S   -0.697469   0.000000  -0.262701   0.917285   0.086756
    9  O  2  X   -0.009625   0.000000  -0.037706   0.272041  -0.089769
   10  O  2  Y   -0.151732   0.000000  -0.073428  -0.064366  -0.052406
   11  O  2  Z    0.000000  -0.050448  -0.000000  -0.000000   0.000000
   12  O  2  X    0.057558   0.000000  -0.059191   0.838939  -0.004216
   13  O  2  Y   -0.299390   0.000000  -0.227810  -0.172208  -0.237693
   14  O  2  Z    0.000000  -0.185061  -0.000000  -0.000000   0.000000
   15  O  2 XX    0.010121   0.000000   0.000337   0.012704   0.008748
   16  O  2 YY   -0.013898   0.000000  -0.001938  -0.006971  -0.011933
   17  O  2 ZZ    0.003778   0.000000   0.001601  -0.005733   0.003185
   18  O  2 XY    0.001367   0.000000   0.010230   0.007042   0.018403
   19  O  2 XZ    0.000000   0.008284  -0.000000  -0.000000   0.000000
   20  O  2 YZ    0.000000  -0.004959  -0.000000  -0.000000   0.000000
   21  C  3  S   -0.046430   0.000000  -0.008392   0.035836  -0.004805
   22  C  3  S    0.093895   0.000000   0.012177  -0.027994  -0.010648
   23  C  3  S    1.469050   0.000000   0.180352  -0.783506   0.016150
   24  C  3  X    0.010769   0.000000  -0.040570   0.176185  -0.004852
   25  C  3  Y   -0.060618   0.000000   0.306449   0.028752  -0.263434
   26  C  3  Z    0.000000   0.331409  -0.000000  -0.000000   0.000000
   27  C  3  X    0.244582   0.000000  -0.198656   1.676886  -0.064757
   28  C  3  Y   -0.277987   0.000000   1.380738   0.291719   1.359433
   29  C  3  Z    0.000000   1.406833  -0.000000  -0.000000   0.000000
   30  C  3 XX   -0.018453   0.000000  -0.003576   0.002761  -0.016740
   31  C  3 YY    0.016015   0.000000  -0.010987  -0.002109   0.134023
   32  C  3 ZZ    0.002438   0.000000   0.014563  -0.000652  -0.117283
   33  C  3 XY   -0.000930   0.000000   0.012050   0.002549  -0.078347
   34  C  3 XZ    0.000000   0.017068  -0.000000  -0.000000   0.000000
   35  C  3 YZ    0.000000   0.019711  -0.000000  -0.000000   0.000000
   36  H  4  S    0.003859   0.003816  -0.012977  -0.098714  -0.385610
   37  H  4  S   -0.579398   1.880781  -1.096452  -0.325142  -0.000410
   38  H  4  X   -0.006567  -0.013085   0.004583   0.008342  -0.005963
   39  H  4  Y    0.008857  -0.010346   0.007594   0.001228   0.039021
   40  H  4  Z   -0.007329   0.019564  -0.011087   0.004923   0.034349
   41  H  5  S    0.003859  -0.003816  -0.012977  -0.098714  -0.385610
   42  H  5  S   -0.579398  -1.880781  -1.096452  -0.325142  -0.000410
   43  H  5  X   -0.006567   0.013085   0.004583   0.008342  -0.005963
   44  H  5  Y    0.008857   0.010346   0.007594   0.001228   0.039021
   45  H  5  Z    0.007329   0.019564   0.011087  -0.004923  -0.034349
   46  H  6  S   -0.004208   0.000000   0.041005  -0.080007   0.788755
   47  H  6  S   -1.150028   0.000000   2.068526   0.185409   0.033642
   48  H  6  X   -0.002957   0.000000  -0.016254  -0.001919   0.004400
   49  H  6  Y   -0.020609   0.000000   0.022071   0.005949  -0.035075
   50  H  6  Z    0.000000   0.000609  -0.000000  -0.000000   0.000000

                     16         17         18         19         20
                    0.6444     0.7388     0.8088     0.8642     0.9070
                     A''        A'         A'         A''        A'  
    1  H  1  S    0.000000  -0.328114   0.873427   0.000000  -0.660714
    2  H  1  S    0.000000   0.356092  -0.640738   0.000000   0.452088
    3  H  1  X    0.000000  -0.114240  -0.114835   0.000000   0.092108
    4  H  1  Y    0.000000  -0.051076   0.166940   0.000000  -0.211981
    5  H  1  Z   -0.012086   0.000000  -0.000000   0.025983   0.000000
    6  O  2  S    0.000000  -0.069446  -0.031341   0.000000   0.030503
    7  O  2  S    0.000000  -0.181136  -0.122950   0.000000   0.100560
    8  O  2  S    0.000000   0.642624   0.268600   0.000000  -0.210440
    9  O  2  X    0.000000  -0.300269  -0.064735   0.000000  -0.066604
   10  O  2  Y    0.000000   0.003021  -0.211539   0.000000   0.277408
   11  O  2  Z   -0.168649   0.000000  -0.000000   0.016976   0.000000
   12  O  2  X    0.000000  -0.030212   0.215919   0.000000  -0.128938
   13  O  2  Y    0.000000   0.200477  -0.266242   0.000000  -0.113058
   14  O  2  Z   -0.250441   0.000000  -0.000000  -0.143254   0.000000
   15  O  2 XX    0.000000   0.083609   0.009941   0.000000   0.016672
   16  O  2 YY    0.000000  -0.046796   0.044867   0.000000  -0.060340
   17  O  2 ZZ    0.000000  -0.036813  -0.054808   0.000000   0.043668
   18  O  2 XY    0.000000   0.011455  -0.068004   0.000000   0.037215
   19  O  2 XZ    0.009219   0.000000  -0.000000  -0.027827   0.000000
   20  O  2 YZ   -0.009782   0.000000  -0.000000  -0.003616   0.000000
   21  C  3  S    0.000000   0.160241  -0.009590   0.000000   0.086881
   22  C  3  S    0.000000   0.451271  -0.021130   0.000000   0.239250
   23  C  3  S    0.000000  -0.241572   0.035739   0.000000  -0.364365
   24  C  3  X    0.000000  -0.919890  -0.217268   0.000000   0.085346
   25  C  3  Y    0.000000   0.083589  -0.543771   0.000000  -0.639326
   26  C  3  Z   -0.252557   0.000000  -0.000000  -0.851639   0.000000
   27  C  3  X    0.000000   1.211117   0.233044   0.000000  -0.172292
   28  C  3  Y    0.000000  -0.285541   1.394160   0.000000   1.286845
   29  C  3  Z    1.428857   0.000000  -0.000000   1.850973   0.000000
   30  C  3 XX    0.000000  -0.149925  -0.127667   0.000000   0.085638
   31  C  3 YY    0.000000   0.078106  -0.019608   0.000000  -0.269125
   32  C  3 ZZ    0.000000   0.071820   0.147275   0.000000   0.183488
   33  C  3 XY    0.000000  -0.039070   0.230115   0.000000   0.074147
   34  C  3 XZ   -0.036788   0.000000  -0.000000   0.232862   0.000000
   35  C  3 YZ   -0.148732   0.000000  -0.000000   0.260248   0.000000
   36  H  4  S    0.685151  -0.102502   0.129203  -0.256152   0.001486
   37  H  4  S    0.107092  -0.006444  -0.629912   1.533742  -0.505020
   38  H  4  X    0.007641  -0.060720   0.049896  -0.108213   0.022569
   39  H  4  Y    0.039443   0.014377   0.044740  -0.138743  -0.034806
   40  H  4  Z   -0.000324  -0.023603  -0.104029   0.172105  -0.067663
   41  H  5  S   -0.685151  -0.102502   0.129203   0.256152   0.001486
   42  H  5  S   -0.107092  -0.006444  -0.629912  -1.533742  -0.505020
   43  H  5  X   -0.007641  -0.060720   0.049896   0.108213   0.022569
   44  H  5  Y   -0.039443   0.014377   0.044740   0.138743  -0.034806
   45  H  5  Z   -0.000324   0.023603   0.104029   0.172105   0.067663
   46  H  6  S    0.000000  -0.086288  -0.063712   0.000000  -0.389035
   47  H  6  S    0.000000  -0.287951   1.089138   0.000000   1.492437
   48  H  6  X    0.000000  -0.020364  -0.124655   0.000000  -0.086787
   49  H  6  Y    0.000000  -0.056286   0.102878   0.000000   0.258131
   50  H  6  Z    0.064642   0.000000  -0.000000  -0.067000   0.000000

                     21         22         23         24         25
                    0.9128     1.1185     1.1538     1.1684     1.2733
                     A'         A'         A''        A'         A'  
    1  H  1  S   -0.371247  -0.303507  -0.000000   0.139569   0.055386
    2  H  1  S    0.507989  -0.334748  -0.000000  -0.288195   0.863492
    3  H  1  X    0.034483  -0.048465  -0.000000   0.216205   0.136131
    4  H  1  Y   -0.094744   0.285309  -0.000000   0.077019  -0.197326
    5  H  1  Z    0.000000   0.000000   0.008708  -0.000000  -0.000000
    6  O  2  S    0.044113  -0.024799  -0.000000  -0.077560   0.063921
    7  O  2  S    0.178150  -0.000064  -0.000000  -0.281851   0.240256
    8  O  2  S    0.045488   0.558305  -0.000000  -0.468526   0.164253
    9  O  2  X    0.118670  -0.117903  -0.000000  -0.007809  -0.720488
   10  O  2  Y    0.079871  -0.557750  -0.000000   0.108342  -0.028779
   11  O  2  Z    0.000000   0.000000   0.574232  -0.000000  -0.000000
   12  O  2  X    0.127724   0.067898  -0.000000  -0.606977   1.674915
   13  O  2  Y    0.036556   0.842778  -0.000000  -0.296386  -0.168760
   14  O  2  Z    0.000000   0.000000  -0.478107  -0.000000  -0.000000
   15  O  2 XX    0.004267  -0.017824  -0.000000  -0.038902  -0.017697
   16  O  2 YY   -0.026077   0.020327  -0.000000   0.022817  -0.011342
   17  O  2 ZZ    0.021810  -0.002503  -0.000000   0.016086   0.029040
   18  O  2 XY    0.023711   0.000855  -0.000000   0.017117   0.006143
   19  O  2 XZ    0.000000   0.000000  -0.027314  -0.000000  -0.000000
   20  O  2 YZ    0.000000   0.000000  -0.014576  -0.000000  -0.000000
   21  C  3  S   -0.214994  -0.009423  -0.000000  -0.792351  -0.163821
   22  C  3  S   -0.697555  -0.020149  -0.000000  -1.599671  -0.325973
   23  C  3  S    0.892813  -0.215396  -0.000000   4.760329  -0.368516
   24  C  3  X   -0.155346   0.134335  -0.000000  -0.258731   0.234299
   25  C  3  Y   -0.078373  -0.077859  -0.000000  -0.046484   0.118745
   26  C  3  Z    0.000000   0.000000   0.014292  -0.000000  -0.000000
   27  C  3  X    0.421859  -0.053323  -0.000000   0.339857   0.898921
   28  C  3  Y    0.099629   0.119864  -0.000000   0.092703  -0.274042
   29  C  3  Z    0.000000   0.000000  -0.098698  -0.000000  -0.000000
   30  C  3 XX   -0.125088  -0.072598  -0.000000   0.050817  -0.429498
   31  C  3 YY    0.006945  -0.171920  -0.000000  -0.044715   0.242282
   32  C  3 ZZ    0.118143   0.244517  -0.000000  -0.006101   0.187216
   33  C  3 XY   -0.008668  -0.237613  -0.000000  -0.138474   0.028228
   34  C  3 XZ    0.000000   0.000000   0.312257  -0.000000  -0.000000
   35  C  3 YZ    0.000000   0.000000  -0.284389  -0.000000  -0.000000
   36  H  4  S    0.617581  -0.041602  -0.057444  -0.523161  -0.083074
   37  H  4  S   -0.722003   0.012208  -0.074507  -0.815477  -0.102272
   38  H  4  X    0.025953  -0.124532  -0.250283   0.061737  -0.022796
   39  H  4  Y    0.089836  -0.127718   0.141416   0.001227  -0.009587
   40  H  4  Z   -0.192065  -0.125801  -0.021390  -0.069901   0.016584
   41  H  5  S    0.617581  -0.041602   0.057444  -0.523161  -0.083074
   42  H  5  S   -0.722003   0.012208   0.074507  -0.815477  -0.102272
   43  H  5  X    0.025953  -0.124532   0.250283   0.061737  -0.022796
   44  H  5  Y    0.089836  -0.127718  -0.141416   0.001227  -0.009587
   45  H  5  Z    0.192065   0.125801  -0.021390   0.069901  -0.016584
   46  H  6  S    0.518214   0.013947  -0.000000  -0.577530  -0.193056
   47  H  6  S   -0.413680   0.213483  -0.000000  -0.800095  -0.265834
   48  H  6  X    0.039911   0.242224  -0.000000   0.068764  -0.132844
   49  H  6  Y   -0.161036   0.113678  -0.000000  -0.048530  -0.065188
   50  H  6  Z    0.000000   0.000000   0.221981  -0.000000  -0.000000

                     26         27         28         29         30
                    1.3301     1.4596     1.6009     1.6720     1.6839
                     A''        A'         A''        A'         A'' 
    1  H  1  S    0.000000  -0.871755  -0.000000  -0.480810  -0.000000
    2  H  1  S    0.000000  -0.340487  -0.000000  -0.156051  -0.000000
    3  H  1  X    0.000000  -0.434441  -0.000000   0.543527  -0.000000
    4  H  1  Y    0.000000   0.010745  -0.000000   0.401067  -0.000000
    5  H  1  Z    0.253344   0.000000   0.960198  -0.000000  -0.040727
    6  O  2  S    0.000000   0.022471  -0.000000  -0.075719  -0.000000
    7  O  2  S    0.000000   0.091953  -0.000000  -0.173276  -0.000000
    8  O  2  S    0.000000  -0.017401  -0.000000   0.377981  -0.000000
    9  O  2  X    0.000000   0.077127  -0.000000  -0.070028  -0.000000
   10  O  2  Y    0.000000  -0.392652  -0.000000  -0.238901  -0.000000
   11  O  2  Z   -0.717052   0.000000   0.210564  -0.000000  -0.004660
   12  O  2  X    0.000000  -0.503890  -0.000000  -0.569420  -0.000000
   13  O  2  Y    0.000000   1.478971  -0.000000   0.629354  -0.000000
   14  O  2  Z    1.004193   0.000000  -0.810011  -0.000000   0.023559
   15  O  2 XX    0.000000  -0.000304  -0.000000   0.003377  -0.000000
   16  O  2 YY    0.000000  -0.067308  -0.000000   0.010452  -0.000000
   17  O  2 ZZ    0.000000   0.067612  -0.000000  -0.013829  -0.000000
   18  O  2 XY    0.000000  -0.078406  -0.000000   0.082504  -0.000000
   19  O  2 XZ   -0.082908   0.000000  -0.019796  -0.000000   0.002873
   20  O  2 YZ    0.008162   0.000000   0.149265  -0.000000  -0.010152
   21  C  3  S    0.000000  -0.358191  -0.000000   0.190559  -0.000000
   22  C  3  S    0.000000  -0.730451  -0.000000   0.395623  -0.000000
   23  C  3  S    0.000000   1.891397  -0.000000  -0.532604  -0.000000
   24  C  3  X    0.000000   0.160165  -0.000000  -0.167338  -0.000000
   25  C  3  Y    0.000000  -0.075349  -0.000000  -0.001238  -0.000000
   26  C  3  Z    0.107526   0.000000   0.015208  -0.000000  -0.003939
   27  C  3  X    0.000000  -0.322617  -0.000000  -0.236254  -0.000000
   28  C  3  Y    0.000000  -0.374935  -0.000000  -0.284644  -0.000000
   29  C  3  Z   -0.666511   0.000000   0.495795  -0.000000   0.003732
   30  C  3 XX    0.000000   0.034894  -0.000000   0.120634  -0.000000
   31  C  3 YY    0.000000   0.020698  -0.000000   0.059788  -0.000000
   32  C  3 ZZ    0.000000  -0.055592  -0.000000  -0.180422  -0.000000
   33  C  3 XY    0.000000   0.527143  -0.000000  -0.025066  -0.000000
   34  C  3 XZ    0.472299   0.000000  -0.052326  -0.000000   0.000245
   35  C  3 YZ   -0.080716   0.000000   0.223773  -0.000000  -0.008934
   36  H  4  S   -0.010927  -0.270926   0.185714   0.207156  -0.000618
   37  H  4  S   -0.251690  -0.139157   0.178369   0.152283   0.001067
   38  H  4  X   -0.123960   0.029838   0.119942   0.343721  -0.007789
   39  H  4  Y    0.064502   0.120777  -0.002361  -0.165957  -0.526687
   40  H  4  Z   -0.031059   0.062131   0.036579   0.037279  -0.311130
   41  H  5  S    0.010927  -0.270926  -0.185714   0.207156   0.000618
   42  H  5  S    0.251690  -0.139157  -0.178369   0.152283  -0.001067
   43  H  5  X    0.123960   0.029838  -0.119942   0.343721   0.007789
   44  H  5  Y   -0.064502   0.120777   0.002361  -0.165957   0.526687
   45  H  5  Z   -0.031059  -0.062131   0.036579  -0.037279  -0.311130
   46  H  6  S    0.000000  -0.199855  -0.000000  -0.018422  -0.000000
   47  H  6  S    0.000000  -0.258080  -0.000000   0.032249  -0.000000
   48  H  6  X    0.000000  -0.107968  -0.000000  -0.386023  -0.000000
   49  H  6  Y    0.000000  -0.034054  -0.000000  -0.196314  -0.000000
   50  H  6  Z    0.086072   0.000000   0.113078  -0.000000   0.589850

                     31         32         33         34         35
                    1.8727     1.9153     1.9407     1.9619     2.0180
                     A''        A'         A'         A''        A'  
    1  H  1  S   -0.000000   0.078116  -0.464957  -0.000000  -0.530481
    2  H  1  S   -0.000000  -0.085145   0.071727  -0.000000  -0.085925
    3  H  1  X   -0.000000  -0.097512   0.071207  -0.000000   0.167953
    4  H  1  Y   -0.000000   0.005663   0.233017  -0.000000   0.341629
    5  H  1  Z    0.091331  -0.000000   0.000000  -0.276018  -0.000000
    6  O  2  S   -0.000000  -0.080691  -0.243971  -0.000000  -0.425561
    7  O  2  S   -0.000000  -0.132712  -0.440213  -0.000000  -0.913758
    8  O  2  S   -0.000000   0.769044   1.865458  -0.000000   2.007889
    9  O  2  X   -0.000000   0.319587   0.402158  -0.000000  -0.088790
   10  O  2  Y   -0.000000   0.184121   0.009811  -0.000000   0.159708
   11  O  2  Z    0.073642  -0.000000   0.000000   0.181624  -0.000000
   12  O  2  X   -0.000000   0.064571   0.110356  -0.000000   0.326040
   13  O  2  Y   -0.000000  -0.380029   0.486983  -0.000000   0.456069
   14  O  2  Z   -0.433100  -0.000000   0.000000   0.053688  -0.000000
   15  O  2 XX   -0.000000  -0.014844  -0.054116  -0.000000  -0.076274
   16  O  2 YY   -0.000000  -0.008564   0.023756  -0.000000  -0.060928
   17  O  2 ZZ   -0.000000   0.023408   0.030360  -0.000000   0.137202
   18  O  2 XY   -0.000000  -0.004619   0.047409  -0.000000  -0.039814
   19  O  2 XZ    0.091718  -0.000000   0.000000  -0.151446  -0.000000
   20  O  2 YZ    0.041946  -0.000000   0.000000  -0.020266  -0.000000
   21  C  3  S   -0.000000  -0.026311   0.034905  -0.000000   0.175915
   22  C  3  S   -0.000000  -0.080852   0.021673  -0.000000   0.326803
   23  C  3  S   -0.000000  -0.101965  -0.696765  -0.000000  -1.457237
   24  C  3  X   -0.000000   0.131484   0.219205  -0.000000   0.080339
   25  C  3  Y   -0.000000  -0.063570   0.057873  -0.000000  -0.106713
   26  C  3  Z   -0.035967  -0.000000   0.000000  -0.145898  -0.000000
   27  C  3  X   -0.000000   0.602906   1.092333  -0.000000   0.244425
   28  C  3  Y   -0.000000   1.138512  -0.663530  -0.000000  -0.322201
   29  C  3  Z    1.180579  -0.000000   0.000000   0.300812  -0.000000
   30  C  3 XX   -0.000000  -0.397000  -0.714443  -0.000000  -0.443554
   31  C  3 YY   -0.000000  -0.230353   0.657540  -0.000000  -0.107476
   32  C  3 ZZ   -0.000000   0.627353   0.056903  -0.000000   0.551031
   33  C  3 XY   -0.000000   0.158961  -0.259025  -0.000000   0.470408
   34  C  3 XZ   -0.161087  -0.000000   0.000000   0.740982  -0.000000
   35  C  3 YZ    0.343063  -0.000000   0.000000   0.545381  -0.000000
   36  H  4  S    0.421698  -0.460783   0.091257   0.538750   0.003355
   37  H  4  S    0.326065  -0.138799   0.037700  -0.193747   0.297389
   38  H  4  X   -0.468576  -0.140189  -0.260400   0.402683   0.062523
   39  H  4  Y   -0.011719  -0.350589   0.190744   0.110814   0.256173
   40  H  4  Z   -0.441840   0.000783  -0.015207  -0.124589   0.224297
   41  H  5  S   -0.421698  -0.460783   0.091257  -0.538750   0.003355
   42  H  5  S   -0.326065  -0.138799   0.037700   0.193747   0.297389
   43  H  5  X    0.468576  -0.140189  -0.260400  -0.402683   0.062523
   44  H  5  Y    0.011719  -0.350589   0.190744  -0.110814   0.256173
   45  H  5  Z   -0.441840  -0.000783   0.015207  -0.124589  -0.224297
   46  H  6  S   -0.000000   0.533825  -0.618663  -0.000000   0.341298
   47  H  6  S   -0.000000   0.207824  -0.078418  -0.000000  -0.156419
   48  H  6  X   -0.000000  -0.381051  -0.346682  -0.000000   0.583508
   49  H  6  Y   -0.000000  -0.385789   0.203652  -0.000000   0.058983
   50  H  6  Z   -0.484706  -0.000000   0.000000   0.062556  -0.000000

                     36         37         38         39         40
                    2.1488     2.3025     2.3769     2.4093     2.5499
                     A'         A'         A''        A'         A'  
    1  H  1  S   -0.122890  -0.133227  -0.000000  -0.207444  -0.580325
    2  H  1  S   -0.027702  -0.012081  -0.000000   0.114753  -0.404068
    3  H  1  X   -0.680987  -0.222375  -0.000000   0.114482  -0.443409
    4  H  1  Y   -0.173176   0.372161  -0.000000  -0.264616   1.068102
    5  H  1  Z    0.000000   0.000000  -0.140458  -0.000000  -0.000000
    6  O  2  S   -0.417839  -0.191952  -0.000000  -0.499641   0.201713
    7  O  2  S   -0.895093  -0.420285  -0.000000  -1.113408   0.508604
    8  O  2  S    1.804074   0.970341  -0.000000   1.575816   0.377394
    9  O  2  X   -0.102740  -0.387273  -0.000000  -0.150385  -0.230464
   10  O  2  Y    0.084293   0.193858  -0.000000  -0.105611   0.668080
   11  O  2  Z    0.000000   0.000000  -0.129094  -0.000000  -0.000000
   12  O  2  X    1.101918   0.392808  -0.000000   0.488914  -0.213888
   13  O  2  Y   -0.066661  -0.014285  -0.000000   0.182072   0.168585
   14  O  2  Z    0.000000   0.000000   0.231351  -0.000000  -0.000000
   15  O  2 XX   -0.077224  -0.045759  -0.000000  -0.043323   0.035954
   16  O  2 YY   -0.044517  -0.029657  -0.000000   0.007046  -0.147465
   17  O  2 ZZ    0.121741   0.075416  -0.000000   0.036277   0.111510
   18  O  2 XY    0.020869   0.098552  -0.000000  -0.134788  -0.002270
   19  O  2 XZ    0.000000   0.000000   0.143914  -0.000000  -0.000000
   20  O  2 YZ    0.000000   0.000000   0.103493  -0.000000  -0.000000
   21  C  3  S    0.034322   0.059394  -0.000000   0.166895  -0.062482
   22  C  3  S    0.024225   0.141315  -0.000000   0.351722  -0.124547
   23  C  3  S   -1.394158  -0.264786  -0.000000  -0.814958   0.346487
   24  C  3  X    0.317119   0.309313  -0.000000   0.334003   0.040160
   25  C  3  Y    0.078613  -0.013041  -0.000000   0.063227   0.301189
   26  C  3  Z    0.000000   0.000000  -0.159599  -0.000000  -0.000000
   27  C  3  X    0.140505   0.541699  -0.000000   0.609633  -0.214903
   28  C  3  Y    0.628294  -0.130395  -0.000000   0.319791   0.455231
   29  C  3  Z    0.000000   0.000000  -0.673320  -0.000000  -0.000000
   30  C  3 XX   -0.391903   0.658523  -0.000000   0.265452  -0.079218
   31  C  3 YY    0.159529  -0.774986  -0.000000   0.433241   0.293978
   32  C  3 ZZ    0.232374   0.116462  -0.000000  -0.698693  -0.214760
   33  C  3 XY   -0.512821  -0.277443  -0.000000   0.461898   0.451878
   34  C  3 XZ    0.000000   0.000000  -0.547706  -0.000000  -0.000000
   35  C  3 YZ    0.000000   0.000000   0.914316  -0.000000  -0.000000
   36  H  4  S    0.093324   0.008554  -0.008430   0.053032  -0.178423
   37  H  4  S   -0.082700  -0.043383  -0.342407  -0.139291  -0.138096
   38  H  4  X    0.505409  -0.296333  -0.298367  -0.344277   0.016814
   39  H  4  Y   -0.110871   0.475740   0.483722  -0.311959  -0.245339
   40  H  4  Z   -0.001021  -0.029544   0.099956  -0.535877  -0.321115
   41  H  5  S    0.093324   0.008554   0.008430   0.053032  -0.178423
   42  H  5  S   -0.082700  -0.043383   0.342407  -0.139291  -0.138096
   43  H  5  X    0.505409  -0.296333   0.298367  -0.344277   0.016814
   44  H  5  Y   -0.110871   0.475740  -0.483722  -0.311959  -0.245339
   45  H  5  Z    0.001021   0.029544   0.099956   0.535877   0.321115
   46  H  6  S    0.123039   0.128108  -0.000000  -0.002712   0.207230
   47  H  6  S    0.547643  -0.187286  -0.000000   0.175485   0.305753
   48  H  6  X   -0.128871  -0.610931  -0.000000   0.096824   0.137433
   49  H  6  Y    0.046192  -0.338387  -0.000000  -0.148376   0.347136
   50  H  6  Z    0.000000   0.000000   0.955961  -0.000000  -0.000000

                     41         42         43         44         45
                    2.7666     2.7813     2.7957     3.3158     3.4229
                     A''        A'         A'         A''        A'' 
    1  H  1  S    0.000000   0.133533   0.181969  -0.000000   0.000000
    2  H  1  S    0.000000   0.069900  -0.012966  -0.000000   0.000000
    3  H  1  X    0.000000   0.143439   0.203154  -0.000000   0.000000
    4  H  1  Y    0.000000  -0.116944  -0.222863  -0.000000   0.000000
    5  H  1  Z   -0.142506  -0.000000   0.000000  -0.430885   0.311921
    6  O  2  S    0.000000   0.161803  -0.073944  -0.000000   0.000000
    7  O  2  S    0.000000   0.349949  -0.188966  -0.000000   0.000000
    8  O  2  S    0.000000  -0.586334  -0.139138  -0.000000   0.000000
    9  O  2  X    0.000000   0.229180  -0.016482  -0.000000   0.000000
   10  O  2  Y    0.000000  -0.050490  -0.139447  -0.000000   0.000000
   11  O  2  Z    0.053569  -0.000000   0.000000  -0.035624  -0.006802
   12  O  2  X    0.000000  -0.246314  -0.056748  -0.000000   0.000000
   13  O  2  Y    0.000000  -0.137508  -0.145082  -0.000000   0.000000
   14  O  2  Z   -0.060218  -0.000000   0.000000   0.384350   0.067721
   15  O  2 XX    0.000000   0.056857  -0.021949  -0.000000   0.000000
   16  O  2 YY    0.000000  -0.034074  -0.070533  -0.000000   0.000000
   17  O  2 ZZ    0.000000  -0.022783   0.092482  -0.000000   0.000000
   18  O  2 XY    0.000000  -0.026313  -0.084846  -0.000000   0.000000
   19  O  2 XZ   -0.133976  -0.000000   0.000000   0.408499   0.941047
   20  O  2 YZ    0.108186  -0.000000   0.000000   0.941143  -0.446627
   21  C  3  S    0.000000   0.470502  -0.217421  -0.000000   0.000000
   22  C  3  S    0.000000   1.172315  -0.532391  -0.000000   0.000000
   23  C  3  S    0.000000   1.720932  -0.675608  -0.000000   0.000000
   24  C  3  X    0.000000   0.535399  -0.371601  -0.000000   0.000000
   25  C  3  Y    0.000000   0.587449   1.240153  -0.000000   0.000000
   26  C  3  Z    1.376760  -0.000000   0.000000  -0.077222   0.249959
   27  C  3  X    0.000000   0.202085  -0.168539  -0.000000   0.000000
   28  C  3  Y    0.000000   0.368248   0.911270  -0.000000   0.000000
   29  C  3  Z    1.050579  -0.000000   0.000000  -0.270728   0.046132
   30  C  3 XX    0.000000  -0.636944   0.354880  -0.000000   0.000000
   31  C  3 YY    0.000000  -0.160534  -1.061719  -0.000000   0.000000
   32  C  3 ZZ    0.000000   0.797478   0.706839  -0.000000   0.000000
   33  C  3 XY    0.000000   0.242714   0.655853  -0.000000   0.000000
   34  C  3 XZ    0.692454  -0.000000   0.000000   0.388417   0.665174
   35  C  3 YZ    1.111494  -0.000000   0.000000  -0.289557   0.243597
   36  H  4  S    1.268501  -1.079886  -0.290238  -0.086077   0.349214
   37  H  4  S    0.636029  -0.479838  -0.158575  -0.106510   0.023394
   38  H  4  X   -0.443911   0.467991   0.041112   0.171257   0.095133
   39  H  4  Y   -0.534489   0.564107   0.118303  -0.069600  -0.150922
   40  H  4  Z    0.928596  -0.841247  -0.148717  -0.017126   0.247125
   41  H  5  S   -1.268501  -1.079886  -0.290238   0.086077  -0.349214
   42  H  5  S   -0.636029  -0.479838  -0.158575   0.106510  -0.023394
   43  H  5  X    0.443911   0.467991   0.041112  -0.171257  -0.095133
   44  H  5  Y    0.534489   0.564107   0.118303   0.069600   0.150922
   45  H  5  Z    0.928596   0.841247   0.148717  -0.017126   0.247125
   46  H  6  S    0.000000  -0.150178   1.713621  -0.000000   0.000000
   47  H  6  S    0.000000  -0.083123   0.789069  -0.000000   0.000000
   48  H  6  X    0.000000   0.112103  -0.650170  -0.000000   0.000000
   49  H  6  Y    0.000000  -0.239491   1.460200  -0.000000   0.000000
   50  H  6  Z    0.007166  -0.000000   0.000000  -0.135262  -0.022724

                     46         47         48
                    3.4454     3.6295     4.1134
                     A'         A'         A'  
    1  H  1  S   -0.462097  -0.099141   1.693067
    2  H  1  S    0.016596   0.139201   0.332485
    3  H  1  X   -0.367785   0.257983   0.417377
    4  H  1  Y    0.036010   0.201460  -1.019125
    5  H  1  Z   -0.000000   0.000000  -0.000000
    6  O  2  S   -0.245320  -0.196015   0.043773
    7  O  2  S   -0.470283  -0.365619   0.017734
    8  O  2  S    1.376189   1.211097  -1.341172
    9  O  2  X   -0.060448   0.015518   0.174513
   10  O  2  Y    0.059621   0.067019  -0.381893
   11  O  2  Z   -0.000000   0.000000  -0.000000
   12  O  2  X    0.626599   0.579367   0.564909
   13  O  2  Y    0.488688  -0.109647  -1.002193
   14  O  2  Z   -0.000000   0.000000  -0.000000
   15  O  2 XX    0.403647   1.000676   0.393385
   16  O  2 YY    0.418359  -0.571203  -0.979711
   17  O  2 ZZ   -0.822006  -0.429473   0.586325
   18  O  2 XY    0.635915  -0.520064   0.815352
   19  O  2 XZ   -0.000000   0.000000  -0.000000
   20  O  2 YZ   -0.000000   0.000000  -0.000000
   21  C  3  S   -0.088406  -0.038631  -0.005383
   22  C  3  S   -0.253836  -0.187760  -0.026800
   23  C  3  S   -0.628908  -0.733687   0.030927
   24  C  3  X    0.406917   0.447366   0.075580
   25  C  3  Y    0.192118  -0.030123  -0.038224
   26  C  3  Z   -0.000000   0.000000  -0.000000
   27  C  3  X    0.253593   0.465096   0.140598
   28  C  3  Y    0.090172  -0.096465   0.068637
   29  C  3  Z   -0.000000   0.000000  -0.000000
   30  C  3 XX   -0.356516  -0.431917  -0.128396
   31  C  3 YY    0.053619   0.196518   0.193568
   32  C  3 ZZ    0.302898   0.235398  -0.065172
   33  C  3 XY    0.499005  -0.447392   0.072636
   34  C  3 XZ   -0.000000   0.000000  -0.000000
   35  C  3 YZ   -0.000000   0.000000  -0.000000
   36  H  4  S   -0.153109   0.089660  -0.006167
   37  H  4  S    0.007365   0.048362  -0.046459
   38  H  4  X    0.018870   0.043785  -0.057094
   39  H  4  Y    0.022301   0.036726  -0.064830
   40  H  4  Z   -0.112972   0.112109  -0.039419
   41  H  5  S   -0.153109   0.089660  -0.006167
   42  H  5  S    0.007365   0.048362  -0.046459
   43  H  5  X    0.018870   0.043785  -0.057094
   44  H  5  Y    0.022301   0.036726  -0.064830
   45  H  5  Z    0.112972  -0.112109   0.039419
   46  H  6  S    0.317373  -0.179709  -0.104580
   47  H  6  S    0.120281  -0.049637  -0.075594
   48  H  6  X    0.093759  -0.085515   0.155273
   49  H  6  Y    0.278803  -0.146110  -0.053068
   50  H  6  Z   -0.000000   0.000000  -0.000000
 ...... END OF RHF CALCULATION ......
 STEP CPU TIME =     1.05 TOTAL CPU TIME =        1.1 (    0.0 MIN)
 TOTAL WALL CLOCK TIME=        2.8 SECONDS, CPU UTILIZATION IS  39.43%

     ----------------------------------------------------------------
     PROPERTY VALUES FOR THE RHF   SELF-CONSISTENT FIELD WAVEFUNCTION
     ----------------------------------------------------------------

          -----------------
          ENERGY COMPONENTS
          -----------------

         WAVEFUNCTION NORMALIZATION =       1.0000000000

                ONE ELECTRON ENERGY =    -237.8023145031
                TWO ELECTRON ENERGY =      81.9653941652
           NUCLEAR REPULSION ENERGY =      40.7873239319
                                      ------------------
                       TOTAL ENERGY =    -115.0495964060

 ELECTRON-ELECTRON POTENTIAL ENERGY =      81.9653941652
  NUCLEUS-ELECTRON POTENTIAL ENERGY =    -352.8459130783
   NUCLEUS-NUCLEUS POTENTIAL ENERGY =      40.7873239319
                                      ------------------
             TOTAL POTENTIAL ENERGY =    -230.0931949812
               TOTAL KINETIC ENERGY =     115.0435985752
                 VIRIAL RATIO (V/T) =       2.0000521353

          ---------------------------------------
          MULLIKEN AND LOWDIN POPULATION ANALYSES
          ---------------------------------------

               ----- POPULATIONS IN EACH AO -----
                             MULLIKEN      LOWDIN
              1  H  1  S      0.70295     0.55820
              2  H  1  S      0.06059     0.15651
              3  H  1  X      0.02044     0.04645
              4  H  1  Y      0.04121     0.07403
              5  H  1  Z      0.02270     0.06538
              6  O  2  S      2.00231     1.90274
              7  O  2  S      0.82526     0.59522
              8  O  2  S      0.88469     0.47968
              9  O  2  X      0.80412     0.74141
             10  O  2  Y      0.90278     0.85000
             11  O  2  Z      1.13469     1.09615
             12  O  2  X      0.49491     0.54411
             13  O  2  Y      0.52072     0.62551
             14  O  2  Z      0.78976     0.75088
             15  O  2 XX      0.00253     0.18702
             16  O  2 YY      0.00713     0.18631
             17  O  2 ZZ      0.00350     0.17469
             18  O  2 XY      0.00155     0.00754
             19  O  2 XZ      0.00070     0.00279
             20  O  2 YZ      0.00000     0.00017
             21  C  3  S      2.00410     1.87103
             22  C  3  S      0.65093     0.46564
             23  C  3  S      0.35288     0.28513
             24  C  3  X      0.56155     0.51186
             25  C  3  Y      0.71395     0.63887
             26  C  3  Z      0.69994     0.62612
             27  C  3  X      0.13776     0.24980
             28  C  3  Y      0.31668     0.43047
             29  C  3  Z      0.28366     0.42864
             30  C  3 XX      0.01617     0.17711
             31  C  3 YY      0.03094     0.14984
             32  C  3 ZZ      0.02423     0.14901
             33  C  3 XY      0.02941     0.05489
             34  C  3 XZ      0.01090     0.07581
             35  C  3 YZ      0.00000     0.03165
             36  H  4  S      0.77349     0.62233
             37  H  4  S      0.18648     0.25197
             38  H  4  X      0.00468     0.01393
             39  H  4  Y      0.00905     0.02052
             40  H  4  Z      0.01631     0.03143
             41  H  5  S      0.77349     0.62233
             42  H  5  S      0.18648     0.25197
             43  H  5  X      0.00468     0.01393
             44  H  5  Y      0.00905     0.02052
             45  H  5  Z      0.01631     0.03143
             46  H  6  S      0.76829     0.62215
             47  H  6  S      0.16610     0.23991
             48  H  6  X      0.00423     0.01308
             49  H  6  Y      0.01976     0.03782
             50  H  6  Z      0.00598     0.01601

          ----- MULLIKEN ATOMIC OVERLAP POPULATIONS -----
          (OFF-DIAGONAL ELEMENTS NEED TO BE MULTIPLIED BY 2)

             1           2           3           4           5

    1    0.5287948
    2    0.3643672   7.7746871
    3   -0.0421346   0.3235956   4.3031761
    4   -0.0054953  -0.0316569   0.4155349   0.6819469
    5   -0.0054953  -0.0316569   0.4155349  -0.0396228   0.6819469
    6    0.0078572  -0.0246992   0.4174172  -0.0307098  -0.0307098

             6

    6    0.6251954

          TOTAL MULLIKEN AND LOWDIN ATOMIC POPULATIONS
       ATOM         MULL.POP.    CHARGE          LOW.POP.     CHARGE
    1 H             0.847894    0.152106         0.900567    0.099433
    2 O             8.374637   -0.374637         8.144217   -0.144217
    3 C             5.833124    0.166876         6.145873   -0.145873
    4 H             0.989997    0.010003         0.940186    0.059814
    5 H             0.989997    0.010003         0.940186    0.059814
    6 H             0.964351    0.035649         0.928970    0.071030

          MULLIKEN SPHERICAL HARMONIC POPULATIONS
       ATOM           S       P       D      F      G      H      I    TOTAL
    1 H             0.76    0.08    0.00   0.00   0.00   0.00   0.00    0.85
    2 O             3.71    4.65    0.02   0.00   0.00   0.00   0.00    8.37
    3 C             3.01    2.71    0.11   0.00   0.00   0.00   0.00    5.83
    4 H             0.96    0.03    0.00   0.00   0.00   0.00   0.00    0.99
    5 H             0.96    0.03    0.00   0.00   0.00   0.00   0.00    0.99
    6 H             0.93    0.03    0.00   0.00   0.00   0.00   0.00    0.96

          ---------------------
          ELECTROSTATIC MOMENTS
          ---------------------

 POINT   1           X           Y           Z (BOHR)    CHARGE
                -0.015103    0.012839    0.000000        0.00 (A.U.)
         DX          DY          DZ         /D/  (DEBYE)
     0.877373    1.502112    0.000000    1.739576
 ...... END OF PROPERTY EVALUATION ......
 STEP CPU TIME =     0.01 TOTAL CPU TIME =        1.1 (    0.0 MIN)
 TOTAL WALL CLOCK TIME=        2.8 SECONDS, CPU UTILIZATION IS  39.64%

 OCCUPATIONALLY RESTRICTED MULTIPLE ACTIVE SPACE CI OPTIONS
                                    NRNFG   NPFLG
 INTEGRAL TRANSFORMATION              1       0
 DIAGONALIZE HAMILTONIAN              1       0
 FORM 1E- DENSITY MATRIX              1       0
 FORM 2E- DENSITY MATRIX              0       0

     ------------------------------------------------------------
       DIRECT DETERMINANT ORMAS-CI INPUT SORTER
       PROGRAM WRITTEN BY JOE IVANIC AND MIKE SCHMIDT
       ORMAS = OCCUPATION RESTRICTED MULTIPLE ACTIVE SPACE
     ------------------------------------------------------------

 THE POINT GROUP                  =   CS      
 THE STATE SYMMETRY               =   A'      
 NUMBER OF CORE ORBITALS          =    2
 NUMBER OF ACTIVE ORBITALS        =   46
 NUMBER OF ALPHA ELECTRONS        =    9 (   7 ACTIVE)
 NUMBER OF BETA ELECTRONS         =    9 (   7 ACTIVE)
 NUMBER OF OCCUPIED ORBITALS      =   48

 NUMBER OF CI STATES REQUESTED    =    3
 NUMBER OF CI STARTING VECTORS    =    3
 MAX. NO. OF CI EXPANSION VECTORS =   10
 SIZE OF INITIAL CI GUESS MATRIX  =  300

 MAX. NO. OF CI ITERS/STATE       =  100
 CI DIAGONALIZATION CRITERION     = 1.00E-06
 CI PROPERTIES WILL BE FOUND FOR ROOT NUMBER   1
 1E- DENSITY MATRIX OPTIONS (NFLGDM) ARE 1 0 0

 CORRELATION ENERGY ANALYSIS      =    F

 FULLY DIRECT OPTION              =    T

 CALC. OF DAVIDSON Q CORRECTION   =    T

 BLOCK SPACE MIXING IN NO DIAG    =    F

 SYMMETRIES FOR THE   2 CORE,  46 ACTIVE ARE

     CORE= A'    A'  

   ACTIVE= A'    A'    A'    A''   A'    A'    A''   A'    A'    A'' 
           A'    A'    A'    A''   A'    A'    A''   A'    A'    A'  
           A''   A'    A'    A''   A'    A''   A'    A''   A''   A'  
           A'    A''   A'    A'    A'    A''   A'    A'    A''   A'  
           A'    A''   A''   A'    A'    A'  

 THE NUMBER OF SPACES             =   2
 EACH SPACE STARTS AT ORBITAL     =   3  10
 NO OF ORBITALS IN EACH SPACE     =   7  39
 MIN NO OF ELECS IN EACH SPACE    =  12   0
 MAX NO OF ELECS IN EACH SPACE    =  14   2

 SPACE SPECIFICATIONS HAVE PASSED PRELIMINARY CHECKS

 ALL VALID DETERMINANTS WILL BE EXPRESSED AS PAIRS OF ALPHA AND BETA STRINGS.

 MIN NO OF ALPHA ELECS =    5   0
 MAX NO OF ALPHA ELECS =    7   2

 MIN NO OF BETA  ELECS =    5   0
 MAX NO OF BETA  ELECS =    7   2

     --------------------------------------------
     PARTIAL TWO ELECTRON INTEGRAL TRANSFORMATION
     --------------------------------------------

 NUMBER OF CORE MOLECULAR ORBITALS     =    2
 NUMBER OF OCCUPIED MOLECULAR ORBITALS =   48
 TOTAL NUMBER OF MOLECULAR ORBITALS    =   48
 TOTAL NUMBER OF ATOMIC ORBITALS       =   50
 THRESHOLD FOR KEEPING TRANSFORMED 2E- INTEGRALS = 1.000E-09
 AO INTEGRALS WILL BE CALCULATED IN DIRECT MODE...
 EVALUATING THE FROZEN CORE ENERGY...
 ----- FROZEN CORE ENERGY =      -106.6801884097

 PLAN A: REQUIREMENTS FOR FULLY IN-MEMORY TRANSFORMATION:
 # OF WORDS AVAILABLE =             50000000
 # OF WORDS NEEDED    =              3051098

 CHOOSING IN MEMORY PARTIAL TRANSFORMATION...
 DIRECT TRANSFORMATION SKIPS AO INTEGRAL STORAGE ON DISK.
 TOTAL NUMBER OF TRANSFORMED 2E- INTEGRALS KEPT =       298381
 ... END OF INTEGRAL TRANSFORMATION ...
 STEP CPU TIME =     0.31 TOTAL CPU TIME =        1.4 (    0.0 MIN)
 TOTAL WALL CLOCK TIME=        3.4 SECONDS, CPU UTILIZATION IS  42.01%

     --------------------------------------------------
                 DIRECT DETERMINANT ORMAS-CI 
                PROGRAM WRITTEN BY JOE IVANIC
     --------------------------------------------------

 STORAGE OF BINOMIAL COEFFICIENTS REQUIRES         184 WORDS

 TOTAL NUMBER OF ALPHA GROUPS  =            3
 TOTAL NUMBER OF BETA  GROUPS  =            3

 TOTAL NUMBER OF ALPHA STRINGS =        15835
 TOTAL NUMBER OF BETA  STRINGS =        15835

 STORAGE OF TABLES REQUIRES                     95251 WORDS

 TOTAL NUMBER OF ALPHA-BETA GROUP COMBINATIONS =            9
 OF THESE THE ALLOWED NUMBER OF COMBINATIONS   =            6

 TIME FOR SETTING UP TABLE SET 1 :          0.0

 THE NUMBER OF DETERMINANTS HAVING SPACE SYMMETRY A' 
 IN POINT GROUP CS   WITH SZ=  0.0 IS          53964

 INTEGRAL STORAGE REQUIRES                  616984 WORDS
 EXTRA ORMAS STORAGE REQUIRES              3658388 WORDS
 (EXTRA ORMAS STORAGE INCLUDES THAT FOR MXXPAN = 10)
 TOTAL ORMAS CALCULATION REQUIRES          4370807 WORDS

 INITIAL ORMAS VECTOR GUESS TIME :          0.1
 ORMAS SPIN CALCULATION TIME     :          0.0
 INITIAL ORMAS CI ITERATION TIME :          1.3

 ITERATION      ENERGY           GRADIENT
     0     -115.0530101269     1.17099324
     0     -114.6770682731     0.48810565
     0     -114.6538556764     0.45179990

     1     -115.3731853559     0.18361641
     1     -114.7833336293     0.10405647
     1     -114.7364848348     0.09472138

     2     -115.3826498909     0.03509979
     2     -114.7888276427     0.03958302
     2     -114.7469870699     0.07772107

     3     -115.3830207546     0.01016410
     3     -114.7896307412     0.01697964
     3     -114.7506835406     0.03311586

     4     -115.3830623742     0.00193191
     4     -114.7900695326     0.01342889
     4     -114.7537357626     0.04189332

     5     -115.3830634925     0.00054101
     5     -114.7901708755     0.00670726
     5     -114.7546243737     0.01662908

     6     -115.3830635978     0.00020185
     6     -114.7902248875     0.00629605
     6     -114.7551160837     0.02278714

     7     -115.3830636074     0.00007435
     7     -114.7902468352     0.00315690
     7     -114.7554405021     0.01216649

     8     -115.3830636095     0.00002368
     8     -114.7902595469     0.00327748
     8     -114.7557695006     0.02030128

     9     -115.3830636097     0.00000698
     9     -114.7902655252     0.00164373
     9     -114.7559873308     0.00937275

    10     -115.3830636097     0.00000360
    10     -114.7902684629     0.00154308
    10     -114.7561072379     0.01122533

    11     -115.3830636097     0.00000129
    11     -114.7902699731     0.00090442
    11     -114.7561961020     0.00731168

    12     -115.3830636097     0.00000048
    12     -114.7902709412     0.00092308
    12     -114.7562873784     0.01065862


 CONVERGED STATE    1 ENERGY=     -115.3830636097 IN   12 ITERS

     0     -114.7902709412     0.00092308
     0     -114.7562873784     0.01065862

     1     -114.7902714228     0.00047159
     1     -114.7563498829     0.00541098

     2     -114.7902716424     0.00041602
     2     -114.7563839176     0.00582017

     3     -114.7902719187     0.00017408
     3     -114.7564872308     0.00465222

     4     -114.7902719316     0.00003503
     4     -114.7564969512     0.00103179

     5     -114.7902719325     0.00002014
     5     -114.7564975765     0.00052882

     6     -114.7902719328     0.00001563
     6     -114.7564978119     0.00040780

     7     -114.7902719330     0.00001040
     7     -114.7564979620     0.00039780

     8     -114.7902719331     0.00000865
     8     -114.7564981915     0.00048330

     9     -114.7902719331     0.00000458
     9     -114.7564984589     0.00031170

    10     -114.7902719331     0.00000149
    10     -114.7564985098     0.00011161

    11     -114.7902719331     0.00000094
    11     -114.7564985185     0.00006561


 CONVERGED STATE    2 ENERGY=     -114.7902719331 IN   24 ITERS

     0     -114.7564985185     0.00006561
     1     -114.7564985211     0.00003148
     2     -114.7564985258     0.00006364
     3     -114.7564985287     0.00003108
     4     -114.7564985295     0.00002013
     5     -114.7564985299     0.00001696
     6     -114.7564985303     0.00000940
     7     -114.7564985303     0.00000579
     8     -114.7564985303     0.00000350
     9     -114.7564985304     0.00000319
    10     -114.7564985304     0.00000182
    11     -114.7564985304     0.00000116
    12     -114.7564985304     0.00000089

 CONVERGED STATE    3 ENERGY=     -114.7564985304 IN   37 ITERS

 ALL STATES CONVERGED.
 DETERMINING REFERENCE WEIGHT FOR DAVIDSON + Q CORRECTION

 CI EIGENVECTORS WILL BE LABELED IN GROUP=CS      
 PRINTING CI COEFFICIENTS LARGER THAN  0.050000

 STATE   1  ENERGY=      -115.3830636097  S=  0.00  SZ=  0.00  SPACE SYM=A'  

          ALPHA             |           BETA             | CI COEFFICIENT
 1                    2     | 1                    2     |
----------------------------|----------------------------|---------------
  1  2  3  4  5  6  7       |  1  2  3  4  5  6  7       |   0.9554347641

 STATE   2  ENERGY=      -114.7902719332  S=  1.00  SZ=  0.00  SPACE SYM=A'  

          ALPHA             |           BETA             | CI COEFFICIENT
 1                    2     | 1                    2     |
----------------------------|----------------------------|---------------
  1  2  3  4  5  6  7       |  1  2  3  4  5  7     8    |   0.5532147620
  1  2  3  4  5  7     8    |  1  2  3  4  5  6  7       |  -0.5532147620
  1  2  3  4  5  6  7       |  1  2  3  4  5  7     9    |   0.2739502495
  1  2  3  4  5  7     9    |  1  2  3  4  5  6  7       |  -0.2739502495
  1  2  3  4  5  6  7       |  1  2  3  4  6  7     8    |   0.1595866047
  1  2  3  4  6  7     8    |  1  2  3  4  5  6  7       |  -0.1595866047
  1  2  3  4  5  6  7       |  1  2  3  4  6  7     9    |   0.1232775169
  1  2  3  4  6  7     9    |  1  2  3  4  5  6  7       |  -0.1232775169
  1  2  3  4  5  6  7       |  1  2  4  5  6  7     9    |   0.0899751469
  1  2  4  5  6  7     9    |  1  2  3  4  5  6  7       |  -0.0899751469
  1  2  3  4  5  6  7       |  1  2  3  4  5  7    12    |   0.0882266277
  1  2  3  4  5  7    12    |  1  2  3  4  5  6  7       |  -0.0882266277
  1  2  3  4  5  6  7       |  1  2  4  5  6  7     8    |   0.0846722436
  1  2  4  5  6  7     8    |  1  2  3  4  5  6  7       |  -0.0846722436
  1  2  3  4  5  6  7       |  1  2  3  4  5  7    11    |  -0.0837397548
  1  2  3  4  5  7    11    |  1  2  3  4  5  6  7       |   0.0837397548
  1  2  3  4  5  7    16    |  1  2  3  4  5  6  7       |   0.0708287802
  1  2  3  4  5  6  7       |  1  2  3  4  5  7    16    |  -0.0708287802
  1  2  3  4  5  6    10    |  1  2  3  4  5  6  7       |  -0.0624746494
  1  2  3  4  5  6  7       |  1  2  3  4  5  6    10    |   0.0624746494

 STATE   3  ENERGY=      -114.7564985304  S=  1.00  SZ=  0.00  SPACE SYM=A'  

          ALPHA             |           BETA             | CI COEFFICIENT
 1                    2     | 1                    2     |
----------------------------|----------------------------|---------------
  1  2  3  4  5  6    10    |  1  2  3  4  5  6  7       |   0.6202228185
  1  2  3  4  5  6  7       |  1  2  3  4  5  6    10    |  -0.6202228185
  1  2  3  4  5  6  7       |  1  2  3  4  5  7     9    |   0.1997074805
  1  2  3  4  5  7     9    |  1  2  3  4  5  6  7       |  -0.1997074805
  1  2  3  4  5  6  7       |  1  2  3  4  5  6    17    |   0.1051012278
  1  2  3  4  5  6    17    |  1  2  3  4  5  6  7       |  -0.1051012278
  1  2  3  4  5  6  7       |  1  2  3  4  5  7    11    |  -0.0926606185
  1  2  3  4  5  7    11    |  1  2  3  4  5  6  7       |   0.0926606185
  1  2  3  4  5  7     8    |  1  2  3  4  5  6  7       |   0.0742326613
  1  2  3  4  5  6  7       |  1  2  3  4  5  7     8    |  -0.0742326613
  1  2  3  4  5  6  7       |  1  2  4  5  6  7     8    |   0.0559192585
  1  2  4  5  6  7     8    |  1  2  3  4  5  6  7       |  -0.0559192585

 ..... DONE WITH ORMAS-CI COMPUTATION .....
 STEP CPU TIME =    46.93 TOTAL CPU TIME =       48.4 (    0.8 MIN)
 TOTAL WALL CLOCK TIME=       50.7 SECONDS, CPU UTILIZATION IS  95.42%

     ---------------------------
     ONE PARTICLE DENSITY MATRIX
     ---------------------------

 DENSITY MATRIX WILL BE SAVED FOR   1-TH STATE WITH S= 0.00

 CI EIGENSTATE   1 TOTAL ENERGY =     -115.3830636097

          NATURAL ORBITALS IN ATOMIC ORBITAL BASIS
          ----------------------------------------

                      1          2          3          4          5
                    2.0000     2.0000     1.9876     1.9799     1.9781
                     A'         A'         A'         A'         A'' 
    1  H  1  S   -0.000110   0.000336   0.123077  -0.044082   0.000000
    2  H  1  S    0.000070   0.000186   0.001881   0.003485   0.000000
    3  H  1  X   -0.000190   0.000327   0.008238   0.000057   0.000000
    4  H  1  Y    0.000729  -0.000047  -0.030761   0.011444   0.000000
    5  H  1  Z    0.000000   0.000000   0.000000  -0.000000   0.031567
    6  O  2  S    1.001174   0.000114  -0.009022  -0.003119   0.000000
    7  O  2  S    0.001705   0.000427   0.448146  -0.129760   0.000000
    8  O  2  S   -0.004678  -0.000616   0.465101  -0.151683   0.000000
    9  O  2  X    0.000777   0.000249  -0.052985   0.134822   0.000000
   10  O  2  Y    0.001444  -0.000004  -0.070469   0.062277   0.000000
   11  O  2  Z    0.000000   0.000000   0.000000  -0.000000   0.597367
   12  O  2  X   -0.001492  -0.000638  -0.047584   0.086823   0.000000
   13  O  2  Y   -0.000492  -0.000335  -0.097012   0.063222   0.000000
   14  O  2  Z    0.000000   0.000000   0.000000  -0.000000   0.451183
   15  O  2 XX   -0.000200  -0.000230   0.004891   0.008974   0.000000
   16  O  2 YY    0.000158   0.000023  -0.002493  -0.003315   0.000000
   17  O  2 ZZ    0.000043   0.000207  -0.002397  -0.005659   0.000000
   18  O  2 XY   -0.000133  -0.000010  -0.004641   0.005901   0.000000
   19  O  2 XZ    0.000000   0.000000   0.000000  -0.000000   0.012256
   20  O  2 YZ    0.000000   0.000000   0.000000  -0.000000   0.014243
   21  C  3  S    0.000012   1.002075  -0.010640  -0.015271   0.000000
   22  C  3  S    0.000042   0.004190   0.109248   0.367061   0.000000
   23  C  3  S    0.002517  -0.007327   0.034178   0.201198   0.000000
   24  C  3  X   -0.000286  -0.000603  -0.036786   0.088405   0.000000
   25  C  3  Y   -0.000003   0.000022  -0.012757   0.010533   0.000000
   26  C  3  Z    0.000000   0.000000   0.000000  -0.000000   0.146075
   27  C  3  X   -0.001061  -0.000576  -0.001732   0.047155   0.000000
   28  C  3  Y   -0.000020  -0.000074  -0.010120   0.018634   0.000000
   29  C  3  Z    0.000000   0.000000   0.000000  -0.000000   0.078063
   30  C  3 XX   -0.000191   0.000010   0.021334  -0.005548   0.000000
   31  C  3 YY    0.000078   0.000001  -0.011115   0.004243   0.000000
   32  C  3 ZZ    0.000112  -0.000011  -0.010219   0.001305   0.000000
   33  C  3 XY   -0.000069  -0.000008   0.005096  -0.004778   0.000000
   34  C  3 XZ    0.000000   0.000000   0.000000  -0.000000  -0.031975
   35  C  3 YZ    0.000000   0.000000   0.000000  -0.000000   0.002705
   36  H  4  S   -0.000329   0.000114   0.046286   0.202124  -0.043967
   37  H  4  S   -0.000128   0.001361   0.018869   0.026238   0.017815
   38  H  4  X    0.000138   0.000141  -0.002910  -0.006274   0.002050
   39  H  4  Y    0.000028   0.000135  -0.003226  -0.012140   0.003867
   40  H  4  Z   -0.000030  -0.000216   0.006332   0.020356  -0.003763
   41  H  5  S   -0.000329   0.000114   0.046286   0.202124   0.043967
   42  H  5  S   -0.000128   0.001361   0.018869   0.026238  -0.017815
   43  H  5  X    0.000138   0.000141  -0.002910  -0.006274  -0.002050
   44  H  5  Y    0.000028   0.000135  -0.003226  -0.012140  -0.003867
   45  H  5  Z    0.000030   0.000216  -0.006332  -0.020356  -0.003763
   46  H  6  S   -0.000326   0.000103   0.041818   0.203275   0.000000
   47  H  6  S   -0.000155   0.001290  -0.000515   0.042563   0.000000
   48  H  6  X    0.000105   0.000160  -0.002681  -0.005953   0.000000
   49  H  6  Y   -0.000057  -0.000241   0.006803   0.022855   0.000000
   50  H  6  Z    0.000000   0.000000   0.000000  -0.000000   0.003411

[...]
   14  O  2  Z   -0.000000  -0.111964  -0.000000   0.000000  -0.000000
   15  O  2 XX   -0.018604  -0.000000  -0.055960   0.272481   0.240773
   16  O  2 YY    0.027364  -0.000000   0.112992  -0.648920  -0.025708
   17  O  2 ZZ   -0.008760  -0.000000  -0.057031   0.376439  -0.215066
   18  O  2 XY   -0.026269  -0.000000   0.163014   0.412550  -0.330639
   19  O  2 XZ   -0.000000   0.264480  -0.000000   0.000000  -0.000000
   20  O  2 YZ   -0.000000  -0.067802  -0.000000   0.000000  -0.000000
   21  C  3  S    0.015322  -0.000000   0.022283  -0.004892  -0.266247
   22  C  3  S    0.039213  -0.000000   0.048565   0.000702  -0.618579
   23  C  3  S    0.035107  -0.000000  -0.082332   0.176461   0.013015
   24  C  3  X   -0.038752  -0.000000  -0.102746   0.082053  -0.257845
   25  C  3  Y    0.685535  -0.000000  -0.224583   0.309073   0.123368
   26  C  3  Z   -0.000000  -0.333432  -0.000000   0.000000  -0.000000
   27  C  3  X   -0.149476  -0.000000   0.006254  -0.028438   0.515763
   28  C  3  Y    0.444090  -0.000000   0.944340   0.066408   0.064573
   29  C  3  Z   -0.000000   0.983825  -0.000000   0.000000  -0.000000
   30  C  3 XX    0.021127  -0.000000  -0.023002   0.005605  -0.492119
   31  C  3 YY   -0.508824  -0.000000  -0.663722  -0.026047   0.465597
   32  C  3 ZZ    0.487696  -0.000000   0.686724   0.020442   0.026521
   33  C  3 XY    0.306416  -0.000000   0.713647  -0.073614   0.066414
   34  C  3 XZ   -0.000000   0.691447  -0.000000   0.000000  -0.000000
   35  C  3 YZ   -0.000000   0.755496  -0.000000   0.000000  -0.000000
   36  H  4  S   -0.615820   0.730495  -0.442941  -0.152255   0.093877
   37  H  4  S    0.438219   0.123373  -0.003296   0.117258  -0.210643
   38  H  4  X    0.296093   0.332311  -0.182213  -0.063195   0.112915
   39  H  4  Y   -0.223982   0.131958   0.169837   0.074869  -0.376973
   40  H  4  Z   -0.272034   0.020162   0.130123  -0.165618   0.140986
   41  H  5  S   -0.615820  -0.730495  -0.442941  -0.152255   0.093877
   42  H  5  S    0.438219  -0.123373  -0.003296   0.117258  -0.210643
   43  H  5  X    0.296093  -0.332311  -0.182213  -0.063195   0.112915
   44  H  5  Y   -0.223982  -0.131958   0.169837   0.074869  -0.376973
   45  H  5  Z    0.272034   0.020162  -0.130123   0.165618  -0.140986
   46  H  6  S    1.232798  -0.000000   0.957716   0.074261   0.042217
   47  H  6  S   -0.740948  -0.000000   0.052204  -0.205908  -0.074950
   48  H  6  X   -0.551405  -0.000000   0.386409   0.042375   0.182112
   49  H  6  Y    0.248127  -0.000000   0.049235   0.161336   0.445815
   50  H  6  Z   -0.000000   0.266474  -0.000000   0.000000  -0.000000

                     36         37         38         39         40
                    0.0006     0.0006     0.0005     0.0005     0.0005
                     A'         A''        A'         A''        A'  
    1  H  1  S    0.869267  -0.000000   0.309758  -0.000000   0.163173
    2  H  1  S   -0.691487  -0.000000  -0.221241  -0.000000   0.176408
    3  H  1  X    0.410906  -0.000000   0.922558  -0.000000  -0.424350
    4  H  1  Y   -0.637324  -0.000000   0.142555  -0.000000   0.229255
    5  H  1  Z   -0.000000   0.964743   0.000000  -0.569507   0.000000
    6  O  2  S   -0.098085  -0.000000   0.066351  -0.000000   0.115129
    7  O  2  S   -0.231639  -0.000000   0.108896  -0.000000   0.248021
    8  O  2  S   -0.248018  -0.000000  -0.498976  -0.000000  -0.155543
    9  O  2  X    0.287998  -0.000000   0.143665  -0.000000  -0.120796
   10  O  2  Y   -0.364085  -0.000000  -0.067801  -0.000000   0.288271
   11  O  2  Z   -0.000000   0.014621   0.000000  -0.076630   0.000000
   12  O  2  X   -0.115770  -0.000000  -0.743341  -0.000000   0.360116
   13  O  2  Y   -0.236453  -0.000000  -0.429198  -0.000000  -0.751823
   14  O  2  Z   -0.000000  -0.276208   0.000000   0.738815   0.000000
   15  O  2 XX    0.300817  -0.000000   0.174004  -0.000000  -0.028959
   16  O  2 YY   -0.416583  -0.000000  -0.368696  -0.000000   0.018069
   17  O  2 ZZ    0.115766  -0.000000   0.194692  -0.000000   0.010890
   18  O  2 XY    0.117974  -0.000000  -0.400648  -0.000000  -0.239819
   19  O  2 XZ   -0.000000   0.358531   0.000000   0.251152   0.000000
   20  O  2 YZ   -0.000000  -0.514441   0.000000   0.328100   0.000000
   21  C  3  S   -0.414385  -0.000000   0.448054  -0.000000  -0.111004
   22  C  3  S   -0.891908  -0.000000   0.964295  -0.000000  -0.242612
   23  C  3  S    1.362370  -0.000000  -0.330910  -0.000000  -0.007620
   24  C  3  X   -0.272715  -0.000000   0.045038  -0.000000   0.001436
   25  C  3  Y   -0.223041  -0.000000  -0.335547  -0.000000  -0.641825
   26  C  3  Z   -0.000000   0.409360   0.000000   0.632465   0.000000
   27  C  3  X    0.002591  -0.000000  -0.206074  -0.000000   0.042243
   28  C  3  Y    0.144929  -0.000000   0.432648  -0.000000   0.999767
   29  C  3  Z   -0.000000  -0.427272   0.000000  -0.793041   0.000000
   30  C  3 XX   -0.486486  -0.000000   0.122001  -0.000000   0.147915
   31  C  3 YY    0.141263  -0.000000   0.105485  -0.000000  -0.269694
   32  C  3 ZZ    0.345223  -0.000000  -0.227486  -0.000000   0.121779
   33  C  3 XY   -0.263037  -0.000000  -0.245800  -0.000000  -0.908096
   34  C  3 XZ   -0.000000   0.338024   0.000000   0.947179   0.000000
   35  C  3 YZ   -0.000000  -0.050418   0.000000  -0.198600   0.000000
   36  H  4  S   -0.041000   0.132445   0.017945   0.255567   0.185181
   37  H  4  S   -0.228152  -0.291629  -0.006186  -0.430349  -0.337523
   38  H  4  X    0.221285   0.158369  -0.037415   0.330403   0.129786
   39  H  4  Y   -0.082276  -0.190256  -0.049525  -0.422235  -0.077935
   40  H  4  Z    0.461301   0.285972  -0.183049   0.473786   0.453530
   41  H  5  S   -0.041000  -0.132445   0.017945  -0.255567   0.185181
   42  H  5  S   -0.228152   0.291629  -0.006186   0.430349  -0.337523
   43  H  5  X    0.221285  -0.158369  -0.037415  -0.330403   0.129786
   44  H  5  Y   -0.082276   0.190256  -0.049525   0.422235  -0.077935
   45  H  5  Z   -0.461301   0.285972   0.183049   0.473786  -0.453530
   46  H  6  S   -0.193376  -0.000000  -0.328926  -0.000000  -0.154203
   47  H  6  S   -0.134894  -0.000000   0.469940  -0.000000   0.537763
   48  H  6  X    0.134074  -0.000000   0.016377  -0.000000  -0.438431
   49  H  6  Y    0.116269  -0.000000  -0.655087  -0.000000  -0.662813
   50  H  6  Z   -0.000000  -0.064837   0.000000  -0.278683   0.000000

                     41         42         43         44         45
                    0.0003     0.0003     0.0003     0.0002     0.0001
                     A'         A''        A'         A'         A'  
    1  H  1  S    0.274278  -0.000000   0.291417   0.047704  -0.586104
    2  H  1  S   -0.043176  -0.000000  -0.289535  -0.623240  -0.864952
    3  H  1  X    0.182473  -0.000000  -0.370383   0.032441  -0.321180
    4  H  1  Y   -0.167240  -0.000000  -0.279942   0.174337   0.745024
    5  H  1  Z   -0.000000  -0.142763   0.000000   0.000000   0.000000
    6  O  2  S    0.067051  -0.000000  -0.024986   0.569149  -0.220174
    7  O  2  S    0.095595  -0.000000  -0.060861   1.082612  -0.395024
    8  O  2  S   -0.851318  -0.000000  -0.073710  -3.380801   1.974510
    9  O  2  X   -0.022484  -0.000000   0.024176   0.122256  -0.010032
   10  O  2  Y   -0.074886  -0.000000   0.023454   0.019298   0.192994
   11  O  2  Z   -0.000000  -0.096238   0.000000   0.000000   0.000000
   12  O  2  X   -0.545821  -0.000000   0.244003  -1.969036  -0.236224
   13  O  2  Y   -0.216930  -0.000000  -0.204795   0.038080   0.618080
   14  O  2  Z   -0.000000   0.382797   0.000000   0.000000   0.000000
   15  O  2 XX   -0.208263  -0.000000  -0.050453  -0.297881  -0.051734
   16  O  2 YY   -0.012466  -0.000000  -0.029310   0.158528   0.219033
   17  O  2 ZZ    0.220730  -0.000000   0.079763   0.139353  -0.167299
   18  O  2 XY    0.025021  -0.000000   0.250795  -0.080054  -0.177396
   19  O  2 XZ   -0.000000   0.024843   0.000000   0.000000   0.000000
   20  O  2 YZ   -0.000000  -0.028921   0.000000   0.000000   0.000000
   21  C  3  S   -0.548586  -0.000000   0.049669  -0.365458  -0.200131
   22  C  3  S   -1.162794  -0.000000   0.127229  -0.605731  -0.330147
   23  C  3  S    1.240468  -0.000000   0.227157   4.401962   2.928998
   24  C  3  X   -0.542119  -0.000000   0.183364  -0.350741   0.188415
   25  C  3  Y   -0.144816  -0.000000  -0.634964   0.088520   0.110818
   26  C  3  Z   -0.000000   0.661214   0.000000   0.000000   0.000000
   27  C  3  X    0.228205  -0.000000  -0.318283  -2.103842   1.227790
   28  C  3  Y    0.168960  -0.000000   0.800441  -0.041221   0.704429
   29  C  3  Z   -0.000000  -0.980303   0.000000   0.000000   0.000000
   30  C  3 XX    0.909581  -0.000000  -0.203744   0.576572  -0.295984
   31  C  3 YY   -0.182446  -0.000000   0.913330  -0.381191   0.011228
   32  C  3 ZZ   -0.727135  -0.000000  -0.709586  -0.195380   0.284756
   33  C  3 XY    0.135415  -0.000000   0.139772   0.167667   0.164077
   34  C  3 XZ   -0.000000  -0.083707   0.000000   0.000000   0.000000
   35  C  3 YZ   -0.000000   1.044465   0.000000   0.000000   0.000000
   36  H  4  S    0.267323   0.333719   0.079517  -0.175205  -0.397278
   37  H  4  S   -0.210315  -0.397911  -0.164704  -0.562308  -1.314708
   38  H  4  X   -0.729787  -0.384089   0.005405   0.303739   0.000367
   39  H  4  Y   -0.425943   0.134025  -0.680221   0.086033   0.225427
   40  H  4  Z    0.245864   0.662745  -0.201792  -0.067753  -0.502992
   41  H  5  S    0.267323  -0.333719   0.079517  -0.175205  -0.397278
   42  H  5  S   -0.210315   0.397911  -0.164704  -0.562308  -1.314708
   43  H  5  X   -0.729787   0.384089   0.005405   0.303739   0.000367
   44  H  5  Y   -0.425943  -0.134025  -0.680221   0.086033   0.225427
   45  H  5  Z   -0.245864   0.662745   0.201792   0.067753   0.502992
   46  H  6  S    0.145441  -0.000000  -0.405619  -0.016464  -0.087612
   47  H  6  S   -0.148651  -0.000000   0.254870  -0.452996  -0.308250
   48  H  6  X   -0.479287  -0.000000   0.709104   0.236116  -0.170910
   49  H  6  Y    0.254658  -0.000000  -0.622380   0.143791  -0.178910
   50  H  6  Z   -0.000000   0.921030   0.000000   0.000000   0.000000

                     46         47         48
                    0.0001     0.0001     0.0000
                     A''        A'         A'  
    1  H  1  S    0.000000   0.551170   0.561727
    2  H  1  S    0.000000   0.758823   1.559811
    3  H  1  X    0.000000   0.142084   0.425465
    4  H  1  Y    0.000000  -0.752746  -0.783295
    5  H  1  Z    0.091280   0.000000   0.000000
    6  O  2  S    0.000000   0.012530   0.072016
    7  O  2  S    0.000000  -0.006460   0.112714
    8  O  2  S    0.000000  -0.730910  -1.087371
    9  O  2  X    0.000000   0.045509   0.032781
   10  O  2  Y    0.000000  -0.097940  -0.157825
   11  O  2  Z    0.102075   0.000000   0.000000
   12  O  2  X    0.000000   0.539297   0.668836
   13  O  2  Y    0.000000  -0.967221  -0.800915
   14  O  2  Z   -0.515474   0.000000   0.000000
   15  O  2 XX    0.000000   0.053099   0.135578
   16  O  2 YY    0.000000  -0.198877  -0.280441
   17  O  2 ZZ    0.000000   0.145778   0.144863
   18  O  2 XY    0.000000   0.168840   0.191260
   19  O  2 XZ   -0.048127   0.000000   0.000000
   20  O  2 YZ   -0.032209   0.000000   0.000000
   21  C  3  S    0.000000   0.016289  -0.112782
   22  C  3  S    0.000000   0.037119  -0.155644
   23  C  3  S    0.000000  -0.083994   2.430053
   24  C  3  X    0.000000   0.019333   0.102214
   25  C  3  Y    0.000000   0.454541  -0.124890
   26  C  3  Z    0.515256   0.000000   0.000000
   27  C  3  X    0.000000   0.247854   1.284566
   28  C  3  Y    0.000000   2.509491  -1.086932
   29  C  3  Z    2.807589   0.000000   0.000000
   30  C  3 XX    0.000000  -0.052102  -0.234174
   31  C  3 YY    0.000000  -0.488590   0.276434
   32  C  3 ZZ    0.000000   0.540693  -0.042260
   33  C  3 XY    0.000000   0.412652  -0.293905
   34  C  3 XZ    0.474419   0.000000   0.000000
   35  C  3 YZ    0.660392   0.000000   0.000000
   36  H  4  S    0.660409  -0.327014  -0.062193
   37  H  4  S    2.352998  -1.338850  -0.528104
   38  H  4  X   -0.353722   0.187366  -0.030776
   39  H  4  Y   -0.514050   0.029217   0.195230
   40  H  4  Z    0.615482  -0.480643  -0.121654
   41  H  5  S   -0.660409  -0.327014  -0.062193
   42  H  5  S   -2.352998  -1.338850  -0.528104
   43  H  5  X    0.353722   0.187366  -0.030776
   44  H  5  Y    0.514050   0.029217   0.195230
   45  H  5  Z    0.615482   0.480643   0.121654
   46  H  6  S    0.000000   0.677434  -0.496284
   47  H  6  S    0.000000   2.305761  -2.146658
   48  H  6  X    0.000000  -0.313168   0.183691
   49  H  6  Y    0.000000   0.734655  -0.729133
   50  H  6  Z   -0.269700   0.000000   0.000000
 ..... DONE WITH ONE PARTICLE DENSITY MATRIX .....
 STEP CPU TIME =     0.09 TOTAL CPU TIME =       48.4 (    0.8 MIN)
 TOTAL WALL CLOCK TIME=       50.8 SECONDS, CPU UTILIZATION IS  95.43%

     --------------------------------------------------------
     ORMAS CI PROPERTIES...FOR THE WAVEFUNCTION OF STATE    1
               USING THE EXPECTATION VALUE DENSITY
     --------------------------------------------------------

          -----------------
          ENERGY COMPONENTS
          -----------------

         WAVEFUNCTION NORMALIZATION =       1.0000000000

                ONE ELECTRON ENERGY =    -237.5722856652
                TWO ELECTRON ENERGY =      81.4018981236
           NUCLEAR REPULSION ENERGY =      40.7873239319
                                      ------------------
                       TOTAL ENERGY =    -115.3830636097

 ELECTRON-ELECTRON POTENTIAL ENERGY =      81.4018981236
  NUCLEUS-ELECTRON POTENTIAL ENERGY =    -352.8842066133
   NUCLEUS-NUCLEUS POTENTIAL ENERGY =      40.7873239319
                                      ------------------
             TOTAL POTENTIAL ENERGY =    -230.6949845579
               TOTAL KINETIC ENERGY =     115.3119209481
                 VIRIAL RATIO (V/T) =       2.0006169584

          ---------------------------------------
          MULLIKEN AND LOWDIN POPULATION ANALYSES
          ---------------------------------------

               ----- POPULATIONS IN EACH AO -----
                             MULLIKEN      LOWDIN
              1  H  1  S      0.70543     0.55839
              2  H  1  S      0.06660     0.15942
              3  H  1  X      0.02131     0.04686
              4  H  1  Y      0.03903     0.07423
              5  H  1  Z      0.02549     0.06746
              6  O  2  S      2.00231     1.90292
              7  O  2  S      0.83158     0.59787
              8  O  2  S      0.86321     0.47601
              9  O  2  X      0.80677     0.74197
             10  O  2  Y      0.90430     0.84907
             11  O  2  Z      1.12205     1.08386
             12  O  2  X      0.47031     0.52979
             13  O  2  Y      0.50511     0.61557
             14  O  2  Z      0.78464     0.74830
             15  O  2 XX      0.00588     0.18749
             16  O  2 YY      0.00978     0.18711
             17  O  2 ZZ      0.00666     0.17557
             18  O  2 XY      0.00505     0.01092
             19  O  2 XZ      0.00415     0.00633
             20  O  2 YZ      0.00000     0.00359
             21  C  3  S      2.00410     1.87109
             22  C  3  S      0.66075     0.47048
             23  C  3  S      0.34835     0.28348
             24  C  3  X      0.57743     0.52252
             25  C  3  Y      0.72215     0.64285
             26  C  3  Z      0.70942     0.63098
             27  C  3  X      0.14708     0.25152
             28  C  3  Y      0.31439     0.42637
             29  C  3  Z      0.28262     0.42473
             30  C  3 XX      0.01804     0.17440
             31  C  3 YY      0.03121     0.15012
             32  C  3 ZZ      0.02734     0.14897
             33  C  3 XY      0.03304     0.05765
             34  C  3 XZ      0.01351     0.07957
             35  C  3 YZ      0.00000     0.03453
             36  H  4  S      0.76449     0.61571
             37  H  4  S      0.18913     0.25187
             38  H  4  X      0.00608     0.01639
             39  H  4  Y      0.01005     0.02259
             40  H  4  Z      0.01602     0.03356
             41  H  5  S      0.76449     0.61571
             42  H  5  S      0.18913     0.25187
             43  H  5  X      0.00608     0.01639
             44  H  5  Y      0.01005     0.02259
             45  H  5  Z      0.01602     0.03356
             46  H  6  S      0.75934     0.61535
             47  H  6  S      0.16831     0.23954
             48  H  6  X      0.00548     0.01528
             49  H  6  Y      0.01873     0.03973
             50  H  6  Z      0.00753     0.01785

          ----- MULLIKEN ATOMIC OVERLAP POPULATIONS -----
          (OFF-DIAGONAL ELEMENTS NEED TO BE MULTIPLIED BY 2)

             1           2           3           4           5

    1    0.5576003
    2    0.3475321   7.7357039
    3   -0.0438587   0.3263032   4.4310042
    4   -0.0057647  -0.0316929   0.3905568   0.7040090
    5   -0.0057647  -0.0316929   0.3905568  -0.0404420   0.7040090
    6    0.0081150  -0.0243549   0.3948582  -0.0309042  -0.0309042

             6

    6    0.6425882

          TOTAL MULLIKEN AND LOWDIN ATOMIC POPULATIONS
       ATOM         MULL.POP.    CHARGE          LOW.POP.     CHARGE
    1 H             0.857859    0.142141         0.906350    0.093650
    2 O             8.321798   -0.321798         8.116388   -0.116388
    3 C             5.889421    0.110579         6.169249   -0.169249
    4 H             0.985762    0.014238         0.940125    0.059875
    5 H             0.985762    0.014238         0.940125    0.059875
    6 H             0.959398    0.040602         0.927763    0.072237

          MULLIKEN SPHERICAL HARMONIC POPULATIONS
       ATOM           S       P       D      F      G      H      I    TOTAL
    1 H             0.77    0.09    0.00   0.00   0.00   0.00   0.00    0.86
    2 O             3.70    4.59    0.03   0.00   0.00   0.00   0.00    8.32
    3 C             3.01    2.75    0.12   0.00   0.00   0.00   0.00    5.89
    4 H             0.95    0.03    0.00   0.00   0.00   0.00   0.00    0.99
    5 H             0.95    0.03    0.00   0.00   0.00   0.00   0.00    0.99
    6 H             0.93    0.03    0.00   0.00   0.00   0.00   0.00    0.96

          ---------------------
          ELECTROSTATIC MOMENTS
          ---------------------

 POINT   1           X           Y           Z (BOHR)    CHARGE
                -0.015103    0.012839    0.000000        0.00 (A.U.)
         DX          DY          DZ         /D/  (DEBYE)
     0.768520    1.436061    0.000000    1.628771
 ...... END OF PROPERTY EVALUATION ......
 STEP CPU TIME =     0.00 TOTAL CPU TIME =       48.4 (    0.8 MIN)
 TOTAL WALL CLOCK TIME=       50.8 SECONDS, CPU UTILIZATION IS  95.41%
              4381357  WORDS OF DYNAMIC MEMORY USED
 EXECUTION OF GAMESS TERMINATED NORMALLY Mon Nov 28 17:58:16 2016
 DDI: 263640 bytes (0.3 MB / 0 MWords) used by master data server.

 ----------------------------------------
 CPU timing information for all processes
 ========================================
 0: 48.404 + 0.42 = 48.447
 ----------------------------------------
 ddikick.x: exited gracefully.
unset echo
----- accounting info -----
Files used on the master node compute-3-0 were:
-rw-rw-r-- 1 sarom sarom   80321 Nov 29  2016 .//ormas-meoh-cisd.dat
-rw-rw-r-- 1 sarom sarom    1294 Nov 28  2016 .//ormas-meoh-cisd.F05
-rw-rw-r-- 1 sarom sarom 3608976 Nov 28  2016 .//ormas-meoh-cisd.F09
-rw-rw-r-- 1 sarom sarom 1832320 Nov 29  2016 .//ormas-meoh-cisd.F10
-rw-rw-r-- 1 sarom sarom 1295184 Nov 29  2016 .//ormas-meoh-cisd.F12
-rw-rw-r-- 1 sarom sarom    1294 Nov 28 17:27 .//ormas-meoh-cisd.inp
-rw-rw-r-- 1 sarom sarom  119321 Nov 29  2016 .//ormas-meoh-cisd.log
Mon Nov 28 17:58:19 CST 2016
0.201u 0.049s 0:57.01 0.4%	0+0k 0+136io 0pf+0w
