----- GAMESS execution script 'rungms' -----
This job is running on host compute-3-0
under operating system Linux at Mon Nov 28 22:14:04 CST 2016
Available scratch disk space (Kbyte units) at beginning of the job is
Filesystem            1K-blocks       Used  Available Use% Mounted on
bolt.local:/export/home/sarom
                     9590469632 1553061888 7550239744  18% /home/sarom
Copying input file grdxtr-1.inp to your run's scratch directory...
cp grdxtr-1.inp .//grdxtr-1.F05
unset echo
/home/sarom/gamessGH/ddikick.x /home/sarom/gamessGH/gamess.00.x grdxtr-1 -ddi 1 1 localhost -scr ./

 Distributed Data Interface kickoff program.
 Initiating 1 compute processes on 1 nodes to run the following command:
 /home/sarom/gamessGH/gamess.00.x grdxtr-1 

          ******************************************************
          *         GAMESS VERSION = 18 AUG 2016 (R1)          *
          *             FROM IOWA STATE UNIVERSITY             *
          * M.W.SCHMIDT, K.K.BALDRIDGE, J.A.BOATZ, S.T.ELBERT, *
          *   M.S.GORDON, J.H.JENSEN, S.KOSEKI, N.MATSUNAGA,   *
          *          K.A.NGUYEN, S.J.SU, T.L.WINDUS,           *
          *       TOGETHER WITH M.DUPUIS, J.A.MONTGOMERY       *
          *         J.COMPUT.CHEM.  14, 1347-1363(1993)        *
          **************** 64 BIT LINUX VERSION ****************

  SINCE 1993, STUDENTS AND POSTDOCS WORKING AT IOWA STATE UNIVERSITY
  AND ALSO IN THEIR VARIOUS JOBS AFTER LEAVING ISU HAVE MADE IMPORTANT
  CONTRIBUTIONS TO THE CODE:
     IVANA ADAMOVIC, CHRISTINE AIKENS, YURI ALEXEEV, POOJA ARORA,
     ANDREY ASADCHEV, ROB BELL, PRADIPTA BANDYOPADHYAY, JONATHAN BENTZ,
     BRETT BODE, KURT BRORSEN, CALEB CARLIN, GALINA CHABAN, WEI CHEN,
     CHEOL HO CHOI, PAUL DAY, ALBERT DEFUSCO, NUWAN DESILVA, TIM DUDLEY,
     DMITRI FEDOROV, GRAHAM FLETCHER, MARK FREITAG, KURT GLAESEMANN,
     DAN KEMP, GRANT MERRILL, NORIYUKI MINEZAWA, JONATHAN MULLIN,
     TAKESHI NAGATA, SEAN NEDD, HEATHER NETZLOFF, BOSILJKA NJEGIC, RYAN OLSON,
     MIKE PAK, SPENCER PRUITT, LUKE ROSKOP, JIM SHOEMAKER, LYUDMILA SLIPCHENKO,
     TONY SMITH, SAROM SOK LEANG, JIE SONG, TETSUYA TAKETSUGU, SIMON WEBB,
     PENG XU, SOOHAENG YOO, FEDERICO ZAHARIEV

  ADDITIONAL CODE HAS BEEN PROVIDED BY COLLABORATORS IN OTHER GROUPS:
     IOWA STATE UNIVERSITY:
          JOE IVANIC, AARON WEST, LAIMUTIS BYTAUTAS, KLAUS RUEDENBERG
     UNIVERSITY OF TOKYO: KIMIHIKO HIRAO, TAKAHITO NAKAJIMA,
          TAKAO TSUNEDA, MUNEAKI KAMIYA, SUSUMU YANAGISAWA,
          KIYOSHI YAGI, MAHITO CHIBA, SEIKEN TOKURA, NAOAKI KAWAKAMI
     UNIVERSITY OF AARHUS: FRANK JENSEN
     UNIVERSITY OF IOWA: VISVALDAS KAIRYS, HUI LI
     NATIONAL INST. OF STANDARDS AND TECHNOLOGY: WALT STEVENS, DAVID GARMER
     UNIVERSITY OF PISA: BENEDETTA MENNUCCI, JACOPO TOMASI
     UNIVERSITY OF MEMPHIS: HENRY KURTZ, PRAKASHAN KORAMBATH
     UNIVERSITY OF ALBERTA: TOBY ZENG, MARIUSZ KLOBUKOWSKI
     UNIVERSITY OF NEW ENGLAND: MARK SPACKMAN
     MIE UNIVERSITY: HIROAKI UMEDA
     NAT. INST. OF ADVANCED INDUSTRIAL SCIENCE AND TECHNOLOGY: KAZUO KITAURA
     MICHIGAN STATE UNIVERSITY:
          KAROL KOWALSKI, MARTA WLOCH, JEFFREY GOUR, JESSE LUTZ,
          WEI LI, PIOTR PIECUCH
     UNIVERSITY OF SILESIA: MONIKA MUSIAL, STANISLAW KUCHARSKI
     FACULTES UNIVERSITAIRES NOTRE-DAME DE LA PAIX:
          OLIVIER QUINET, BENOIT CHAMPAGNE
     UNIVERSITY OF CALIFORNIA - SANTA BARBARA: BERNARD KIRTMAN
     INSTITUTE FOR MOLECULAR SCIENCE:
          KAZUYA ISHIMURA, MICHIO KATOUDA, AND SHIGERU NAGASE
     UNIVERSITY OF NOTRE DAME: ANNA POMOGAEVA, DAN CHIPMAN
     KYUSHU UNIVERSITY:
          HARUYUKI NAKANO,
          FENG LONG GU, JACEK KORCHOWIEC, MARCIN MAKOWSKI, AND YURIKO AOKI,
          HIROTOSHI MORI AND EISAKU MIYOSHI
     PENNSYLVANIA STATE UNIVERSITY:
          TZVETELIN IORDANOV, CHET SWALINA, JONATHAN SKONE,
          SHARON HAMMES-SCHIFFER
     WASEDA UNIVERSITY:
          MASATO KOBAYASHI, TOMOKO AKAMA, TSUGUKI TOUMA,
          TAKESHI YOSHIKAWA, YASUHIRO IKABATA, JUNJI SEINO,
          YUYA NAKAJIMA, HIROMI NAKAI
     NANJING UNIVERSITY: SHUHUA LI
     UNIVERSITY OF NEBRASKA:
          PEIFENG SU, DEJUN SI, NANDUN THELLAMUREGE, YALI WANG, HUI LI
     UNIVERSITY OF ZURICH: ROBERTO PEVERATI, KIM BALDRIDGE
     N. COPERNICUS UNIVERSITY AND JACKSON STATE UNIVERSITY:
          MARIA BARYSZ
     UNIVERSITY OF COPENHAGEN: Jimmy Kromann, CASPER STEINMANN
     TOKYO INSTITUTE OF TECHNOLOGY: HIROYA NAKATA
     NAGOYA UNIVERSITY: YOSHIO NISHIMOTO, STEPHAN IRLE
     MOSCOW STATE UNIVERSITY: VLADIMIR MIRONOV

 EXECUTION OF GAMESS BEGUN Mon Nov 28 22:14:05 2016

            ECHO OF THE FIRST FEW INPUT CARDS -
 INPUT CARD>!    This job tests the gradient extremal routine.                              
 INPUT CARD>!                                                                               
 INPUT CARD>!    The run traces the extremal leading from minimum M4                        
 INPUT CARD>!    to the 2nd order saddle point SOSP1.  It is from                           
 INPUT CARD>!    K.Bondensgard and F.Jensen, J.Chem.Phys. 104, 8025-8031(1996)              
 INPUT CARD>!                                                                               
 INPUT CARD>!    The lowest mode is followed in the negative direction                      
 INPUT CARD>!    After 11 steps, a GE bifurcation is found.                                 
 INPUT CARD>!    After 18 steps, the algorithm switches to a NR search,                     
 INPUT CARD>!    which locates a 2nd order saddle point in three steps.                     
 INPUT CARD>!                                                                               
 INPUT CARD>!    The hessian is computed numerous times in this run.                        
 INPUT CARD>!                                                                               
 INPUT CARD>!      the results should be                                                    
 INPUT CARD>!    CYCLE    1   ENERGY  -112.26908884   GNORM  0.000881  GE CURVATURE  0.258  
 INPUT CARD>!    CYCLE    2   ENERGY  -112.26857122   GNORM  0.009413  GE CURVATURE  0.257  
 INPUT CARD>!    CYCLE    3   ENERGY  -112.26722242   GNORM  0.017521  GE CURVATURE  0.256  
 INPUT CARD>!    CYCLE    4   ENERGY  -112.26508098   GNORM  0.025280  GE CURVATURE  0.257  
 INPUT CARD>!    CYCLE    5   ENERGY  -112.26217845   GNORM  0.032757  GE CURVATURE  0.261  
 INPUT CARD>!    CYCLE    6   ENERGY  -112.25854033   GNORM  0.040006  GE CURVATURE  0.268  
 INPUT CARD>!    CYCLE    7   ENERGY  -112.25418714   GNORM  0.047074  GE CURVATURE  0.284  
 INPUT CARD>!    CYCLE    8   ENERGY  -112.24913564   GNORM  0.053995  GE CURVATURE  0.315  
 INPUT CARD>!    CYCLE    9   ENERGY  -112.24340065   GNORM  0.060790  GE CURVATURE  0.388  
 INPUT CARD>!    CYCLE   10   ENERGY  -112.23699965   GNORM  0.067458  GE CURVATURE  0.577  
 INPUT CARD>!    CYCLE   11   ENERGY  -112.22997709   GNORM  0.073939  GE CURVATURE  1.203  
 INPUT CARD>!    CYCLE   11   ENERGY  -112.23369572   GNORM  0.070607  GE CURVATURE  1.119  
 INPUT CARD>!    CYCLE   11   ENERGY  -112.23438126   GNORM  0.069969  GE CURVATURE  1.103  
 INPUT CARD>!    CYCLE   11   ENERGY  -112.23447582   GNORM  0.069880  GE CURVATURE  1.101  
 INPUT CARD>!    CYCLE   12   ENERGY  -112.22725268   GNORM  0.076245  GE CURVATURE  1.706  
 INPUT CARD>!    CYCLE   13   ENERGY  -112.22108436   GNORM  0.080948  GE CURVATURE  9.751  
 INPUT CARD>!    CYCLE   14   ENERGY  -112.21970918   GNORM  0.081768  GE CURVATURE 10.088  
 INPUT CARD>!    CYCLE   15   ENERGY  -112.21856765   GNORM  0.081865  GE CURVATURE  0.585  
 INPUT CARD>!    CYCLE   16   ENERGY  -112.21461839   GNORM  0.079448  GE CURVATURE  3.170  
 INPUT CARD>!    CYCLE   17   ENERGY  -112.20861805   GNORM  0.068963  GE CURVATURE  3.126  
 INPUT CARD>!    CYCLE   18   ENERGY  -112.20296135   GNORM  0.048031  GE CURVATURE  1.704  
 INPUT CARD>!      after which the run shifts to a saddle point search,                     
 INPUT CARD>!    NSERCH:   0  E=     -112.1995664236  R.M.S.=  0.0056366                    
 INPUT CARD>!    NSERCH:   1  E=     -112.1981535560  R.M.S.=  0.0111897                    
 INPUT CARD>!    NSERCH:   2  E=     -112.1989747325  R.M.S.=  0.0008369                    
 INPUT CARD>!    NSERCH:   3  E=     -112.1989779727  R.M.S.=  0.0000037                    
 INPUT CARD>!                                                                               
 INPUT CARD>!  This run takes 7 seconds on a 2.66 GHz Cloverton (29 Apr 2015)               
 INPUT CARD>!  results haven't changed significantly since at least 2005.                   
 INPUT CARD>!                                                                               
 INPUT CARD> $contrl scftyp=rhf runtyp=gradextr nzvar=6 $end                                
 INPUT CARD> $system mwords=1 $end                                                          
 INPUT CARD> $zmat   izmat(1)=1,1,2, 1,1,3, 1,2,4, 2,1,2,4, 2,2,1,3,                        
 INPUT CARD>                  3,3,1,2,4  $end                                               
 INPUT CARD> $scf    nconv=8 $end                                                           
 INPUT CARD> $gradex ifolow=-1 $end                                                         
    1000000 WORDS OF MEMORY AVAILABLE

     BASIS OPTIONS
     -------------
     GBASIS=STO          IGAUSS=       3      POLAR=NONE    
     NDFUNC=       0     NFFUNC=       0     DIFFSP=       F
     NPFUNC=       0      DIFFS=       F     BASNAM=        


     RUN TITLE
     ---------
 cis hydroxycarbene...trace the extremal connecting M4 to SOSP1                  

 THE POINT GROUP OF THE MOLECULE IS CS      
 THE ORDER OF THE PRINCIPAL AXIS IS     0

 ATOM      ATOMIC                      COORDINATES (BOHR)
           CHARGE         X                   Y                   Z
 C           6.0     0.2354428505        1.4210153613        0.0000000000
 O           8.0     0.2354428505       -1.0855304169        0.0000000000
 H           1.0    -1.8186987467        2.0139131105        0.0000000000
 H           1.0    -1.4775087197       -1.8557562734        0.0000000000

          INTERNUCLEAR DISTANCES (ANGS.)
          ------------------------------

                1 C          2 O          3 H          4 H     

   1 C       0.0000000    1.3264070 *  1.1313787 *  1.9566278 *
   2 O       1.3264070 *  0.0000000    1.9676606 *  0.9938747 *
   3 H       1.1313787 *  1.9676606 *  0.0000000    2.0556852 *
   4 H       1.9566278 *  0.9938747 *  2.0556852 *  0.0000000  

  * ... LESS THAN  3.000


     ATOMIC BASIS SET
     ----------------
 THE CONTRACTED PRIMITIVE FUNCTIONS HAVE BEEN UNNORMALIZED
 THE CONTRACTED BASIS FUNCTIONS ARE NOW NORMALIZED TO UNITY

  SHELL TYPE  PRIMITIVE        EXPONENT          CONTRACTION COEFFICIENT(S)

 C         

      1   S       1            71.6168373    0.154328967295
      1   S       2            13.0450963    0.535328142282
      1   S       3             3.5305122    0.444634542185

      2   L       4             2.9412494   -0.099967229187    0.155916274999
      2   L       5             0.6834831    0.399512826089    0.607683718598
      2   L       6             0.2222899    0.700115468880    0.391957393099

 O         

      3   S       7           130.7093214    0.154328967295
      3   S       8            23.8088661    0.535328142282
      3   S       9             6.4436083    0.444634542185

      4   L      10             5.0331513   -0.099967229187    0.155916274999
      4   L      11             1.1695961    0.399512826089    0.607683718598
      4   L      12             0.3803890    0.700115468880    0.391957393099

 H         

      5   S      13             3.4252509    0.154328967295
      5   S      14             0.6239137    0.535328142282
      5   S      15             0.1688554    0.444634542185

 H         

      6   S      16             3.4252509    0.154328967295
      6   S      17             0.6239137    0.535328142282
      6   S      18             0.1688554    0.444634542185

 TOTAL NUMBER OF BASIS SET SHELLS             =    6
 NUMBER OF CARTESIAN GAUSSIAN BASIS FUNCTIONS =   12
 NUMBER OF ELECTRONS                          =   16
 CHARGE OF MOLECULE                           =    0
 SPIN MULTIPLICITY                            =    1
 NUMBER OF OCCUPIED ORBITALS (ALPHA)          =    8
 NUMBER OF OCCUPIED ORBITALS (BETA )          =    8
 TOTAL NUMBER OF ATOMS                        =    4
 THE NUCLEAR REPULSION ENERGY IS       30.2473767105

     $CONTRL OPTIONS
     ---------------
 SCFTYP=RHF          RUNTYP=GRADEXTR     EXETYP=RUN     
 MPLEVL=       0     CITYP =NONE         CCTYP =NONE         VBTYP =NONE    
 DFTTYP=NONE         TDDFT =NONE    
 MULT  =       1     ICHARG=       0     NZVAR =       6     COORD =UNIQUE  
 PP    =NONE         RELWFN=NONE         LOCAL =NONE         NUMGRD=       F
 ISPHER=      -1     NOSYM =       0     MAXIT =      30     UNITS =ANGS    
 PLTORB=       F     MOLPLT=       F     AIMPAC=       F     FRIEND=        
 NPRINT=       7     IREST =       0     GEOM  =INPUT   
 NORMF =       0     NORMP =       0     ITOL  =      20     ICUT  =       9
 INTTYP=BEST         GRDTYP=BEST         QMTTOL= 1.0E-06

     $SYSTEM OPTIONS
     ---------------
  REPLICATED MEMORY=     1000000 WORDS (ON EVERY NODE).
 DISTRIBUTED MEMDDI=           0 MILLION WORDS IN AGGREGATE,
 MEMDDI DISTRIBUTED OVER   1 PROCESSORS IS           0 WORDS/PROCESSOR.
 TOTAL MEMORY REQUESTED ON EACH PROCESSOR=     1000000 WORDS.
 TIMLIM=      525600.00 MINUTES, OR     365.0 DAYS.
 PARALL= F  BALTYP=  DLB     KDIAG=    0  COREFL= F
 MXSEQ2=     300 MXSEQ3=     150  mem10=         0

          ----------------
          PROPERTIES INPUT
          ----------------

     MOMENTS            FIELD           POTENTIAL          DENSITY
 IEMOM =       1   IEFLD =       0   IEPOT =       0   IEDEN =       0
 WHERE =COMASS     WHERE =NUCLEI     WHERE =NUCLEI     WHERE =NUCLEI  
 OUTPUT=BOTH       OUTPUT=BOTH       OUTPUT=BOTH       OUTPUT=BOTH    
 IEMINT=       0   IEFINT=       0                     IEDINT=       0
                                                       MORB  =       0
          EXTRAPOLATION IN EFFECT
          SOSCF IN EFFECT
 ORBITAL PRINTING OPTION: NPREO=     1    12     2     1

     -------------------------------
     INTEGRAL TRANSFORMATION OPTIONS
     -------------------------------
     NWORD  =            0
     CUTOFF = 1.0E-09     MPTRAN =       0
     DIRTRF =       F     AOINTS =DUP     

          ----------------------
          INTEGRAL INPUT OPTIONS
          ----------------------
 NOPK  =       1 NORDER=       0 SCHWRZ=       F

   --- ENCODED Z MATRIX ---
 COORD  TYPE   I   J   K   L   M   N
    1      1    1   2
    2      1    1   3
    3      1    2   4
    4      2    1   2   4
    5      2    2   1   3
    6      3    3   1   2   4

 THE DETERMINANT OF THE G MATRIX IS 10**(    -3)


                     --------------------
                     INTERNAL COORDINATES
                     --------------------

                 - - ATOMS - -         COORDINATE      COORDINATE
 NO.   TYPE    I  J  K  L  M  N        (BOHR,RAD)       (ANG,DEG)
 ----------------------------------------------------------------
   1 STRETCH   1  2                     2.5065458       1.3264070
   2 STRETCH   1  3                     2.1379957       1.1313787
   3 STRETCH   2  4                     1.8781509       0.9938747
   4 BEND      1  2  4                  1.9933578     114.2109882
   5 BEND      2  1  3                  1.8517944     106.1000062
   6 TORSION   3  1  2  4               0.0000000       0.0000000

     ------------------------------------------
     THE POINT GROUP IS CS , NAXIS= 0, ORDER= 2
     ------------------------------------------

     DIMENSIONS OF THE SYMMETRY SUBSPACES ARE
 A'  =   10     A'' =    2

 ..... DONE SETTING UP THE RUN .....
 STEP CPU TIME =     0.01 TOTAL CPU TIME =        0.0 (    0.0 MIN)
 TOTAL WALL CLOCK TIME=        0.0 SECONDS, CPU UTILIZATION IS  25.00%


          ---------------------
          GRADIENT EXTREMAL RUN
          ---------------------


          PARAMETERS CONTROLLING GEOMETRY SEARCH ARE
          METHOD =SR                  NSTEP  =        50
          IFOLOW =        -1          RESTAR =         F
          STPT   =         T          GOFRST =         T
          DPRED  = 1.000E-01          DELCOR = 1.000E-03
          SNUMH  = 1.000E-04          OPTTOL = 1.000E-04
          SNRMAX = 1.000E-01          MYSTEP =        20
          STSTEP = 1.000E-02          HSDFDB =         T

 OBTAINING INITIAL HESSIAN, HESS=CALC    

     ---------------------------------
     HESSIAN MATRIX CONTROL PARAMETERS
     ---------------------------------
     METHOD=ANALYTIC   NVIB  =       2   VIBSIZ= 0.01000
     RDHESS=       F   PURIFY=       F   PRTIFC=       F
     VIBANL=       F   DECOMP=       F   PROJCT=       F
     SCLFAC= 1.00000   PRTSCN=       F   NPRT  =       0
     PULCOR=       F   NPUN  =       0   REDOVB=       T
     HSSTYP=GENERAL 
 Old integral subroutine is used

     ------------------------------
     CPHF RESPONSE SOLUTION OPTIONS
     ------------------------------
     POLAR  =       F     NWORD  =       0
     CPHF   =AO      

          ********************
          1 ELECTRON INTEGRALS
          ********************
 ...... END OF ONE-ELECTRON INTEGRALS ......
 STEP CPU TIME =     0.00 TOTAL CPU TIME =        0.0 (    0.0 MIN)
 TOTAL WALL CLOCK TIME=        0.0 SECONDS, CPU UTILIZATION IS  25.00%

          -------------
          GUESS OPTIONS
          -------------
          GUESS =HUCKEL            NORB  =       0          NORDER=       0
          MIX   =       F          PRTMO =       F          PUNMO =       F
          TOLZ  = 1.0E-08          TOLE  = 1.0E-05
          SYMDEN=       F          PURIFY=       F

 INITIAL GUESS ORBITALS GENERATED BY HUCKEL   ROUTINE.
 HUCKEL GUESS REQUIRES      4428 WORDS.

 SYMMETRIES FOR INITIAL GUESS ORBITALS FOLLOW.   BOTH SET(S).
     8 ORBITALS ARE OCCUPIED (    2 CORE ORBITALS).
     3=A'       4=A'       5=A'       6=A''      7=A'       8=A'       9=A'' 
    10=A'      11=A'      12=A'  
 ...... END OF INITIAL ORBITAL SELECTION ......
 STEP CPU TIME =     0.01 TOTAL CPU TIME =        0.0 (    0.0 MIN)
 TOTAL WALL CLOCK TIME=        0.1 SECONDS, CPU UTILIZATION IS  40.00%

                    ----------------------
                    AO INTEGRAL TECHNOLOGY
                    ----------------------
     S,P,L SHELL ROTATED AXIS INTEGRALS, REPROGRAMMED BY
        KAZUYA ISHIMURA (IMS) AND JOSE SIERRA (SYNSTAR).
     S,P,D,L SHELL ROTATED AXIS INTEGRALS PROGRAMMED BY
        KAZUYA ISHIMURA (INSTITUTE FOR MOLECULAR SCIENCE).
     S,P,D,F,G SHELL TO TOTAL QUARTET ANGULAR MOMENTUM SUM 5,
        ERIC PROGRAM BY GRAHAM FLETCHER (ELORET AND NASA ADVANCED
        SUPERCOMPUTING DIVISION, AMES RESEARCH CENTER).
     S,P,D,F,G,L SHELL GENERAL RYS QUADRATURE PROGRAMMED BY
        MICHEL DUPUIS (PACIFIC NORTHWEST NATIONAL LABORATORY).

          --------------------
          2 ELECTRON INTEGRALS
          --------------------

 THE -PK- OPTION IS OFF, THE INTEGRALS ARE NOT IN SUPERMATRIX FORM.
 STORING   15000 INTEGRALS/RECORD ON DISK, USING 12 BYTES/INTEGRAL.
 TWO ELECTRON INTEGRAL EVALUATION REQUIRES   89377 WORDS OF MEMORY.
 II,JST,KST,LST =  1  1  1  1 NREC =         1 INTLOC =    1
 II,JST,KST,LST =  2  1  1  1 NREC =         1 INTLOC =    2
 II,JST,KST,LST =  3  1  1  1 NREC =         1 INTLOC =   34
 II,JST,KST,LST =  4  1  1  1 NREC =         1 INTLOC =   83
 II,JST,KST,LST =  5  1  1  1 NREC =         1 INTLOC =  512
 II,JST,KST,LST =  6  1  1  1 NREC =         1 INTLOC =  941
 TOTAL NUMBER OF NONZERO TWO-ELECTRON INTEGRALS =                1513
          1 INTEGRAL RECORDS WERE STORED ON DISK FILE  8.
  ...... END OF TWO-ELECTRON INTEGRALS .....
 STEP CPU TIME =     0.02 TOTAL CPU TIME =        0.0 (    0.0 MIN)
 TOTAL WALL CLOCK TIME=        0.1 SECONDS, CPU UTILIZATION IS  30.77%

          --------------------------
                 RHF SCF CALCULATION
          --------------------------

     NUCLEAR ENERGY =        30.2473767105
     MAXIT =   30     NPUNCH=    1
     EXTRAP=T  DAMP=F  SHIFT=F  RSTRCT=F  DIIS=F  DEM=F  SOSCF=T
     DENSITY MATRIX CONV=  1.00E-08
     SOSCF WILL OPTIMIZE      32 ORBITAL ROTATIONS, SOGTOL=   0.250
     MEMORY REQUIRED FOR RHF ITERS=     31304 WORDS.

 ITER EX DEM     TOTAL ENERGY        E CHANGE  DENSITY CHANGE     ORB. GRAD
   1  0  0     -111.9307446490  -111.9307446490   0.720293510   0.000000000
          ---------------START SECOND ORDER SCF---------------
   2  1  0     -112.2285593310    -0.2978146820   0.190088294   0.102850971
   3  2  0     -112.2648570573    -0.0362977263   0.082180814   0.023343912
   4  3  0     -112.2685312460    -0.0036741887   0.035811193   0.006566106
   5  4  0     -112.2690337626    -0.0005025166   0.005653405   0.001801086
   6  5  0     -112.2690836559    -0.0000498933   0.003213428   0.000965530
   7  6  0     -112.2690924880    -0.0000088320   0.000869483   0.000257580
   8  7  0     -112.2690930608    -0.0000005728   0.000287753   0.000113474
   9  8  0     -112.2690931583    -0.0000000975   0.000070836   0.000023931
  10  9  0     -112.2690931627    -0.0000000044   0.000018509   0.000005399
  11 10  0     -112.2690931629    -0.0000000002   0.000001659   0.000000964
  12 11  0     -112.2690931629    -0.0000000000   0.000000642   0.000000327
  13 12  0     -112.2690931629    -0.0000000000   0.000000125   0.000000055
  14 13  0     -112.2690931629     0.0000000000   0.000000000   0.000000008

          -----------------
          DENSITY CONVERGED
          -----------------
     TIME TO FORM FOCK OPERATORS=       0.0 SECONDS (       0.0 SEC/ITER)
     TIME TO SOLVE SCF EQUATIONS=       0.0 SECONDS (       0.0 SEC/ITER)

 FINAL RHF ENERGY IS     -112.2690931629 AFTER  14 ITERATIONS

          ------------
          EIGENVECTORS
          ------------

                      1          2          3          4          5
                  -20.3626   -11.0242    -1.3698    -0.8010    -0.6534
                     A'         A'         A'         A'         A'  
    1  C  1  S    0.000512   0.993149  -0.082067  -0.187196   0.034523
    2  C  1  S   -0.005154   0.029181   0.188915   0.600441  -0.099708
    3  C  1  X    0.000307  -0.005218  -0.025866  -0.107835   0.292980
    4  C  1  Y    0.004789  -0.004137  -0.111495  -0.066154  -0.191343
    5  C  1  Z    0.000000  -0.000000  -0.000000   0.000000  -0.000000
    6  O  2  S    0.994117   0.000371  -0.227853   0.064780  -0.062240
    7  O  2  S    0.026616  -0.005449   0.815416  -0.287426   0.300344
    8  O  2  X   -0.003063   0.000039  -0.098880   0.117387   0.494327
    9  O  2  Y    0.002680  -0.002934   0.096410   0.419160   0.171986
   10  O  2  Z    0.000000  -0.000000  -0.000000   0.000000  -0.000000
   11  H  3  S    0.000677  -0.007182   0.023748   0.240867  -0.326919
   12  H  4  S   -0.005586  -0.001004   0.126805  -0.274833  -0.348050

                      6          7          8          9         10
                   -0.4822    -0.4767    -0.2878     0.2743     0.5068
                     A''        A'         A'         A''        A'  
    1  C  1  S    0.000000   0.054660  -0.138972   0.000000   0.022616
    2  C  1  S    0.000000  -0.215764   0.624225   0.000000  -0.165987
    3  C  1  X    0.000000  -0.020314   0.622537   0.000000   0.308895
    4  C  1  Y    0.000000  -0.374892   0.305192   0.000000  -0.446295
    5  C  1  Z    0.307361  -0.000000   0.000000   0.966334   0.000000
    6  O  2  S    0.000000   0.049708   0.044784   0.000000   0.107579
    7  O  2  S    0.000000  -0.262700  -0.238550   0.000000  -0.705413
    8  O  2  X    0.000000  -0.521350  -0.242087   0.000000   0.615279
    9  O  2  Y    0.000000   0.562499  -0.030685   0.000000   0.091653
   10  O  2  Z    0.901992  -0.000000   0.000000  -0.463337   0.000000
   11  H  3  S    0.000000  -0.285857  -0.346945   0.000000   0.440358
   12  H  4  S    0.000000   0.101798   0.263758   0.000000   0.966927

                     11         12
                    0.7044     0.7861
                     A'         A'  
    1  C  1  S    0.145248   0.082123
    2  C  1  S   -0.867121  -0.460633
    3  C  1  X    0.852281  -0.239920
    4  C  1  Y    0.162003   0.965947
    5  C  1  Z   -0.000000  -0.000000
    6  O  2  S   -0.067309  -0.054875
    7  O  2  S    0.445852   0.370499
    8  O  2  X   -0.345110   0.344326
    9  O  2  Y    0.270937   0.862184
   10  O  2  Z   -0.000000  -0.000000
   11  H  3  S    1.071928  -0.216008
   12  H  4  S   -0.331801   0.469747
 ...... END OF RHF CALCULATION ......
 STEP CPU TIME =     0.01 TOTAL CPU TIME =        0.0 (    0.0 MIN)
 TOTAL WALL CLOCK TIME=        0.3 SECONDS, CPU UTILIZATION IS  15.15%

     ----------------------------------------------------------------
     PROPERTY VALUES FOR THE RHF   SELF-CONSISTENT FIELD WAVEFUNCTION
     ----------------------------------------------------------------

          -----------------
          ENERGY COMPONENTS
          -----------------

         WAVEFUNCTION NORMALIZATION =       1.0000000000

                ONE ELECTRON ENERGY =    -214.1174871809
                TWO ELECTRON ENERGY =      71.6010173075
           NUCLEAR REPULSION ENERGY =      30.2473767105
                                      ------------------
                       TOTAL ENERGY =    -112.2690931629

 ELECTRON-ELECTRON POTENTIAL ENERGY =      71.6010173075
  NUCLEUS-ELECTRON POTENTIAL ENERGY =    -325.7775721013
   NUCLEUS-NUCLEUS POTENTIAL ENERGY =      30.2473767105
                                      ------------------
             TOTAL POTENTIAL ENERGY =    -223.9291780833
               TOTAL KINETIC ENERGY =     111.6600849204
                 VIRIAL RATIO (V/T) =       2.0054541266

  ...... PI ENERGY ANALYSIS ......

 ENERGY ANALYSIS:
            FOCK ENERGY=    -70.9154525735
          BARE H ENERGY=   -214.1174871809
     ELECTRONIC ENERGY =   -142.5164698772
         KINETIC ENERGY=    111.6600849204
          N-N REPULSION=     30.2473767105
           TOTAL ENERGY=   -112.2690931667
        SIGMA PART(1+2)=   -132.8338626376
               (K,V1,2)=    107.2002860916   -302.9168616154     62.8827128862
           PI PART(1+2)=     -9.6826072396
               (K,V1,2)=      4.4597988288    -22.8607104859      8.7183044175
  SIGMA SKELETON, ERROR=   -102.5864859272     -0.0000000000
             MIXED PART= 0.00000E+00 0.00000E+00 0.00000E+00 0.00000E+00
 ...... END OF PI ENERGY ANALYSIS ......

          ---------------------------------------
          MULLIKEN AND LOWDIN POPULATION ANALYSES
          ---------------------------------------

     ATOMIC MULLIKEN POPULATION IN EACH MOLECULAR ORBITAL

                      1          2          3          4          5

                  2.000000   2.000000   2.000000   2.000000   2.000000

    1            -0.000822   2.001531   0.283631   0.840115   0.482172
    2             2.001427  -0.000598   1.567741   0.698875   0.840942
    3             0.000008  -0.000913   0.009279   0.251447   0.358569
    4            -0.000613  -0.000020   0.139349   0.209563   0.318317

                      6          7          8

                  2.000000   2.000000   2.000000

    1             0.280881   0.476635   1.565330
    2             1.719119   1.299542   0.137651
    3             0.000000   0.208229   0.191790
    4             0.000000   0.015594   0.105229

               ----- POPULATIONS IN EACH AO -----
                             MULLIKEN      LOWDIN
              1  C  1  S      1.99605     1.99245
              2  C  1  S      1.60061     1.53583
              3  C  1  X      1.24608     1.27903
              4  C  1  Y      0.80586     0.89626
              5  C  1  Z      0.28088     0.29084
              6  O  2  S      1.99751     1.99568
              7  O  2  S      1.81031     1.65289
              8  O  2  X      1.41690     1.42492
              9  O  2  Y      1.32087     1.33636
             10  O  2  Z      1.71912     1.70916
             11  H  3  S      1.01841     1.03701
             12  H  4  S      0.78742     0.84956

          ----- MULLIKEN ATOMIC OVERLAP POPULATIONS -----
          (OFF-DIAGONAL ELEMENTS NEED TO BE MULTIPLIED BY 2)

             1           2           3           4

    1    5.3256207
    2    0.3198110   7.7132703
    3    0.3217680  -0.0233235   0.7351874
    4   -0.0377264   0.2549409  -0.0152238   0.5854293

          TOTAL MULLIKEN AND LOWDIN ATOMIC POPULATIONS
       ATOM         MULL.POP.    CHARGE          LOW.POP.     CHARGE
    1 C             5.929473    0.070527         5.994410    0.005590
    2 O             8.264699   -0.264699         8.119018   -0.119018
    3 H             1.018408   -0.018408         1.037013   -0.037013
    4 H             0.787420    0.212580         0.849559    0.150441

          -------------------------------
          BOND ORDER AND VALENCE ANALYSIS     BOND ORDER THRESHOLD=0.050
          -------------------------------

                   BOND                       BOND                       BOND
  ATOM PAIR DIST  ORDER      ATOM PAIR DIST  ORDER      ATOM PAIR DIST  ORDER
    1   2  1.326  1.359        1   3  1.131  0.976        2   4  0.994  0.915

                       TOTAL       BONDED        FREE
      ATOM            VALENCE     VALENCE     VALENCE
    1 C                 2.372       2.372       0.000
    2 O                 2.295       2.295      -0.000
    3 H                 1.000       1.000       0.000
    4 H                 0.955       0.955      -0.000

          ---------------------
          ELECTROSTATIC MOMENTS
          ---------------------

 POINT   1           X           Y           Z (BOHR)    CHARGE
                 0.108935   -0.005044    0.000000        0.00 (A.U.)
         DX          DY          DZ         /D/  (DEBYE)
    -2.547208   -1.160653    0.000000    2.799175
 ...... END OF PROPERTY EVALUATION ......
 STEP CPU TIME =     0.00 TOTAL CPU TIME =        0.0 (    0.0 MIN)
 TOTAL WALL CLOCK TIME=        0.3 SECONDS, CPU UTILIZATION IS  15.15%

 REGENERATING AO INTEGRAL LIST IN C1 POINT GROUP FOR AO-DRIVEN CPHF

          --------------------
          2 ELECTRON INTEGRALS
          --------------------

 THE -PK- OPTION IS OFF, THE INTEGRALS ARE NOT IN SUPERMATRIX FORM.
 STORING   15000 INTEGRALS/RECORD ON DISK, USING 12 BYTES/INTEGRAL.
 TWO ELECTRON INTEGRAL EVALUATION REQUIRES   89377 WORDS OF MEMORY.
 II,JST,KST,LST =  1  1  1  1 NREC =         1 INTLOC =    1
 II,JST,KST,LST =  2  1  1  1 NREC =         1 INTLOC =    2
 II,JST,KST,LST =  3  1  1  1 NREC =         1 INTLOC =   34
 II,JST,KST,LST =  4  1  1  1 NREC =         1 INTLOC =   83
 II,JST,KST,LST =  5  1  1  1 NREC =         1 INTLOC =  512
 II,JST,KST,LST =  6  1  1  1 NREC =         1 INTLOC =  941
 TOTAL NUMBER OF NONZERO TWO-ELECTRON INTEGRALS =                1513
          1 INTEGRAL RECORDS WERE STORED ON DISK FILE  8.
  ...... END OF TWO-ELECTRON INTEGRALS .....
 STEP CPU TIME =     0.00 TOTAL CPU TIME =        0.0 (    0.0 MIN)
 TOTAL WALL CLOCK TIME=        0.3 SECONDS, CPU UTILIZATION IS  15.15%

     ---------------------------------------------
     1ST AND 2ND INTEGRAL DERIVATIVE CONTRIBUTIONS
     ---------------------------------------------
 ...... END OF 1-ELECTRON GRAD+HESS+FOCKDER ......
 STEP CPU TIME =     0.01 TOTAL CPU TIME =        0.1 (    0.0 MIN)
 TOTAL WALL CLOCK TIME=        0.4 SECONDS, CPU UTILIZATION IS  17.14%

     ----------------------------------------------
     TWO ELECTRON INTEGRAL DERIVATIVE CONTRIBUTIONS
     ----------------------------------------------

       9054 WORDS REQUIRED,    999648 WORDS AVAILABLE
 THE COARSE/FINE SCHWARZ SCREENINGS SKIPPED          0/         0 BLOCKS.
 THE NUMBER OF DERIVATIVE INTEGRAL BLOCKS COMPUTED WAS       217
 STEP CPU TIME =     0.06 TOTAL CPU TIME =        0.1 (    0.0 MIN)
 TOTAL WALL CLOCK TIME=        0.9 SECONDS, CPU UTILIZATION IS  13.95%
 ...... END OF 2-ELECTRON GRAD+HESS+FOCKDER ......
 STEP CPU TIME =     0.00 TOTAL CPU TIME =        0.1 (    0.0 MIN)
 TOTAL WALL CLOCK TIME=        0.9 SECONDS, CPU UTILIZATION IS  13.95%

     -------------------------------------------
     COUPLED-PERTURBED CLOSED SHELL HARTREE-FOCK
     -------------------------------------------
 THE CPHF HAS      32 INDEPENDENT ORBITAL ROTATIONS.
 SOLVING FOR   12 NUCLEAR RESPONSES AND 0 ELECTRIC FIELD RESPONSES
           -FA- WILL USE      1704 WORDS,
           -TA- WILL USE      3390 WORDS,
          -FCK- WILL USE     33826 WORDS,
 -WXY- AND -YA- WILL USE     34500 WORDS,
               THERE ARE    999648 WORDS OF REPLICATED MEMORY AVAILABLE.
        TIME FOR -FA-   =        0.000
        TIME FOR -TA-   =        0.000
        TIME FOR -FCK-  =        0.000
 PRECONDITIONED CONJUGATE GRADIENT SOLVER     CONV. TOLERANCE=5.00E-05
 ITER    RESPONSE ERROR        IMPROVED
   1       5.43530E-01            12
   2       1.83217E-01            12
   3       5.56878E-02            12
   4       1.25281E-02            12
   5       2.68664E-03            12
   6       7.58062E-04            12
   7       7.49551E-05            12
   8       4.18878E-06             2
 THE CPHF HAS CONVERGED AFTER  8 ITERATIONS.
 IT REQUIRED    86 FOCK-LIKE BUILDS TO FIND THE  12 SYMMETRY UNIQUE RESPONSES.
        TIME FOR -YA-   =        0.000
 ...... DONE WITH CPHF CONTRIBUTIONS ......
 STEP CPU TIME =     0.00 TOTAL CPU TIME =        0.1 (    0.0 MIN)
 TOTAL WALL CLOCK TIME=        0.9 SECONDS, CPU UTILIZATION IS  13.48%
          THE FIRST FEW LOCAL MODES AND EIGENVALUES ARE

  MODE           1           2           3           4           5
          0.088249    0.118231    0.353744    0.771946    1.037113
  MODE
   1     -0.112787    0.000000    0.210304   -0.687449    0.319322
   2     -0.003190    0.000000    0.392907   -0.249556   -0.504215
   3      0.000000   -0.558146   -0.000000   -0.000000   -0.000000
   4     -0.112573    0.000000   -0.371513   -0.116848   -0.509224
   5      0.008061    0.000000    0.445224    0.179758    0.334759
   6      0.000000    0.627411   -0.000000   -0.000000    0.000000
   7      0.059724    0.000000    0.304905    0.581953   -0.246211
   8      0.684411   -0.000000   -0.431360   -0.084741    0.024500
   9      0.000000    0.347748   -0.000000   -0.000000   -0.000000
  10      0.165636    0.000000   -0.143696    0.222344    0.436114
  11     -0.689282    0.000000   -0.406771    0.154539    0.144956
  12      0.000000   -0.417013    0.000000   -0.000000   -0.000000

  MODE           6           7           8           9          10
          1.511171   -0.000000   -0.000000   -0.000000    0.000000
  MODE
   1     -0.016614   -0.004808    0.513124   -0.124777    0.292840
   2      0.465648    0.436365   -0.261137   -0.188292    0.067993
   3     -0.000000    0.152763    0.247625   -0.417548   -0.530918
   4     -0.472994   -0.055874    0.093408   -0.408823    0.057567
   5     -0.587417    0.436365   -0.261137   -0.188292    0.067993
   6      0.000000    0.277300    0.328810    0.055541   -0.581945
   7      0.056881    0.007271    0.612403   -0.057589    0.348492
   8     -0.029147    0.478214    0.082825    0.044487    0.260802
   9     -0.000000   -0.244468   -0.195798   -0.525012    0.197813
  10      0.432727   -0.071566   -0.035565   -0.496106   -0.014729
  11      0.150916    0.471263    0.025693    0.005822    0.228777
  12     -0.000000    0.008883    0.000000    0.204617    0.000000

          INPUT GEOMETRY TAKEN AS STATIONARY
          GENERATING INITIAL GEOMETRY BY TAKING A STEP OF 0.01000 ALONG HESSIAN MODE  -1
          WITH EIGENVALUE  0.088249 AND CARTESIAN COMPONENTS
  -0.11279  -0.00319   0.00000  -0.11257   0.00806   0.00000   0.05972   0.68441   0.00000
   0.16564  -0.68928   0.00000

          INTERNAL COMPONENTS
   0.68122   0.13242   0.13161   1.30828   1.44129   0.00000

                    PREDICTOR GEOMETRY

 COORDINATES OF SYMMETRY UNIQUE ATOMS (ANGS)
   ATOM   CHARGE       X              Y              Z
 ------------------------------------------------------------
 C           6.0   0.1239941571   0.7519521192   0.0000000000
 O           8.0   0.1239952887  -0.5743953443   0.0000000000
 H           1.0  -0.9620979532   1.0693387498   0.0000000000
 H           1.0  -0.7809874925  -0.9856715246   0.0000000000


                     --------------------
                     INTERNAL COORDINATES
                     --------------------

                 - - ATOMS - -         COORDINATE      COORDINATE
 NO.   TYPE    I  J  K  L  M  N        (BOHR,RAD)       (ANG,DEG)
 ----------------------------------------------------------------
   1 STRETCH   1  2                     2.5064333       1.3263475
   2 STRETCH   1  3                     2.1382568       1.1315168
   3 STRETCH   2  4                     1.8784883       0.9940533
   4 BEND      1  2  4                  1.9973500     114.4397276
   5 BEND      2  1  3                  1.8551086     106.2898948
   6 TORSION   3  1  2  4               0.0000000       0.0000000


     ----------------------------
     *** CALCULATING GRADIENT ***
     ----------------------------


 ...... END OF ONE-ELECTRON INTEGRALS ......
 STEP CPU TIME =     0.00 TOTAL CPU TIME =        0.1 (    0.0 MIN)
 TOTAL WALL CLOCK TIME=        0.9 SECONDS, CPU UTILIZATION IS  13.48%
 TOTAL NUMBER OF NONZERO TWO-ELECTRON INTEGRALS =                1792
          1 INTEGRAL RECORDS WERE STORED ON DISK FILE  8.
  ...... END OF TWO-ELECTRON INTEGRALS .....
 STEP CPU TIME =     0.01 TOTAL CPU TIME =        0.1 (    0.0 MIN)
 TOTAL WALL CLOCK TIME=        0.9 SECONDS, CPU UTILIZATION IS  14.44%

          --------------------------
                 RHF SCF CALCULATION
          --------------------------
     DENSITY MATRIX CONV=  1.00E-08

 ITER EX DEM     TOTAL ENERGY        E CHANGE  DENSITY CHANGE     ORB. GRAD
          ---------------START SECOND ORDER SCF---------------
   1  0  0     -112.2690863999  -112.2690863999   0.001056057   0.000550128
   2  1  0     -112.2690884004    -0.0000020005   0.000685956   0.000211667
   3  2  0     -112.2690887430    -0.0000003426   0.000051963   0.000023527
   4  3  0     -112.2690887471    -0.0000000041   0.000014346   0.000009782
   5  4  0     -112.2690887476    -0.0000000005   0.000004805   0.000001934
   6  5  0     -112.2690887476    -0.0000000000   0.000001220   0.000000429
   7  6  0     -112.2690887476    -0.0000000000   0.000000851   0.000000239
   8  7  0     -112.2690887476    -0.0000000000   0.000000123   0.000000032
   9  8  0     -112.2690887476    -0.0000000000   0.000000062   0.000000011
  10  9  0     -112.2690887476     0.0000000000   0.000000000   0.000000002

          -----------------
          DENSITY CONVERGED
          -----------------
     TIME TO FORM FOCK OPERATORS=       0.0 SECONDS (       0.0 SEC/ITER)
     TIME TO SOLVE SCF EQUATIONS=       0.0 SECONDS (       0.0 SEC/ITER)

 FINAL RHF ENERGY IS     -112.2690887476 AFTER  10 ITERATIONS
 ...... END OF RHF CALCULATION ......
 STEP CPU TIME =     0.00 TOTAL CPU TIME =        0.1 (    0.0 MIN)
 TOTAL WALL CLOCK TIME=        1.5 SECONDS, CPU UTILIZATION IS   8.61%
 ..... END OF 1-ELECTRON GRADIENT ......
 STEP CPU TIME =     0.00 TOTAL CPU TIME =        0.1 (    0.0 MIN)
 TOTAL WALL CLOCK TIME=        1.5 SECONDS, CPU UTILIZATION IS   8.61%
 ...... END OF 2-ELECTRON GRADIENT ......
 STEP CPU TIME =     0.00 TOTAL CPU TIME =        0.1 (    0.0 MIN)
 TOTAL WALL CLOCK TIME=        1.5 SECONDS, CPU UTILIZATION IS   8.55%


     ----------------------------
     *** END OF      GRADIENT ***
     ----------------------------



          NSERCH=  1     ENERGY=    -112.2690887

                              ------------------                         -----------------------
                              COORDINATES (BOHR)                         GRADIENT (HARTREE/BOHR)
                              ------------------                         -----------------------

        ATOM     ZNUC       X             Y             Z                    X             Y             Z
 ----------------------------------------------------------------------------------------------------------------

  1  C            6.0     0.2343150     1.4209835     0.0000000            -0.0000977    -0.0000053    -0.0000000
  2  O            8.0     0.2343171    -1.0854498     0.0000000            -0.0000911     0.0000116     0.0000000
  3  H            1.0    -1.8181015     2.0207572     0.0000000             0.0000504     0.0006038     0.0000000
  4  H            1.0    -1.4758524    -1.8626491     0.0000000             0.0001384    -0.0006101     0.0000000


                     --------------------
                     INTERNAL COORDINATES
                     --------------------

                 - - ATOMS - -         COORDINATE        GRADIENT
 NO.   TYPE    I  J  K  L  M  N         (ANG,DEG)     (H/B,H/RAD)
 ----------------------------------------------------------------
   1 STRETCH   1  2                     1.3263475       0.0005985
   2 STRETCH   1  3                     1.1315168       0.0001210
   3 STRETCH   2  4                     0.9940533       0.0001264
   4 BEND      1  2  4                114.4397276       0.0011509
   5 BEND      2  1  3                106.2898948       0.0012695
   6 TORSION   3  1  2  4               0.0000000       0.0000000


     --------------------------------------------
     *** CALCULATING PARTIAL THIRD DERIVATIVE ***
     --------------------------------------------


 Old integral subroutine is used
 ...... END OF ONE-ELECTRON INTEGRALS ......
 STEP CPU TIME =     0.00 TOTAL CPU TIME =        0.1 (    0.0 MIN)
 TOTAL WALL CLOCK TIME=        1.5 SECONDS, CPU UTILIZATION IS   8.55%
 TOTAL NUMBER OF NONZERO TWO-ELECTRON INTEGRALS =                1796
          1 INTEGRAL RECORDS WERE STORED ON DISK FILE  8.
  ...... END OF TWO-ELECTRON INTEGRALS .....
 STEP CPU TIME =     0.01 TOTAL CPU TIME =        0.1 (    0.0 MIN)
 TOTAL WALL CLOCK TIME=        1.5 SECONDS, CPU UTILIZATION IS   9.21%

          --------------------------
                 RHF SCF CALCULATION
          --------------------------
     DENSITY MATRIX CONV=  1.00E-08

 ITER EX DEM     TOTAL ENERGY        E CHANGE  DENSITY CHANGE     ORB. GRAD
          ---------------START SECOND ORDER SCF---------------
   1  0  0     -112.2690886587  -112.2690886587   0.000010569   0.000005473
   2  1  0     -112.2690886589    -0.0000000002   0.000006848   0.000002122
   3  2  0     -112.2690886589    -0.0000000000   0.000000493   0.000000216
   4  3  0     -112.2690886589    -0.0000000000   0.000000143   0.000000093
   5  4  0     -112.2690886589    -0.0000000000   0.000000048   0.000000019
   6  5  0     -112.2690886589    -0.0000000000   0.000000000   0.000000005

          -----------------
          DENSITY CONVERGED
          -----------------
     TIME TO FORM FOCK OPERATORS=       0.0 SECONDS (       0.0 SEC/ITER)
     TIME TO SOLVE SCF EQUATIONS=       0.0 SECONDS (       0.0 SEC/ITER)

 FINAL RHF ENERGY IS     -112.2690886589 AFTER   6 ITERATIONS
 ...... END OF RHF CALCULATION ......
 STEP CPU TIME =     0.01 TOTAL CPU TIME =        0.1 (    0.0 MIN)
 TOTAL WALL CLOCK TIME=        1.6 SECONDS, CPU UTILIZATION IS   9.62%

 REGENERATING AO INTEGRAL LIST IN C1 POINT GROUP FOR AO-DRIVEN CPHF
 TOTAL NUMBER OF NONZERO TWO-ELECTRON INTEGRALS =                1796
          1 INTEGRAL RECORDS WERE STORED ON DISK FILE  8.
  ...... END OF TWO-ELECTRON INTEGRALS .....
 STEP CPU TIME =     0.00 TOTAL CPU TIME =        0.1 (    0.0 MIN)
 TOTAL WALL CLOCK TIME=        1.6 SECONDS, CPU UTILIZATION IS   9.55%
 ...... END OF 1-ELECTRON GRAD+HESS+FOCKDER ......
 STEP CPU TIME =     0.00 TOTAL CPU TIME =        0.1 (    0.0 MIN)
 TOTAL WALL CLOCK TIME=        1.6 SECONDS, CPU UTILIZATION IS   9.49%
 THE COARSE/FINE SCHWARZ SCREENINGS SKIPPED          0/         0 BLOCKS.
 THE NUMBER OF DERIVATIVE INTEGRAL BLOCKS COMPUTED WAS       217
 STEP CPU TIME =     0.06 TOTAL CPU TIME =        0.2 (    0.0 MIN)
 TOTAL WALL CLOCK TIME=        1.7 SECONDS, CPU UTILIZATION IS  12.57%
 ...... END OF 2-ELECTRON GRAD+HESS+FOCKDER ......
 STEP CPU TIME =     0.00 TOTAL CPU TIME =        0.2 (    0.0 MIN)
 TOTAL WALL CLOCK TIME=        1.7 SECONDS, CPU UTILIZATION IS  12.57%
 SOLVING FOR   12 NUCLEAR RESPONSES AND 0 ELECTRIC FIELD RESPONSES
 PRECONDITIONED CONJUGATE GRADIENT SOLVER     CONV. TOLERANCE=5.00E-05
 ITER    RESPONSE ERROR        IMPROVED
   1       5.43899E-01            12
   2       1.83359E-01            12
   3       5.58657E-02            12
   4       1.25486E-02            12
   5       2.69409E-03            12
   6       7.56877E-04            12
   7       7.50088E-05            12
   8       4.20941E-06             2
 THE CPHF HAS CONVERGED AFTER  8 ITERATIONS.
 IT REQUIRED    86 FOCK-LIKE BUILDS TO FIND THE  12 SYMMETRY UNIQUE RESPONSES.
 ...... DONE WITH CPHF CONTRIBUTIONS ......
 STEP CPU TIME =     0.00 TOTAL CPU TIME =        0.2 (    0.0 MIN)
 TOTAL WALL CLOCK TIME=        1.7 SECONDS, CPU UTILIZATION IS  12.50%
 Old integral subroutine is used
 ...... END OF ONE-ELECTRON INTEGRALS ......
 STEP CPU TIME =     0.00 TOTAL CPU TIME =        0.2 (    0.0 MIN)
 TOTAL WALL CLOCK TIME=        1.7 SECONDS, CPU UTILIZATION IS  12.50%
 TOTAL NUMBER OF NONZERO TWO-ELECTRON INTEGRALS =                1784
          1 INTEGRAL RECORDS WERE STORED ON DISK FILE  8.
  ...... END OF TWO-ELECTRON INTEGRALS .....
 STEP CPU TIME =     0.00 TOTAL CPU TIME =        0.2 (    0.0 MIN)
 TOTAL WALL CLOCK TIME=        1.7 SECONDS, CPU UTILIZATION IS  12.43%

          --------------------------
                 RHF SCF CALCULATION
          --------------------------
     DENSITY MATRIX CONV=  1.00E-08

 ITER EX DEM     TOTAL ENERGY        E CHANGE  DENSITY CHANGE     ORB. GRAD
          ---------------START SECOND ORDER SCF---------------
   1  0  0     -112.2690888344  -112.2690888344   0.000021137   0.000010944
   2  1  0     -112.2690888352    -0.0000000008   0.000013696   0.000004243
   3  2  0     -112.2690888353    -0.0000000001   0.000000985   0.000000432
   4  3  0     -112.2690888353    -0.0000000000   0.000000285   0.000000186
   5  4  0     -112.2690888353    -0.0000000000   0.000000095   0.000000038
   6  5  0     -112.2690888353    -0.0000000000   0.000000000   0.000000009

          -----------------
          DENSITY CONVERGED
          -----------------
     TIME TO FORM FOCK OPERATORS=       0.0 SECONDS (       0.0 SEC/ITER)
     TIME TO SOLVE SCF EQUATIONS=       0.0 SECONDS (       0.0 SEC/ITER)

 FINAL RHF ENERGY IS     -112.2690888353 AFTER   6 ITERATIONS
 ...... END OF RHF CALCULATION ......
 STEP CPU TIME =     0.01 TOTAL CPU TIME =        0.2 (    0.0 MIN)
 TOTAL WALL CLOCK TIME=        1.7 SECONDS, CPU UTILIZATION IS  12.87%

 REGENERATING AO INTEGRAL LIST IN C1 POINT GROUP FOR AO-DRIVEN CPHF
 TOTAL NUMBER OF NONZERO TWO-ELECTRON INTEGRALS =                1784
          1 INTEGRAL RECORDS WERE STORED ON DISK FILE  8.
  ...... END OF TWO-ELECTRON INTEGRALS .....
 STEP CPU TIME =     0.00 TOTAL CPU TIME =        0.2 (    0.0 MIN)
 TOTAL WALL CLOCK TIME=        1.7 SECONDS, CPU UTILIZATION IS  12.79%
 ...... END OF 1-ELECTRON GRAD+HESS+FOCKDER ......
 STEP CPU TIME =     0.00 TOTAL CPU TIME =        0.2 (    0.0 MIN)
 TOTAL WALL CLOCK TIME=        1.7 SECONDS, CPU UTILIZATION IS  12.79%
 THE COARSE/FINE SCHWARZ SCREENINGS SKIPPED          0/         0 BLOCKS.
 THE NUMBER OF DERIVATIVE INTEGRAL BLOCKS COMPUTED WAS       217
 STEP CPU TIME =     0.07 TOTAL CPU TIME =        0.3 (    0.0 MIN)
 TOTAL WALL CLOCK TIME=        1.9 SECONDS, CPU UTILIZATION IS  15.26%
 ...... END OF 2-ELECTRON GRAD+HESS+FOCKDER ......
 STEP CPU TIME =     0.00 TOTAL CPU TIME =        0.3 (    0.0 MIN)
 TOTAL WALL CLOCK TIME=        1.9 SECONDS, CPU UTILIZATION IS  15.26%
 SOLVING FOR   12 NUCLEAR RESPONSES AND 0 ELECTRIC FIELD RESPONSES
 PRECONDITIONED CONJUGATE GRADIENT SOLVER     CONV. TOLERANCE=5.00E-05
 ITER    RESPONSE ERROR        IMPROVED
   1       5.43892E-01            12
   2       1.83357E-01            12
   3       5.58622E-02            12
   4       1.25482E-02            12
   5       2.69395E-03            12
   6       7.56899E-04            12
   7       7.50073E-05            12
   8       4.20896E-06             2
 THE CPHF HAS CONVERGED AFTER  8 ITERATIONS.
 IT REQUIRED    86 FOCK-LIKE BUILDS TO FIND THE  12 SYMMETRY UNIQUE RESPONSES.
 ...... DONE WITH CPHF CONTRIBUTIONS ......
 STEP CPU TIME =     0.00 TOTAL CPU TIME =        0.3 (    0.0 MIN)
 TOTAL WALL CLOCK TIME=        1.9 SECONDS, CPU UTILIZATION IS  15.18%


     --------------------------------------------
     *** END OF      PARTIAL THIRD DERIVATIVE ***
     --------------------------------------------


 PURE NR STEP HAS LENGTH    0.009942

 A-MATRIX EIGENVALUES AND B-VECTOR
    1       0.003573       0.000000
    2       0.093857       0.000035
    3       0.525050       0.003414
    4       0.980461       0.005049
    5       2.151323       0.031738
 GE INDEX =   0

 PROJECTIONS ALONG CURRENT HESSIAN EIGENVECTORS AND THEIR CURVATURE
              EIGENVALUE    GRADIENT    GE-TANGENT    E-VECTOR    E-CURVATURE
         1     0.087739     0.999860     1.000000     0.999997     0.000000
         2     0.118249    -0.000000    -0.000000    -0.000000     0.000000
         3     0.353580     0.000432     0.000060    -0.000122     0.000000
         4     0.770122    -0.006318     0.000181    -0.001592     0.000000
         5     1.035309    -0.005100     0.000046    -0.000578     0.000000
         6     1.511607     0.014656    -0.000097     0.001660     0.000000

                    CORRECTOR GEOMETRY

 COORDINATES OF SYMMETRY UNIQUE ATOMS (ANGS)
   ATOM   CHARGE       X              Y              Z
 ------------------------------------------------------------
 C           6.0   0.1239923102   0.7519523425   0.0000000000
 O           8.0   0.1239913181  -0.5743962986   0.0000000000
 H           1.0  -0.9620958611   1.0693380938   0.0000000000
 H           1.0  -0.7809837673  -0.9856701377   0.0000000000


                     --------------------
                     INTERNAL COORDINATES
                     --------------------

                 - - ATOMS - -         COORDINATE      COORDINATE
 NO.   TYPE    I  J  K  L  M  N        (BOHR,RAD)       (ANG,DEG)
 ----------------------------------------------------------------
   1 STRETCH   1  2                     2.5064355       1.3263486
   2 STRETCH   1  3                     2.1382492       1.1315128
   3 STRETCH   2  4                     1.8784733       0.9940453
   4 BEND      1  2  4                  1.9973527     114.4398800
   5 BEND      2  1  3                  1.8551073     106.2898162
   6 TORSION   3  1  2  4               0.0000000       0.0000000

     MACRO    1   MICRO    0   DNORM  0.000012   GE TAN ANGLE  0.15   ENERGY  -112.26908884
     CORRECTION STEP  0.000012 BELOW LIMIT  0.001000 TAKING NEW PREDICTOR STEP



     CYCLE    1   ENERGY  -112.26908884   GNORM  0.000881   GE CURVATURE   0.258
     CYCLE    1   ANGLE BETWEEN GE TANGENTS  0.15
     CYCLE    1   PREDICTOR  0.100000   CORRECTOR  0.000012   TOTAL  0.010000
                  ANGLE BETWEEN GE TANGENT AND GRADIENT  0.97



                    PREDICTOR GEOMETRY

 COORDINATES OF SYMMETRY UNIQUE ATOMS (ANGS)
   ATOM   CHARGE       X              Y              Z
 ------------------------------------------------------------
 C           6.0   0.1179664250   0.7517830674   0.0000000000
 O           8.0   0.1179660881  -0.5740009704   0.0000000000
 H           1.0  -0.9588866138   1.1055498696   0.0000000000
 H           1.0  -0.7721418993  -1.0221079666   0.0000000000


                     --------------------
                     INTERNAL COORDINATES
                     --------------------

                 - - ATOMS - -         COORDINATE      COORDINATE
 NO.   TYPE    I  J  K  L  M  N        (BOHR,RAD)       (ANG,DEG)
 ----------------------------------------------------------------
   1 STRETCH   1  2                     2.5053686       1.3257840
   2 STRETCH   1  3                     2.1419554       1.1334740
   3 STRETCH   2  4                     1.8831877       0.9965401
   4 BEND      1  2  4                  2.0371844     116.7220661
   5 BEND      2  1  3                  1.8882076     108.1863256
   6 TORSION   3  1  2  4               0.0000000       0.0000000


     ----------------------------
     *** CALCULATING GRADIENT ***
     ----------------------------


 ...... END OF ONE-ELECTRON INTEGRALS ......
 STEP CPU TIME =     0.00 TOTAL CPU TIME =        0.3 (    0.0 MIN)
 TOTAL WALL CLOCK TIME=        1.9 SECONDS, CPU UTILIZATION IS  15.18%
 TOTAL NUMBER OF NONZERO TWO-ELECTRON INTEGRALS =                1762
          1 INTEGRAL RECORDS WERE STORED ON DISK FILE  8.
  ...... END OF TWO-ELECTRON INTEGRALS .....
 STEP CPU TIME =     0.01 TOTAL CPU TIME =        0.3 (    0.0 MIN)
 TOTAL WALL CLOCK TIME=        1.9 SECONDS, CPU UTILIZATION IS  15.71%

          --------------------------
                 RHF SCF CALCULATION
          --------------------------
     DENSITY MATRIX CONV=  1.00E-08

 ITER EX DEM     TOTAL ENERGY        E CHANGE  DENSITY CHANGE     ORB. GRAD
          ---------------START SECOND ORDER SCF---------------
   1  0  0     -112.2683365739  -112.2683365739   0.010480510   0.005491738
   2  1  0     -112.2685346885    -0.0001981146   0.006804094   0.002125960
   3  2  0     -112.2685689171    -0.0000342285   0.000499946   0.000228684
   4  3  0     -112.2685692879    -0.0000003709   0.000146318   0.000093569
   5  4  0     -112.2685693369    -0.0000000490   0.000052823   0.000020658
   6  5  0     -112.2685693406    -0.0000000037   0.000013133   0.000005160
   7  6  0     -112.2685693409    -0.0000000002   0.000009202   0.000002608
   8  7  0     -112.2685693409    -0.0000000000   0.000001273   0.000000335
   9  8  0     -112.2685693409    -0.0000000000   0.000000662   0.000000120
  10  9  0     -112.2685693409    -0.0000000000   0.000000086   0.000000023
  11 10  0     -112.2685693409     0.0000000000   0.000000000   0.000000005

          -----------------
          DENSITY CONVERGED
          -----------------
     TIME TO FORM FOCK OPERATORS=       0.0 SECONDS (       0.0 SEC/ITER)
     TIME TO SOLVE SCF EQUATIONS=       0.0 SECONDS (       0.0 SEC/ITER)

 FINAL RHF ENERGY IS     -112.2685693409 AFTER  11 ITERATIONS
 ...... END OF RHF CALCULATION ......
 STEP CPU TIME =     0.00 TOTAL CPU TIME =        0.3 (    0.0 MIN)
 TOTAL WALL CLOCK TIME=        2.0 SECONDS, CPU UTILIZATION IS  15.38%
 ..... END OF 1-ELECTRON GRADIENT ......
 STEP CPU TIME =     0.00 TOTAL CPU TIME =        0.3 (    0.0 MIN)
 TOTAL WALL CLOCK TIME=        2.0 SECONDS, CPU UTILIZATION IS  15.38%
 ...... END OF 2-ELECTRON GRADIENT ......
 STEP CPU TIME =     0.01 TOTAL CPU TIME =        0.3 (    0.0 MIN)
 TOTAL WALL CLOCK TIME=        2.0 SECONDS, CPU UTILIZATION IS  15.90%


     ----------------------------
     *** END OF      GRADIENT ***
     ----------------------------



          NSERCH=  2     ENERGY=    -112.2685693

                              ------------------                         -----------------------
                              COORDINATES (BOHR)                         GRADIENT (HARTREE/BOHR)
                              ------------------                         -----------------------

        ATOM     ZNUC       X             Y             Z                    X             Y             Z
 ----------------------------------------------------------------------------------------------------------------

  1  C            6.0     0.2229242     1.4206640     0.0000000            -0.0007779    -0.0003056    -0.0000000
  2  O            8.0     0.2229236    -1.0847046     0.0000000            -0.0003511     0.0005936     0.0000000
  3  H            1.0    -1.8120330     2.0891863     0.0000000             0.0002707     0.0065207     0.0000000
  4  H            1.0    -1.4591366    -1.9315040     0.0000000             0.0008583    -0.0068087     0.0000000


                     --------------------
                     INTERNAL COORDINATES
                     --------------------

                 - - ATOMS - -         COORDINATE        GRADIENT
 NO.   TYPE    I  J  K  L  M  N         (ANG,DEG)     (H/B,H/RAD)
 ----------------------------------------------------------------
   1 STRETCH   1  2                     1.3257840       0.0062151
   2 STRETCH   1  3                     1.1334740       0.0017780
   3 STRETCH   2  4                     0.9965401       0.0022950
   4 BEND      1  2  4                116.7220661       0.0121795
   5 BEND      2  1  3                108.1863256       0.0134503
   6 TORSION   3  1  2  4               0.0000000       0.0000000


     --------------------------------------------
     *** CALCULATING PARTIAL THIRD DERIVATIVE ***
     --------------------------------------------


 Old integral subroutine is used
 ...... END OF ONE-ELECTRON INTEGRALS ......
 STEP CPU TIME =     0.00 TOTAL CPU TIME =        0.3 (    0.0 MIN)
 TOTAL WALL CLOCK TIME=        2.0 SECONDS, CPU UTILIZATION IS  15.90%
 TOTAL NUMBER OF NONZERO TWO-ELECTRON INTEGRALS =                1800
          1 INTEGRAL RECORDS WERE STORED ON DISK FILE  8.
  ...... END OF TWO-ELECTRON INTEGRALS .....
 STEP CPU TIME =     0.00 TOTAL CPU TIME =        0.3 (    0.0 MIN)
 TOTAL WALL CLOCK TIME=        2.0 SECONDS, CPU UTILIZATION IS  15.82%

          --------------------------
                 RHF SCF CALCULATION
          --------------------------
     DENSITY MATRIX CONV=  1.00E-08

 ITER EX DEM     TOTAL ENERGY        E CHANGE  DENSITY CHANGE     ORB. GRAD
          ---------------START SECOND ORDER SCF---------------
   1  0  0     -112.2685683858  -112.2685683858   0.000010363   0.000005281
   2  1  0     -112.2685683860    -0.0000000002   0.000006693   0.000002178
   3  2  0     -112.2685683861    -0.0000000000   0.000000371   0.000000183
   4  3  0     -112.2685683861    -0.0000000000   0.000000229   0.000000077
   5  4  0     -112.2685683861    -0.0000000000   0.000000045   0.000000021
   6  5  0     -112.2685683861     0.0000000000   0.000000000   0.000000009

          -----------------
          DENSITY CONVERGED
          -----------------
     TIME TO FORM FOCK OPERATORS=       0.0 SECONDS (       0.0 SEC/ITER)
     TIME TO SOLVE SCF EQUATIONS=       0.0 SECONDS (       0.0 SEC/ITER)

 FINAL RHF ENERGY IS     -112.2685683861 AFTER   6 ITERATIONS
 ...... END OF RHF CALCULATION ......
 STEP CPU TIME =     0.00 TOTAL CPU TIME =        0.3 (    0.0 MIN)
 TOTAL WALL CLOCK TIME=        2.0 SECONDS, CPU UTILIZATION IS  15.74%

 REGENERATING AO INTEGRAL LIST IN C1 POINT GROUP FOR AO-DRIVEN CPHF
 TOTAL NUMBER OF NONZERO TWO-ELECTRON INTEGRALS =                1800
          1 INTEGRAL RECORDS WERE STORED ON DISK FILE  8.
  ...... END OF TWO-ELECTRON INTEGRALS .....
 STEP CPU TIME =     0.00 TOTAL CPU TIME =        0.3 (    0.0 MIN)
 TOTAL WALL CLOCK TIME=        2.0 SECONDS, CPU UTILIZATION IS  15.74%
 ...... END OF 1-ELECTRON GRAD+HESS+FOCKDER ......
 STEP CPU TIME =     0.00 TOTAL CPU TIME =        0.3 (    0.0 MIN)
 TOTAL WALL CLOCK TIME=        2.0 SECONDS, CPU UTILIZATION IS  15.66%
 THE COARSE/FINE SCHWARZ SCREENINGS SKIPPED          0/         0 BLOCKS.
 THE NUMBER OF DERIVATIVE INTEGRAL BLOCKS COMPUTED WAS       217
 STEP CPU TIME =     0.06 TOTAL CPU TIME =        0.4 (    0.0 MIN)
 TOTAL WALL CLOCK TIME=        2.0 SECONDS, CPU UTILIZATION IS  18.14%
 ...... END OF 2-ELECTRON GRAD+HESS+FOCKDER ......
 STEP CPU TIME =     0.00 TOTAL CPU TIME =        0.4 (    0.0 MIN)
 TOTAL WALL CLOCK TIME=        2.0 SECONDS, CPU UTILIZATION IS  18.14%
 SOLVING FOR   12 NUCLEAR RESPONSES AND 0 ELECTRIC FIELD RESPONSES
 PRECONDITIONED CONJUGATE GRADIENT SOLVER     CONV. TOLERANCE=5.00E-05
 ITER    RESPONSE ERROR        IMPROVED
   1       5.47671E-01            12
   2       1.85112E-01            12
   3       5.76505E-02            12
   4       1.27491E-02            12
   5       2.79836E-03            12
   6       7.46739E-04            12
   7       7.66743E-05            12
   8       4.58977E-06             2
 THE CPHF HAS CONVERGED AFTER  8 ITERATIONS.
 IT REQUIRED    86 FOCK-LIKE BUILDS TO FIND THE  12 SYMMETRY UNIQUE RESPONSES.
 ...... DONE WITH CPHF CONTRIBUTIONS ......
 STEP CPU TIME =     0.00 TOTAL CPU TIME =        0.4 (    0.0 MIN)
 TOTAL WALL CLOCK TIME=        2.0 SECONDS, CPU UTILIZATION IS  18.14%
 Old integral subroutine is used
 ...... END OF ONE-ELECTRON INTEGRALS ......
 STEP CPU TIME =     0.00 TOTAL CPU TIME =        0.4 (    0.0 MIN)
 TOTAL WALL CLOCK TIME=        2.1 SECONDS, CPU UTILIZATION IS  18.05%
 TOTAL NUMBER OF NONZERO TWO-ELECTRON INTEGRALS =                1804
          1 INTEGRAL RECORDS WERE STORED ON DISK FILE  8.
  ...... END OF TWO-ELECTRON INTEGRALS .....
 STEP CPU TIME =     0.00 TOTAL CPU TIME =        0.4 (    0.0 MIN)
 TOTAL WALL CLOCK TIME=        2.1 SECONDS, CPU UTILIZATION IS  18.05%

          --------------------------
                 RHF SCF CALCULATION
          --------------------------
     DENSITY MATRIX CONV=  1.00E-08

 ITER EX DEM     TOTAL ENERGY        E CHANGE  DENSITY CHANGE     ORB. GRAD
          ---------------START SECOND ORDER SCF---------------
   1  0  0     -112.2685702916  -112.2685702916   0.000020728   0.000010563
   2  1  0     -112.2685702925    -0.0000000009   0.000013386   0.000004355
   3  2  0     -112.2685702926    -0.0000000001   0.000000741   0.000000365
   4  3  0     -112.2685702926    -0.0000000000   0.000000458   0.000000154
   5  4  0     -112.2685702926    -0.0000000000   0.000000091   0.000000042
   6  5  0     -112.2685702926     0.0000000000   0.000000061   0.000000017
   7  6  0     -112.2685702926    -0.0000000000   0.000000000   0.000000003

          -----------------
          DENSITY CONVERGED
          -----------------
     TIME TO FORM FOCK OPERATORS=       0.0 SECONDS (       0.0 SEC/ITER)
     TIME TO SOLVE SCF EQUATIONS=       0.0 SECONDS (       0.0 SEC/ITER)

 FINAL RHF ENERGY IS     -112.2685702926 AFTER   7 ITERATIONS
 ...... END OF RHF CALCULATION ......
 STEP CPU TIME =     0.00 TOTAL CPU TIME =        0.4 (    0.0 MIN)
 TOTAL WALL CLOCK TIME=        2.1 SECONDS, CPU UTILIZATION IS  18.05%

 REGENERATING AO INTEGRAL LIST IN C1 POINT GROUP FOR AO-DRIVEN CPHF
 TOTAL NUMBER OF NONZERO TWO-ELECTRON INTEGRALS =                1804
          1 INTEGRAL RECORDS WERE STORED ON DISK FILE  8.
  ...... END OF TWO-ELECTRON INTEGRALS .....
 STEP CPU TIME =     0.01 TOTAL CPU TIME =        0.4 (    0.0 MIN)
 TOTAL WALL CLOCK TIME=        2.1 SECONDS, CPU UTILIZATION IS  18.45%
 ...... END OF 1-ELECTRON GRAD+HESS+FOCKDER ......
 STEP CPU TIME =     0.00 TOTAL CPU TIME =        0.4 (    0.0 MIN)
 TOTAL WALL CLOCK TIME=        2.1 SECONDS, CPU UTILIZATION IS  18.45%
 THE COARSE/FINE SCHWARZ SCREENINGS SKIPPED          0/         0 BLOCKS.
 THE NUMBER OF DERIVATIVE INTEGRAL BLOCKS COMPUTED WAS       217
 STEP CPU TIME =     0.06 TOTAL CPU TIME =        0.4 (    0.0 MIN)
 TOTAL WALL CLOCK TIME=        2.1 SECONDS, CPU UTILIZATION IS  20.56%
 ...... END OF 2-ELECTRON GRAD+HESS+FOCKDER ......
 STEP CPU TIME =     0.00 TOTAL CPU TIME =        0.4 (    0.0 MIN)
 TOTAL WALL CLOCK TIME=        2.1 SECONDS, CPU UTILIZATION IS  20.56%
 SOLVING FOR   12 NUCLEAR RESPONSES AND 0 ELECTRIC FIELD RESPONSES
 PRECONDITIONED CONJUGATE GRADIENT SOLVER     CONV. TOLERANCE=5.00E-05
 ITER    RESPONSE ERROR        IMPROVED
   1       5.47663E-01            12
   2       1.85109E-01            12
   3       5.76477E-02            12
   4       1.27491E-02            12
   5       2.79828E-03            12
   6       7.46753E-04            12
   7       7.66674E-05            12
   8       4.58860E-06             2
 THE CPHF HAS CONVERGED AFTER  8 ITERATIONS.
 IT REQUIRED    86 FOCK-LIKE BUILDS TO FIND THE  12 SYMMETRY UNIQUE RESPONSES.
 ...... DONE WITH CPHF CONTRIBUTIONS ......
 STEP CPU TIME =     0.00 TOTAL CPU TIME =        0.4 (    0.0 MIN)
 TOTAL WALL CLOCK TIME=        2.1 SECONDS, CPU UTILIZATION IS  20.56%


     --------------------------------------------
     *** END OF      PARTIAL THIRD DERIVATIVE ***
     --------------------------------------------


 PURE NR STEP HAS LENGTH    0.112785

 A-MATRIX EIGENVALUES AND B-VECTOR
    1       0.001117       0.000000
    2       0.083413       0.000409
    3       0.471223       0.035429
    4       0.909463       0.033795
    5       2.073716       0.286050
 GE INDEX =   0

 PROJECTIONS ALONG CURRENT HESSIAN EIGENVECTORS AND THEIR CURVATURE
              EIGENVALUE    GRADIENT    GE-TANGENT    E-VECTOR    E-CURVATURE
         1     0.083396    -0.987546    -0.999991    -0.999727     0.000000
         2     0.118719     0.000000    -0.000000     0.000000     0.000000
         3     0.351544    -0.001485     0.003426    -0.001035     0.000000
         4     0.750034     0.070638    -0.002158     0.015840     0.000000
         5     1.014970    -0.035112     0.000330    -0.005827     0.000000
         6     1.512923     0.136119    -0.001182     0.016148     0.000000

                    CORRECTOR GEOMETRY

 COORDINATES OF SYMMETRY UNIQUE ATOMS (ANGS)
   ATOM   CHARGE       X              Y              Z
 ------------------------------------------------------------
 C           6.0   0.1176713259   0.7517806637   0.0000000000
 O           8.0   0.1176038379  -0.5741439253   0.0000000000
 H           1.0  -0.9586204060   1.1054964092   0.0000000000
 H           1.0  -0.7717507578  -1.0219091476   0.0000000000


                     --------------------
                     INTERNAL COORDINATES
                     --------------------

                 - - ATOMS - -         COORDINATE      COORDINATE
 NO.   TYPE    I  J  K  L  M  N        (BOHR,RAD)       (ANG,DEG)
 ----------------------------------------------------------------
   1 STRETCH   1  2                     2.5056342       1.3259246
   2 STRETCH   1  3                     2.1409175       1.1329249
   3 STRETCH   2  4                     1.8816256       0.9957135
   4 BEND      1  2  4                  2.0372687     116.7268955
   5 BEND      2  1  3                  1.8882688     108.1898306
   6 TORSION   3  1  2  4               0.0000000       0.0000000

     MACRO    2   MICRO    0   DNORM  0.001343   GE TAN ANGLE  1.48   ENERGY  -112.26857029
     CORRECTION STEP  0.001343 LARGER THAN LIMIT  0.001000 CONSTRUCTING IMPROVED GEOMETRY



     ----------------------------
     *** CALCULATING GRADIENT ***
     ----------------------------


 ...... END OF ONE-ELECTRON INTEGRALS ......
 STEP CPU TIME =     0.00 TOTAL CPU TIME =        0.4 (    0.0 MIN)
 TOTAL WALL CLOCK TIME=        2.1 SECONDS, CPU UTILIZATION IS  20.56%
 TOTAL NUMBER OF NONZERO TWO-ELECTRON INTEGRALS =                1819
          1 INTEGRAL RECORDS WERE STORED ON DISK FILE  8.
  ...... END OF TWO-ELECTRON INTEGRALS .....
 STEP CPU TIME =     0.00 TOTAL CPU TIME =        0.4 (    0.0 MIN)
 TOTAL WALL CLOCK TIME=        2.2 SECONDS, CPU UTILIZATION IS  20.47%

          --------------------------
                 RHF SCF CALCULATION
          --------------------------
     DENSITY MATRIX CONV=  1.00E-08

 ITER EX DEM     TOTAL ENERGY        E CHANGE  DENSITY CHANGE     ORB. GRAD
          ---------------START SECOND ORDER SCF---------------
   1  0  0     -112.2685702131  -112.2685702131   0.000258121   0.000126450
   2  1  0     -112.2685702750    -0.0000000619   0.000097383   0.000023096
   3  2  0     -112.2685702815    -0.0000000066   0.000016041   0.000013097
   4  3  0     -112.2685702820    -0.0000000005   0.000006016   0.000002262
   5  4  0     -112.2685702821    -0.0000000000   0.000001820   0.000000552
   6  5  0     -112.2685702821    -0.0000000000   0.000000496   0.000000215
   7  6  0     -112.2685702821    -0.0000000000   0.000000132   0.000000071
   8  7  0     -112.2685702821    -0.0000000000   0.000000039   0.000000017
   9  8  0     -112.2685702821     0.0000000000   0.000000000   0.000000004

          -----------------
          DENSITY CONVERGED
          -----------------
     TIME TO FORM FOCK OPERATORS=       0.0 SECONDS (       0.0 SEC/ITER)
     TIME TO SOLVE SCF EQUATIONS=       0.0 SECONDS (       0.0 SEC/ITER)

 FINAL RHF ENERGY IS     -112.2685702821 AFTER   9 ITERATIONS
 ...... END OF RHF CALCULATION ......
 STEP CPU TIME =     0.00 TOTAL CPU TIME =        0.4 (    0.0 MIN)
 TOTAL WALL CLOCK TIME=        2.2 SECONDS, CPU UTILIZATION IS  20.18%
 ..... END OF 1-ELECTRON GRADIENT ......
 STEP CPU TIME =     0.01 TOTAL CPU TIME =        0.5 (    0.0 MIN)
 TOTAL WALL CLOCK TIME=        2.2 SECONDS, CPU UTILIZATION IS  20.64%
 ...... END OF 2-ELECTRON GRADIENT ......
 STEP CPU TIME =     0.00 TOTAL CPU TIME =        0.5 (    0.0 MIN)
 TOTAL WALL CLOCK TIME=        2.2 SECONDS, CPU UTILIZATION IS  20.64%


     ----------------------------
     *** END OF      GRADIENT ***
     ----------------------------



          NSERCH=  2     ENERGY=    -112.2685703

                              ------------------                         -----------------------
                              COORDINATES (BOHR)                         GRADIENT (HARTREE/BOHR)
                              ------------------                         -----------------------

        ATOM     ZNUC       X             Y             Z                    X             Y             Z
 ----------------------------------------------------------------------------------------------------------------

  1  C            6.0     0.2223666     1.4206595     0.0000000            -0.0011820    -0.0000274    -0.0000000
  2  O            8.0     0.2222390    -1.0849747     0.0000000            -0.0012167     0.0000108     0.0000000
  3  H            1.0    -1.8115299     2.0890853     0.0000000             0.0006704     0.0064229     0.0000000
  4  H            1.0    -1.4583975    -1.9311283     0.0000000             0.0017283    -0.0064063     0.0000000


                     --------------------
                     INTERNAL COORDINATES
                     --------------------

                 - - ATOMS - -         COORDINATE        GRADIENT
 NO.   TYPE    I  J  K  L  M  N         (ANG,DEG)     (H/B,H/RAD)
 ----------------------------------------------------------------
   1 STRETCH   1  2                     1.3259246       0.0063955
   2 STRETCH   1  3                     1.1329249       0.0013684
   3 STRETCH   2  4                     0.9957135       0.0013372
   4 BEND      1  2  4                116.7268955       0.0122290
   5 BEND      2  1  3                108.1898306       0.0135115
   6 TORSION   3  1  2  4               0.0000000       0.0000000


     --------------------------------------------
     *** CALCULATING PARTIAL THIRD DERIVATIVE ***
     --------------------------------------------


 Old integral subroutine is used
 ...... END OF ONE-ELECTRON INTEGRALS ......
 STEP CPU TIME =     0.00 TOTAL CPU TIME =        0.5 (    0.0 MIN)
 TOTAL WALL CLOCK TIME=        2.2 SECONDS, CPU UTILIZATION IS  20.64%
 TOTAL NUMBER OF NONZERO TWO-ELECTRON INTEGRALS =                1819
          1 INTEGRAL RECORDS WERE STORED ON DISK FILE  8.
  ...... END OF TWO-ELECTRON INTEGRALS .....
 STEP CPU TIME =     0.00 TOTAL CPU TIME =        0.5 (    0.0 MIN)
 TOTAL WALL CLOCK TIME=        2.2 SECONDS, CPU UTILIZATION IS  20.55%

          --------------------------
                 RHF SCF CALCULATION
          --------------------------
     DENSITY MATRIX CONV=  1.00E-08

 ITER EX DEM     TOTAL ENERGY        E CHANGE  DENSITY CHANGE     ORB. GRAD
          ---------------START SECOND ORDER SCF---------------
   1  0  0     -112.2685693401  -112.2685693401   0.000010447   0.000005580
   2  1  0     -112.2685693403    -0.0000000002   0.000006859   0.000002148
   3  2  0     -112.2685693403    -0.0000000000   0.000000512   0.000000246
   4  3  0     -112.2685693403    -0.0000000000   0.000000146   0.000000099
   5  4  0     -112.2685693403     0.0000000000   0.000000050   0.000000020
   6  5  0     -112.2685693403     0.0000000000   0.000000000   0.000000004

          -----------------
          DENSITY CONVERGED
          -----------------
     TIME TO FORM FOCK OPERATORS=       0.0 SECONDS (       0.0 SEC/ITER)
     TIME TO SOLVE SCF EQUATIONS=       0.0 SECONDS (       0.0 SEC/ITER)

 FINAL RHF ENERGY IS     -112.2685693403 AFTER   6 ITERATIONS
 ...... END OF RHF CALCULATION ......
 STEP CPU TIME =     0.00 TOTAL CPU TIME =        0.5 (    0.0 MIN)
 TOTAL WALL CLOCK TIME=        2.2 SECONDS, CPU UTILIZATION IS  20.45%

 REGENERATING AO INTEGRAL LIST IN C1 POINT GROUP FOR AO-DRIVEN CPHF
 TOTAL NUMBER OF NONZERO TWO-ELECTRON INTEGRALS =                1819
          1 INTEGRAL RECORDS WERE STORED ON DISK FILE  8.
  ...... END OF TWO-ELECTRON INTEGRALS .....
 STEP CPU TIME =     0.00 TOTAL CPU TIME =        0.5 (    0.0 MIN)
 TOTAL WALL CLOCK TIME=        2.2 SECONDS, CPU UTILIZATION IS  20.45%
 ...... END OF 1-ELECTRON GRAD+HESS+FOCKDER ......
 STEP CPU TIME =     0.01 TOTAL CPU TIME =        0.5 (    0.0 MIN)
 TOTAL WALL CLOCK TIME=        2.3 SECONDS, CPU UTILIZATION IS  20.26%
 THE COARSE/FINE SCHWARZ SCREENINGS SKIPPED          0/         0 BLOCKS.
 THE NUMBER OF DERIVATIVE INTEGRAL BLOCKS COMPUTED WAS       217
 STEP CPU TIME =     0.04 TOTAL CPU TIME =        0.5 (    0.0 MIN)
 TOTAL WALL CLOCK TIME=        2.4 SECONDS, CPU UTILIZATION IS  20.83%
 ...... END OF 2-ELECTRON GRAD+HESS+FOCKDER ......
 STEP CPU TIME =     0.00 TOTAL CPU TIME =        0.5 (    0.0 MIN)
 TOTAL WALL CLOCK TIME=        2.4 SECONDS, CPU UTILIZATION IS  20.83%
 SOLVING FOR   12 NUCLEAR RESPONSES AND 0 ELECTRIC FIELD RESPONSES
 PRECONDITIONED CONJUGATE GRADIENT SOLVER     CONV. TOLERANCE=5.00E-05
 ITER    RESPONSE ERROR        IMPROVED
   1       5.47587E-01            12
   2       1.85179E-01            12
   3       5.76981E-02            12
   4       1.27697E-02            12
   5       2.80513E-03            12
   6       7.46261E-04            12
   7       7.65189E-05            12
   8       4.58088E-06             2
 THE CPHF HAS CONVERGED AFTER  8 ITERATIONS.
 IT REQUIRED    86 FOCK-LIKE BUILDS TO FIND THE  12 SYMMETRY UNIQUE RESPONSES.
 ...... DONE WITH CPHF CONTRIBUTIONS ......
 STEP CPU TIME =     0.00 TOTAL CPU TIME =        0.5 (    0.0 MIN)
 TOTAL WALL CLOCK TIME=        2.4 SECONDS, CPU UTILIZATION IS  20.75%
 Old integral subroutine is used
 ...... END OF ONE-ELECTRON INTEGRALS ......
 STEP CPU TIME =     0.00 TOTAL CPU TIME =        0.5 (    0.0 MIN)
 TOTAL WALL CLOCK TIME=        2.4 SECONDS, CPU UTILIZATION IS  20.75%
 TOTAL NUMBER OF NONZERO TWO-ELECTRON INTEGRALS =                1819
          1 INTEGRAL RECORDS WERE STORED ON DISK FILE  8.
  ...... END OF TWO-ELECTRON INTEGRALS .....
 STEP CPU TIME =     0.00 TOTAL CPU TIME =        0.5 (    0.0 MIN)
 TOTAL WALL CLOCK TIME=        2.4 SECONDS, CPU UTILIZATION IS  20.75%

          --------------------------
                 RHF SCF CALCULATION
          --------------------------
     DENSITY MATRIX CONV=  1.00E-08

 ITER EX DEM     TOTAL ENERGY        E CHANGE  DENSITY CHANGE     ORB. GRAD
          ---------------START SECOND ORDER SCF---------------
   1  0  0     -112.2685712220  -112.2685712220   0.000020893   0.000011159
   2  1  0     -112.2685712228    -0.0000000008   0.000013717   0.000004295
   3  2  0     -112.2685712230    -0.0000000001   0.000001024   0.000000491
   4  3  0     -112.2685712230    -0.0000000000   0.000000292   0.000000198
   5  4  0     -112.2685712230    -0.0000000000   0.000000099   0.000000039
   6  5  0     -112.2685712230     0.0000000000   0.000000000   0.000000009

          -----------------
          DENSITY CONVERGED
          -----------------
     TIME TO FORM FOCK OPERATORS=       0.0 SECONDS (       0.0 SEC/ITER)
     TIME TO SOLVE SCF EQUATIONS=       0.0 SECONDS (       0.0 SEC/ITER)

 FINAL RHF ENERGY IS     -112.2685712230 AFTER   6 ITERATIONS
 ...... END OF RHF CALCULATION ......
 STEP CPU TIME =     0.00 TOTAL CPU TIME =        0.5 (    0.0 MIN)
 TOTAL WALL CLOCK TIME=        2.4 SECONDS, CPU UTILIZATION IS  20.66%

 REGENERATING AO INTEGRAL LIST IN C1 POINT GROUP FOR AO-DRIVEN CPHF
 TOTAL NUMBER OF NONZERO TWO-ELECTRON INTEGRALS =                1819
          1 INTEGRAL RECORDS WERE STORED ON DISK FILE  8.
  ...... END OF TWO-ELECTRON INTEGRALS .....
 STEP CPU TIME =     0.00 TOTAL CPU TIME =        0.5 (    0.0 MIN)
 TOTAL WALL CLOCK TIME=        2.4 SECONDS, CPU UTILIZATION IS  20.66%
 ...... END OF 1-ELECTRON GRAD+HESS+FOCKDER ......
 STEP CPU TIME =     0.01 TOTAL CPU TIME =        0.5 (    0.0 MIN)
 TOTAL WALL CLOCK TIME=        2.4 SECONDS, CPU UTILIZATION IS  21.07%
 THE COARSE/FINE SCHWARZ SCREENINGS SKIPPED          0/         0 BLOCKS.
 THE NUMBER OF DERIVATIVE INTEGRAL BLOCKS COMPUTED WAS       217
 STEP CPU TIME =     0.04 TOTAL CPU TIME =        0.5 (    0.0 MIN)
 TOTAL WALL CLOCK TIME=        2.5 SECONDS, CPU UTILIZATION IS  22.18%
 ...... END OF 2-ELECTRON GRAD+HESS+FOCKDER ......
 STEP CPU TIME =     0.00 TOTAL CPU TIME =        0.5 (    0.0 MIN)
 TOTAL WALL CLOCK TIME=        2.5 SECONDS, CPU UTILIZATION IS  22.18%
 SOLVING FOR   12 NUCLEAR RESPONSES AND 0 ELECTRIC FIELD RESPONSES
 PRECONDITIONED CONJUGATE GRADIENT SOLVER     CONV. TOLERANCE=5.00E-05
 ITER    RESPONSE ERROR        IMPROVED
   1       5.47580E-01            12
   2       1.85175E-01            12
   3       5.76943E-02            12
   4       1.27693E-02            12
   5       2.80484E-03            12
   6       7.46282E-04            12
   7       7.65144E-05            12
   8       4.57985E-06             2
 THE CPHF HAS CONVERGED AFTER  8 ITERATIONS.
 IT REQUIRED    86 FOCK-LIKE BUILDS TO FIND THE  12 SYMMETRY UNIQUE RESPONSES.
 ...... DONE WITH CPHF CONTRIBUTIONS ......
 STEP CPU TIME =     0.00 TOTAL CPU TIME =        0.5 (    0.0 MIN)
 TOTAL WALL CLOCK TIME=        2.5 SECONDS, CPU UTILIZATION IS  22.18%


     --------------------------------------------
     *** END OF      PARTIAL THIRD DERIVATIVE ***
     --------------------------------------------


 PURE NR STEP HAS LENGTH    0.113212

 A-MATRIX EIGENVALUES AND B-VECTOR
    1       0.004107       0.000000
    2       0.094022       0.000045
    3       0.500417       0.001054
    4       0.947779       0.001209
    5       2.173780       0.006251
 GE INDEX =   0

 PROJECTIONS ALONG CURRENT HESSIAN EIGENVECTORS AND THEIR CURVATURE
              EIGENVALUE    GRADIENT    GE-TANGENT    E-VECTOR    E-CURVATURE
         1     0.083072    -0.999982    -0.999997    -0.999720     0.236866
         2     0.118148    -0.000000    -0.000000     0.000000     0.158227
         3     0.351405     0.000349    -0.000138    -0.000266     0.386267
         4     0.751438     0.004142     0.002037    -0.016151     0.319781
         5     1.016877    -0.001841    -0.000568     0.006002     0.560497
         6     1.516346    -0.003879    -0.001002     0.016240     0.424838

                    CORRECTOR GEOMETRY

 COORDINATES OF SYMMETRY UNIQUE ATOMS (ANGS)
   ATOM   CHARGE       X              Y              Z
 ------------------------------------------------------------
 C           6.0   0.1176882797   0.7517879883   0.0000000000
 O           8.0   0.1176160093  -0.5741420098   0.0000000000
 H           1.0  -0.9586333184   1.1054973047   0.0000000000
 H           1.0  -0.7717669706  -1.0219192832   0.0000000000


                     --------------------
[...]
   3       5.37502E-02            12
   4       9.62615E-03            12
   5       1.77580E-03            12
   6       5.14982E-04            12
   7       1.23032E-04            12
   8       1.12407E-05             1
 THE CPHF HAS CONVERGED AFTER  8 ITERATIONS.
 IT REQUIRED    85 FOCK-LIKE BUILDS TO FIND THE  12 SYMMETRY UNIQUE RESPONSES.
 ...... DONE WITH CPHF CONTRIBUTIONS ......
 STEP CPU TIME =     0.01 TOTAL CPU TIME =        5.4 (    0.1 MIN)
 TOTAL WALL CLOCK TIME=       23.3 SECONDS, CPU UTILIZATION IS  23.15%

          NSERCH=  1     ENERGY=    -112.1981536

                                 -----------------------
                                 GRADIENT (HARTREE/BOHR)
                                 -----------------------
        ATOM     ZNUC       DE/DX         DE/DY         DE/DZ
 --------------------------------------------------------------
    1  C            6.0     0.0193102     0.0188264     0.0000000
    2  O            8.0    -0.0100604    -0.0225754     0.0000000
    3  H            1.0    -0.0073894     0.0089189     0.0000000
    4  H            1.0    -0.0018604    -0.0051700     0.0000000

          MAXIMUM GRADIENT = 0.0225754    RMS GRADIENT = 0.0111897

 NSERCH:   1  E=     -112.1981535589  GRAD. MAX=  0.0225754  R.M.S.=  0.0111897

          FORCE CONSTANT MATRIX NOT UPDATED --- HESSIAN WAS JUST RECALCULATED
             ACTUAL ENERGY CHANGE WAS   0.0014128611
          PREDICTED ENERGY CHANGE WAS   0.0005879914 RATIO=  2.403
               NR STEP HAS LENGTH         =   0.059286
          RADIUS OF STEP TAKEN=   0.05929  CURRENT TRUST RADIUS=   0.10000

 BEGINNING GEOMETRY SEARCH POINT NSERCH=   2 ...

 COORDINATES OF SYMMETRY UNIQUE ATOMS (ANGS)
   ATOM   CHARGE       X              Y              Z
 ------------------------------------------------------------
 C           6.0   0.2336542145   0.6797525162   0.0000000000
 O           8.0  -0.3386261071  -0.4811067343   0.0000000000
 H           1.0  -0.6515339795   1.4116565859   0.0000000000
 H           1.0  -0.7376878833  -1.3498726054   0.0000000000
 COORDINATES OF ALL ATOMS ARE (ANGS)
   ATOM   CHARGE       X              Y              Z
 ------------------------------------------------------------
 C           6.0   0.2336542145   0.6797525162   0.0000000000
 O           8.0  -0.3386261071  -0.4811067343   0.0000000000
 H           1.0  -0.6515339795   1.4116565859   0.0000000000
 H           1.0  -0.7376878833  -1.3498726054   0.0000000000

          INTERNUCLEAR DISTANCES (ANGS.)
          ------------------------------

                1 C          2 O          3 H          4 H     

   1 C       0.0000000    1.2942561 *  1.1485825 *  2.2500852 *
   2 O       1.2942561 *  0.0000000    1.9184536 *  0.9560358 *
   3 H       1.1485825 *  1.9184536 *  0.0000000    2.7628728 *
   4 H       2.2500852 *  0.9560358 *  2.7628728 *  0.0000000  

  * ... LESS THAN  3.000



          **********************************************************************
                    THE HESSIAN WILL NOW BE RECOMPUTED FROM SCRATCH.
          **********************************************************************
 Old integral subroutine is used
 ...... END OF ONE-ELECTRON INTEGRALS ......
 STEP CPU TIME =     0.00 TOTAL CPU TIME =        5.4 (    0.1 MIN)
 TOTAL WALL CLOCK TIME=       23.3 SECONDS, CPU UTILIZATION IS  23.15%
 TOTAL NUMBER OF NONZERO TWO-ELECTRON INTEGRALS =                1832
          1 INTEGRAL RECORDS WERE STORED ON DISK FILE  8.
  ...... END OF TWO-ELECTRON INTEGRALS .....
 STEP CPU TIME =     0.00 TOTAL CPU TIME =        5.4 (    0.1 MIN)
 TOTAL WALL CLOCK TIME=       23.3 SECONDS, CPU UTILIZATION IS  23.15%

          --------------------------
                 RHF SCF CALCULATION
          --------------------------
     DENSITY MATRIX CONV=  1.00E-08

 ITER EX DEM     TOTAL ENERGY        E CHANGE  DENSITY CHANGE     ORB. GRAD
          ---------------START SECOND ORDER SCF---------------
   1  0  0     -112.1988618981  -112.1988618981   0.012979481   0.005629600
   2  1  0     -112.1989639179    -0.0001020198   0.006348323   0.001792256
   3  2  0     -112.1989744215    -0.0000105036   0.000486774   0.000240809
   4  3  0     -112.1989746877    -0.0000002662   0.000160632   0.000051514
   5  4  0     -112.1989747300    -0.0000000423   0.000061358   0.000014891
   6  5  0     -112.1989747323    -0.0000000023   0.000018418   0.000003715
   7  6  0     -112.1989747325    -0.0000000002   0.000005456   0.000001649
   8  7  0     -112.1989747325    -0.0000000000   0.000000925   0.000000256
   9  8  0     -112.1989747325    -0.0000000000   0.000000281   0.000000071
  10  9  0     -112.1989747325     0.0000000000   0.000000059   0.000000018
  11 10  0     -112.1989747325    -0.0000000000   0.000000000   0.000000005

          -----------------
          DENSITY CONVERGED
          -----------------
     TIME TO FORM FOCK OPERATORS=       0.0 SECONDS (       0.0 SEC/ITER)
     TIME TO SOLVE SCF EQUATIONS=       0.0 SECONDS (       0.0 SEC/ITER)

 FINAL RHF ENERGY IS     -112.1989747325 AFTER  11 ITERATIONS
 ...... END OF RHF CALCULATION ......
 STEP CPU TIME =     0.00 TOTAL CPU TIME =        5.4 (    0.1 MIN)
 TOTAL WALL CLOCK TIME=       23.3 SECONDS, CPU UTILIZATION IS  23.14%

 REGENERATING AO INTEGRAL LIST IN C1 POINT GROUP FOR AO-DRIVEN CPHF
 TOTAL NUMBER OF NONZERO TWO-ELECTRON INTEGRALS =                1832
          1 INTEGRAL RECORDS WERE STORED ON DISK FILE  8.
  ...... END OF TWO-ELECTRON INTEGRALS .....
 STEP CPU TIME =     0.00 TOTAL CPU TIME =        5.4 (    0.1 MIN)
 TOTAL WALL CLOCK TIME=       23.3 SECONDS, CPU UTILIZATION IS  23.14%
 ...... END OF 1-ELECTRON GRAD+HESS+FOCKDER ......
 STEP CPU TIME =     0.00 TOTAL CPU TIME =        5.4 (    0.1 MIN)
 TOTAL WALL CLOCK TIME=       23.4 SECONDS, CPU UTILIZATION IS  23.13%
 THE COARSE/FINE SCHWARZ SCREENINGS SKIPPED          0/         0 BLOCKS.
 THE NUMBER OF DERIVATIVE INTEGRAL BLOCKS COMPUTED WAS       217
 STEP CPU TIME =     0.04 TOTAL CPU TIME =        5.4 (    0.1 MIN)
 TOTAL WALL CLOCK TIME=       23.4 SECONDS, CPU UTILIZATION IS  23.26%
 ...... END OF 2-ELECTRON GRAD+HESS+FOCKDER ......
 STEP CPU TIME =     0.00 TOTAL CPU TIME =        5.4 (    0.1 MIN)
 TOTAL WALL CLOCK TIME=       23.4 SECONDS, CPU UTILIZATION IS  23.26%
 SOLVING FOR   12 NUCLEAR RESPONSES AND 0 ELECTRIC FIELD RESPONSES
 PRECONDITIONED CONJUGATE GRADIENT SOLVER     CONV. TOLERANCE=5.00E-05
 ITER    RESPONSE ERROR        IMPROVED
   1       5.75864E-01            12
   2       2.59882E-01            12
   3       5.30685E-02            12
   4       9.54044E-03            12
   5       1.62671E-03            12
   6       4.49649E-04            12
   7       1.07629E-04            12
   8       9.00513E-06             1
 THE CPHF HAS CONVERGED AFTER  8 ITERATIONS.
 IT REQUIRED    85 FOCK-LIKE BUILDS TO FIND THE  12 SYMMETRY UNIQUE RESPONSES.
 ...... DONE WITH CPHF CONTRIBUTIONS ......
 STEP CPU TIME =     0.00 TOTAL CPU TIME =        5.4 (    0.1 MIN)
 TOTAL WALL CLOCK TIME=       23.4 SECONDS, CPU UTILIZATION IS  23.26%

          NSERCH=  2     ENERGY=    -112.1989747

                                 -----------------------
                                 GRADIENT (HARTREE/BOHR)
                                 -----------------------
        ATOM     ZNUC       DE/DX         DE/DY         DE/DZ
 --------------------------------------------------------------
    1  C            6.0    -0.0011595    -0.0016021     0.0000000
    2  O            8.0     0.0008518     0.0018797     0.0000000
    3  H            1.0     0.0002805    -0.0003796     0.0000000
    4  H            1.0     0.0000272     0.0001020     0.0000000

          MAXIMUM GRADIENT = 0.0018797    RMS GRADIENT = 0.0008369

 NSERCH:   2  E=     -112.1989747325  GRAD. MAX=  0.0018797  R.M.S.=  0.0008369

          FORCE CONSTANT MATRIX NOT UPDATED --- HESSIAN WAS JUST RECALCULATED
             ACTUAL ENERGY CHANGE WAS  -0.0008211736
          PREDICTED ENERGY CHANGE WAS  -0.0008572499 RATIO=  0.958
               NR STEP HAS LENGTH         =   0.003066
          RADIUS OF STEP TAKEN=   0.00307  CURRENT TRUST RADIUS=   0.10000

 BEGINNING GEOMETRY SEARCH POINT NSERCH=   3 ...

 COORDINATES OF SYMMETRY UNIQUE ATOMS (ANGS)
   ATOM   CHARGE       X              Y              Z
 ------------------------------------------------------------
 C           6.0   0.2341224934   0.6803549815   0.0000000000
 O           8.0  -0.3387854058  -0.4818208661   0.0000000000
 H           1.0  -0.6515491789   1.4125556902   0.0000000000
 H           1.0  -0.7379816991  -1.3506599295   0.0000000000
 COORDINATES OF ALL ATOMS ARE (ANGS)
   ATOM   CHARGE       X              Y              Z
 ------------------------------------------------------------
 C           6.0   0.2341224934   0.6803549815   0.0000000000
 O           8.0  -0.3387854058  -0.4818208661   0.0000000000
 H           1.0  -0.6515491789   1.4125556902   0.0000000000
 H           1.0  -0.7379816991  -1.3506599295   0.0000000000

          INTERNUCLEAR DISTANCES (ANGS.)
          ------------------------------

                1 C          2 O          3 H          4 H     

   1 C       0.0000000    1.2957145 *  1.1491441 *  2.2516679 *
   2 O       1.2957145 *  0.0000000    1.9200218 *  0.9561585 *
   3 H       1.1491441 *  1.9200218 *  0.0000000    2.7645671 *
   4 H       2.2516679 *  0.9561585 *  2.7645671 *  0.0000000  

  * ... LESS THAN  3.000



          **********************************************************************
                    THE HESSIAN WILL NOW BE RECOMPUTED FROM SCRATCH.
          **********************************************************************
 Old integral subroutine is used
 ...... END OF ONE-ELECTRON INTEGRALS ......
 STEP CPU TIME =     0.00 TOTAL CPU TIME =        5.4 (    0.1 MIN)
 TOTAL WALL CLOCK TIME=       23.4 SECONDS, CPU UTILIZATION IS  23.26%
 TOTAL NUMBER OF NONZERO TWO-ELECTRON INTEGRALS =                1832
          1 INTEGRAL RECORDS WERE STORED ON DISK FILE  8.
  ...... END OF TWO-ELECTRON INTEGRALS .....
 STEP CPU TIME =     0.00 TOTAL CPU TIME =        5.4 (    0.1 MIN)
 TOTAL WALL CLOCK TIME=       23.4 SECONDS, CPU UTILIZATION IS  23.25%

          --------------------------
                 RHF SCF CALCULATION
          --------------------------
     DENSITY MATRIX CONV=  1.00E-08

 ITER EX DEM     TOTAL ENERGY        E CHANGE  DENSITY CHANGE     ORB. GRAD
          ---------------START SECOND ORDER SCF---------------
   1  0  0     -112.1989775594  -112.1989775594   0.000687615   0.000340253
   2  1  0     -112.1989779329    -0.0000003735   0.000340177   0.000116547
   3  2  0     -112.1989779717    -0.0000000388   0.000026646   0.000012261
   4  3  0     -112.1989779726    -0.0000000009   0.000009546   0.000003306
   5  4  0     -112.1989779727    -0.0000000001   0.000003317   0.000000930
   6  5  0     -112.1989779727    -0.0000000000   0.000000911   0.000000225
   7  6  0     -112.1989779727    -0.0000000000   0.000000364   0.000000084
   8  7  0     -112.1989779727    -0.0000000000   0.000000048   0.000000014
   9  8  0     -112.1989779727     0.0000000000   0.000000000   0.000000004

          -----------------
          DENSITY CONVERGED
          -----------------
     TIME TO FORM FOCK OPERATORS=       0.0 SECONDS (       0.0 SEC/ITER)
     TIME TO SOLVE SCF EQUATIONS=       0.0 SECONDS (       0.0 SEC/ITER)

 FINAL RHF ENERGY IS     -112.1989779727 AFTER   9 ITERATIONS
 ...... END OF RHF CALCULATION ......
 STEP CPU TIME =     0.01 TOTAL CPU TIME =        5.5 (    0.1 MIN)
 TOTAL WALL CLOCK TIME=       23.4 SECONDS, CPU UTILIZATION IS  23.29%

 REGENERATING AO INTEGRAL LIST IN C1 POINT GROUP FOR AO-DRIVEN CPHF
 TOTAL NUMBER OF NONZERO TWO-ELECTRON INTEGRALS =                1832
          1 INTEGRAL RECORDS WERE STORED ON DISK FILE  8.
  ...... END OF TWO-ELECTRON INTEGRALS .....
 STEP CPU TIME =     0.01 TOTAL CPU TIME =        5.5 (    0.1 MIN)
 TOTAL WALL CLOCK TIME=       23.4 SECONDS, CPU UTILIZATION IS  23.33%
 ...... END OF 1-ELECTRON GRAD+HESS+FOCKDER ......
 STEP CPU TIME =     0.00 TOTAL CPU TIME =        5.5 (    0.1 MIN)
 TOTAL WALL CLOCK TIME=       23.4 SECONDS, CPU UTILIZATION IS  23.32%
 THE COARSE/FINE SCHWARZ SCREENINGS SKIPPED          0/         0 BLOCKS.
 THE NUMBER OF DERIVATIVE INTEGRAL BLOCKS COMPUTED WAS       217
 STEP CPU TIME =     0.05 TOTAL CPU TIME =        5.5 (    0.1 MIN)
 TOTAL WALL CLOCK TIME=       23.5 SECONDS, CPU UTILIZATION IS  23.49%
 ...... END OF 2-ELECTRON GRAD+HESS+FOCKDER ......
 STEP CPU TIME =     0.00 TOTAL CPU TIME =        5.5 (    0.1 MIN)
 TOTAL WALL CLOCK TIME=       23.5 SECONDS, CPU UTILIZATION IS  23.49%
 SOLVING FOR   12 NUCLEAR RESPONSES AND 0 ELECTRIC FIELD RESPONSES
 PRECONDITIONED CONJUGATE GRADIENT SOLVER     CONV. TOLERANCE=5.00E-05
 ITER    RESPONSE ERROR        IMPROVED
   1       5.75909E-01            12
   2       2.59907E-01            12
   3       5.31370E-02            12
   4       9.55587E-03            12
   5       1.63609E-03            12
   6       4.53477E-04            12
   7       1.08575E-04            12
   8       9.12830E-06             1
 THE CPHF HAS CONVERGED AFTER  8 ITERATIONS.
 IT REQUIRED    85 FOCK-LIKE BUILDS TO FIND THE  12 SYMMETRY UNIQUE RESPONSES.
 ...... DONE WITH CPHF CONTRIBUTIONS ......
 STEP CPU TIME =     0.00 TOTAL CPU TIME =        5.5 (    0.1 MIN)
 TOTAL WALL CLOCK TIME=       23.5 SECONDS, CPU UTILIZATION IS  23.49%

          NSERCH=  3     ENERGY=    -112.1989780

                                 -----------------------
                                 GRADIENT (HARTREE/BOHR)
                                 -----------------------
        ATOM     ZNUC       DE/DX         DE/DY         DE/DZ
 --------------------------------------------------------------
    1  C            6.0    -0.0000042    -0.0000076     0.0000000
    2  O            8.0     0.0000039     0.0000083     0.0000000
    3  H            1.0     0.0000004    -0.0000007     0.0000000
    4  H            1.0     0.0000000     0.0000001     0.0000000

          MAXIMUM GRADIENT = 0.0000083    RMS GRADIENT = 0.0000037

 NSERCH:   3  E=     -112.1989779727  GRAD. MAX=  0.0000083  R.M.S.=  0.0000037


      ***** EQUILIBRIUM GEOMETRY LOCATED *****
 COORDINATES OF SYMMETRY UNIQUE ATOMS (ANGS)
   ATOM   CHARGE       X              Y              Z
 ------------------------------------------------------------
 C           6.0   0.2341224934   0.6803549815   0.0000000000
 O           8.0  -0.3387854058  -0.4818208661   0.0000000000
 H           1.0  -0.6515491789   1.4125556902   0.0000000000
 H           1.0  -0.7379816991  -1.3506599295   0.0000000000
 COORDINATES OF ALL ATOMS ARE (ANGS)
   ATOM   CHARGE       X              Y              Z
 ------------------------------------------------------------
 C           6.0   0.2341224934   0.6803549815   0.0000000000
 O           8.0  -0.3387854058  -0.4818208661   0.0000000000
 H           1.0  -0.6515491789   1.4125556902   0.0000000000
 H           1.0  -0.7379816991  -1.3506599295   0.0000000000

          INTERNUCLEAR DISTANCES (ANGS.)
          ------------------------------

                1 C          2 O          3 H          4 H     

   1 C       0.0000000    1.2957145 *  1.1491441 *  2.2516679 *
   2 O       1.2957145 *  0.0000000    1.9200218 *  0.9561585 *
   3 H       1.1491441 *  1.9200218 *  0.0000000    2.7645671 *
   4 H       2.2516679 *  0.9561585 *  2.7645671 *  0.0000000  

  * ... LESS THAN  3.000


          NUCLEAR ENERGY    =       30.6003724784
          ELECTRONIC ENERGY =     -142.7993504512
          TOTAL ENERGY      =     -112.1989779727

          ------------------
          MOLECULAR ORBITALS
          ------------------

                      1          2          3          4          5
                  -20.2801   -11.0190    -1.3215    -0.8432    -0.5893
                     A'         A'         A'         A'         A'  
    1  C  1  S    0.000500   0.993202  -0.083434  -0.162578  -0.065044
    2  C  1  S   -0.005170   0.029036   0.197907   0.491593   0.227551
    3  C  1  X    0.002269  -0.006527  -0.066128  -0.114714  -0.180333
    4  C  1  Y    0.004288  -0.002059  -0.094657  -0.048933   0.376907
    5  C  1  Z    0.000000   0.000000   0.000000   0.000000   0.000000
    6  O  2  S    0.993956   0.000370  -0.231426   0.040096   0.037174
    7  O  2  S    0.027553  -0.005986   0.816749  -0.166638  -0.177664
    8  O  2  X    0.000306  -0.000966   0.007216   0.181136  -0.468473
    9  O  2  Y    0.000505  -0.002867   0.033167   0.463745  -0.132860
   10  O  2  Z    0.000000   0.000000   0.000000   0.000000   0.000000
   11  H  3  S    0.000303  -0.007012   0.023224   0.164508   0.420192
   12  H  4  S   -0.005787  -0.000398   0.144221  -0.338231   0.205920

                      6          7          8          9         10
                   -0.4756    -0.4493    -0.2347     0.3021     0.4631
                     A'         A''        A'         A''        A'  
    1  C  1  S    0.112289   0.000000   0.123432   0.000000  -0.065775
    2  C  1  S   -0.440743   0.000000  -0.578764   0.000000   0.306950
    3  C  1  X   -0.303820   0.000000  -0.618123   0.000000  -0.290457
    4  C  1  Y   -0.151836   0.000000  -0.016717   0.000000  -0.533005
    5  C  1  Z    0.000000   0.343310   0.000000   0.956282   0.000000
    6  O  2  S   -0.033396   0.000000  -0.018485   0.000000   0.157504
    7  O  2  S    0.165229   0.000000   0.090308   0.000000  -1.019119
    8  O  2  X   -0.591748   0.000000   0.534991   0.000000   0.096226
    9  O  2  Y    0.487522   0.000000  -0.177399   0.000000   0.241680
   10  O  2  Z    0.000000   0.880424   0.000000  -0.507139   0.000000
   11  H  3  S   -0.136766   0.000000   0.400793   0.000000  -0.077392
   12  H  4  S   -0.139226   0.000000  -0.066614   0.000000   1.004187

                     11         12
                    0.6866     0.9728
                     A'         A'  
    1  C  1  S    0.100146   0.118027
    2  C  1  S   -0.606426  -0.738784
    3  C  1  X    0.703231   0.487140
    4  C  1  Y   -0.707961   0.738690
    5  C  1  Z    0.000000   0.000000
    6  O  2  S    0.000270  -0.043666
    7  O  2  S   -0.005011   0.301689
    8  O  2  X   -0.190745   0.459965
    9  O  2  Y    0.011819   0.986368
   10  O  2  Z    0.000000   0.000000
   11  H  3  S    1.129427   0.204682
   12  H  4  S   -0.071662   0.651988
  $VIB   
          IVIB=   0 IATOM=   0 ICOORD=   0 E=     -112.1989779727
 -4.231255197E-06-7.648638886E-06 0.000000000E+00 3.850878687E-06 8.295630384E-06
  0.000000000E+00 3.842729601E-07-7.257960704E-07 0.000000000E+00 0.000000000E+00
  7.880417121E-08 0.000000000E+00
 -2.547207885E+00-1.160652806E+00 0.000000000E+00
 ......END OF GEOMETRY SEARCH......
 STEP CPU TIME =     0.00 TOTAL CPU TIME =        5.5 (    0.1 MIN)
 TOTAL WALL CLOCK TIME=       23.5 SECONDS, CPU UTILIZATION IS  23.48%
               580000  WORDS OF DYNAMIC MEMORY USED
 EXECUTION OF GAMESS TERMINATED NORMALLY Mon Nov 28 22:14:28 2016
 DDI: 263640 bytes (0.3 MB / 0 MWords) used by master data server.

 ----------------------------------------
 CPU timing information for all processes
 ========================================
 0: 5.167 + 0.382 = 5.550
 ----------------------------------------
 ddikick.x: exited gracefully.
unset echo
----- accounting info -----
Files used on the master node compute-3-0 were:
-rw-rw-r-- 1 sarom sarom  508882 Nov 29  2016 .//grdxtr-1.dat
-rw-rw-r-- 1 sarom sarom    3160 Nov 29  2016 .//grdxtr-1.F05
-rw-rw-r-- 1 sarom sarom  180016 Nov 29  2016 .//grdxtr-1.F08
-rw-rw-r-- 1 sarom sarom 2257680 Nov 29  2016 .//grdxtr-1.F10
-rw-rw-r-- 1 sarom sarom    7584 Nov 29  2016 .//grdxtr-1.F18
-rw-rw-r-- 1 sarom sarom    3160 Nov 28 17:27 .//grdxtr-1.inp
-rw-rw-r-- 1 sarom sarom  646835 Nov 29  2016 .//grdxtr-1.log
Mon Nov 28 22:14:31 CST 2016
0.202u 0.491s 0:27.42 2.5%	0+0k 0+144io 0pf+0w
