----- GAMESS execution script 'rungms' -----
This job is running on host compute-3-0
under operating system Linux at Mon Nov 28 22:14:04 CST 2016
Available scratch disk space (Kbyte units) at beginning of the job is
Filesystem            1K-blocks       Used  Available Use% Mounted on
bolt.local:/export/home/sarom
                     9590469632 1553061888 7550239744  18% /home/sarom
Copying input file irc-ampc4.inp to your run's scratch directory...
cp irc-ampc4.inp .//irc-ampc4.F05
unset echo
/home/sarom/gamessGH/ddikick.x /home/sarom/gamessGH/gamess.00.x irc-ampc4 -ddi 1 1 localhost -scr ./

 Distributed Data Interface kickoff program.
 Initiating 1 compute processes on 1 nodes to run the following command:
 /home/sarom/gamessGH/gamess.00.x irc-ampc4 

          ******************************************************
          *         GAMESS VERSION = 18 AUG 2016 (R1)          *
          *             FROM IOWA STATE UNIVERSITY             *
          * M.W.SCHMIDT, K.K.BALDRIDGE, J.A.BOATZ, S.T.ELBERT, *
          *   M.S.GORDON, J.H.JENSEN, S.KOSEKI, N.MATSUNAGA,   *
          *          K.A.NGUYEN, S.J.SU, T.L.WINDUS,           *
          *       TOGETHER WITH M.DUPUIS, J.A.MONTGOMERY       *
          *         J.COMPUT.CHEM.  14, 1347-1363(1993)        *
          **************** 64 BIT LINUX VERSION ****************

  SINCE 1993, STUDENTS AND POSTDOCS WORKING AT IOWA STATE UNIVERSITY
  AND ALSO IN THEIR VARIOUS JOBS AFTER LEAVING ISU HAVE MADE IMPORTANT
  CONTRIBUTIONS TO THE CODE:
     IVANA ADAMOVIC, CHRISTINE AIKENS, YURI ALEXEEV, POOJA ARORA,
     ANDREY ASADCHEV, ROB BELL, PRADIPTA BANDYOPADHYAY, JONATHAN BENTZ,
     BRETT BODE, KURT BRORSEN, CALEB CARLIN, GALINA CHABAN, WEI CHEN,
     CHEOL HO CHOI, PAUL DAY, ALBERT DEFUSCO, NUWAN DESILVA, TIM DUDLEY,
     DMITRI FEDOROV, GRAHAM FLETCHER, MARK FREITAG, KURT GLAESEMANN,
     DAN KEMP, GRANT MERRILL, NORIYUKI MINEZAWA, JONATHAN MULLIN,
     TAKESHI NAGATA, SEAN NEDD, HEATHER NETZLOFF, BOSILJKA NJEGIC, RYAN OLSON,
     MIKE PAK, SPENCER PRUITT, LUKE ROSKOP, JIM SHOEMAKER, LYUDMILA SLIPCHENKO,
     TONY SMITH, SAROM SOK LEANG, JIE SONG, TETSUYA TAKETSUGU, SIMON WEBB,
     PENG XU, SOOHAENG YOO, FEDERICO ZAHARIEV

  ADDITIONAL CODE HAS BEEN PROVIDED BY COLLABORATORS IN OTHER GROUPS:
     IOWA STATE UNIVERSITY:
          JOE IVANIC, AARON WEST, LAIMUTIS BYTAUTAS, KLAUS RUEDENBERG
     UNIVERSITY OF TOKYO: KIMIHIKO HIRAO, TAKAHITO NAKAJIMA,
          TAKAO TSUNEDA, MUNEAKI KAMIYA, SUSUMU YANAGISAWA,
          KIYOSHI YAGI, MAHITO CHIBA, SEIKEN TOKURA, NAOAKI KAWAKAMI
     UNIVERSITY OF AARHUS: FRANK JENSEN
     UNIVERSITY OF IOWA: VISVALDAS KAIRYS, HUI LI
     NATIONAL INST. OF STANDARDS AND TECHNOLOGY: WALT STEVENS, DAVID GARMER
     UNIVERSITY OF PISA: BENEDETTA MENNUCCI, JACOPO TOMASI
     UNIVERSITY OF MEMPHIS: HENRY KURTZ, PRAKASHAN KORAMBATH
     UNIVERSITY OF ALBERTA: TOBY ZENG, MARIUSZ KLOBUKOWSKI
     UNIVERSITY OF NEW ENGLAND: MARK SPACKMAN
     MIE UNIVERSITY: HIROAKI UMEDA
     NAT. INST. OF ADVANCED INDUSTRIAL SCIENCE AND TECHNOLOGY: KAZUO KITAURA
     MICHIGAN STATE UNIVERSITY:
          KAROL KOWALSKI, MARTA WLOCH, JEFFREY GOUR, JESSE LUTZ,
          WEI LI, PIOTR PIECUCH
     UNIVERSITY OF SILESIA: MONIKA MUSIAL, STANISLAW KUCHARSKI
     FACULTES UNIVERSITAIRES NOTRE-DAME DE LA PAIX:
          OLIVIER QUINET, BENOIT CHAMPAGNE
     UNIVERSITY OF CALIFORNIA - SANTA BARBARA: BERNARD KIRTMAN
     INSTITUTE FOR MOLECULAR SCIENCE:
          KAZUYA ISHIMURA, MICHIO KATOUDA, AND SHIGERU NAGASE
     UNIVERSITY OF NOTRE DAME: ANNA POMOGAEVA, DAN CHIPMAN
     KYUSHU UNIVERSITY:
          HARUYUKI NAKANO,
          FENG LONG GU, JACEK KORCHOWIEC, MARCIN MAKOWSKI, AND YURIKO AOKI,
          HIROTOSHI MORI AND EISAKU MIYOSHI
     PENNSYLVANIA STATE UNIVERSITY:
          TZVETELIN IORDANOV, CHET SWALINA, JONATHAN SKONE,
          SHARON HAMMES-SCHIFFER
     WASEDA UNIVERSITY:
          MASATO KOBAYASHI, TOMOKO AKAMA, TSUGUKI TOUMA,
          TAKESHI YOSHIKAWA, YASUHIRO IKABATA, JUNJI SEINO,
          YUYA NAKAJIMA, HIROMI NAKAI
     NANJING UNIVERSITY: SHUHUA LI
     UNIVERSITY OF NEBRASKA:
          PEIFENG SU, DEJUN SI, NANDUN THELLAMUREGE, YALI WANG, HUI LI
     UNIVERSITY OF ZURICH: ROBERTO PEVERATI, KIM BALDRIDGE
     N. COPERNICUS UNIVERSITY AND JACKSON STATE UNIVERSITY:
          MARIA BARYSZ
     UNIVERSITY OF COPENHAGEN: Jimmy Kromann, CASPER STEINMANN
     TOKYO INSTITUTE OF TECHNOLOGY: HIROYA NAKATA
     NAGOYA UNIVERSITY: YOSHIO NISHIMOTO, STEPHAN IRLE
     MOSCOW STATE UNIVERSITY: VLADIMIR MIRONOV

 EXECUTION OF GAMESS BEGUN Mon Nov 28 22:14:05 2016

            ECHO OF THE FIRST FEW INPUT CARDS -
 INPUT CARD>!  NH3 pyramidalization, by Adams-Moulton predictor corrector integrator.       
 INPUT CARD>!  the unpolarized basis 6-31G (unlike some s,p basis sets) has                 
 INPUT CARD>!  a saddle point for planar ammonia, and we "react" from that                  
 INPUT CARD>!  planar D3h saddle, towards the usual pyramidal ammonia.                      
 INPUT CARD>!  Note the reaction path possesses C3v rather than D3h symmetry.               
 INPUT CARD>!                                                                               
 INPUT CARD>!  the 4th order AMPC stepper should yield this path information:               
 INPUT CARD>!     point 1, STOTAL= 0.17134, RHF E= -56.1650174004                           
 INPUT CARD>!     point 2, STOTAL= 0.17756, RHF E= -56.1650274863                           
 INPUT CARD>!     point 3, STOTAL= 0.17954, RHF E= -56.1650300241                           
 INPUT CARD>!     point 4, STOTAL= 0.18201, RHF E= -56.1650323457                           
 INPUT CARD>!  the predicted point 5 should be at S=0.187373, r(NH)=0.98716,                
 INPUT CARD>!  and ang(HNH)=119.60.  Its energy is not computed in this run.                
 INPUT CARD>!                                                                               
 INPUT CARD>!  It is clear that the step off the saddle point                               
 INPUT CARD>!    INITIAL DISPLACEMENT= -0.17 ALONG MODE WITH FREQUENCY= 424.3i CM**-1       
 INPUT CARD>!  isn't well matched to the step size used after that.                         
 INPUT CARD>!                                                                               
 INPUT CARD>!  This run takes 0 seconds on a 2.66 GHz Cloverton (29 Apr 2015)               
 INPUT CARD>!  results haven't changed significantly since 1999                             
 INPUT CARD>!                                                                               
 INPUT CARD> $CONTRL SCFTYP=RHF RUNTYP=IRC NZVAR=6 $END                                     
 INPUT CARD> $system mwords=1 $end                                                          
 INPUT CARD> $basis  gbasis=n31 ngauss=6 $end                                               
 INPUT CARD> $DATA                                                                          
 INPUT CARD>AMMONIA ... 6-31G...INTRINSIC REACTION COORDINATE                               
 INPUT CARD>CNV      3                                                                      
 INPUT CARD>                                                                                
 INPUT CARD>NITROGEN    7.0                                                                 
 INPUT CARD>HYDROGEN    1.0   0.9864                                                        
 INPUT CARD> $END                                                                           
 INPUT CARD> $GUESS  GUESS=huckel $END                                                      
 INPUT CARD> $ZMAT   IZMAT(1)=1,1,2  1,1,3  1,1,4  2,3,1,2  2,4,1,2  3,4,1,2,3  $END        
 INPUT CARD> $IRC    PACE=AMPC4  SADDLE=.TRUE.  STRIDE=0.01  EVIB=0.0001                    
 INPUT CARD>         FORWRD=.TRUE.  STABLZ=.FALSE.  NPOINT=5                                
 INPUT CARD>         FREQ=424.3   CMODE(1)=0.0,0.0,0.123701201,                             
 INPUT CARD>                            0.0,0.0,-0.572915937,                               
 INPUT CARD>                            0.0,0.0,-0.572915937,                               
 INPUT CARD>                            0.0,0.0,-0.572915937      $END                      
    1000000 WORDS OF MEMORY AVAILABLE

     BASIS OPTIONS
     -------------
     GBASIS=N31          IGAUSS=       6      POLAR=NONE    
     NDFUNC=       0     NFFUNC=       0     DIFFSP=       F
     NPFUNC=       0      DIFFS=       F     BASNAM=        


     RUN TITLE
     ---------
 AMMONIA ... 6-31G...INTRINSIC REACTION COORDINATE                               

 THE POINT GROUP OF THE MOLECULE IS CNV     
 THE ORDER OF THE PRINCIPAL AXIS IS     3

 ATOM      ATOMIC                      COORDINATES (BOHR)
           CHARGE         X                   Y                   Z
 NITROGEN    7.0     0.0000000000        0.0000000000        0.0000000000
 HYDROGEN    1.0    -0.9320128571        1.6142936219        0.0000000000
 HYDROGEN    1.0    -0.9320128571       -1.6142936219        0.0000000000
 HYDROGEN    1.0     1.8640257143        0.0000000000        0.0000000000

          INTERNUCLEAR DISTANCES (ANGS.)
          ------------------------------

                1 NITR       2 HYDR       3 HYDR       4 HYDR  

   1 NITR    0.0000000    0.9864000 *  0.9864000 *  0.9864000 *
   2 HYDR    0.9864000 *  0.0000000    1.7084949 *  1.7084949 *
   3 HYDR    0.9864000 *  1.7084949 *  0.0000000    1.7084949 *
   4 HYDR    0.9864000 *  1.7084949 *  1.7084949 *  0.0000000  

  * ... LESS THAN  3.000


     ATOMIC BASIS SET
     ----------------
 THE CONTRACTED PRIMITIVE FUNCTIONS HAVE BEEN UNNORMALIZED
 THE CONTRACTED BASIS FUNCTIONS ARE NOW NORMALIZED TO UNITY

  SHELL TYPE  PRIMITIVE        EXPONENT          CONTRACTION COEFFICIENT(S)

 NITROGEN  

      1   S       1          4173.5114600    0.001834772160
      1   S       2           627.4579110    0.013994627002
      1   S       3           142.9020930    0.068586551812
      1   S       4            40.2343293    0.232240873040
      1   S       5            12.8202129    0.469069948082
      1   S       6             4.3904370    0.360455199063

      2   L       7            11.6263619   -0.114961181702    0.067579743878
      2   L       8             2.7162798   -0.169117478561    0.323907295893
      2   L       9             0.7722184    1.145851947027    0.740895139755

      3   L      10             0.2120315    1.000000000000    1.000000000000

 HYDROGEN  

      8   S      11            18.7311370    0.033494604338
      8   S      12             2.8253944    0.234726953484
      8   S      13             0.6401217    0.813757326146

      9   S      14             0.1612778    1.000000000000

 TOTAL NUMBER OF BASIS SET SHELLS             =    9
 NUMBER OF CARTESIAN GAUSSIAN BASIS FUNCTIONS =   15
 NUMBER OF ELECTRONS                          =   10
 CHARGE OF MOLECULE                           =    0
 SPIN MULTIPLICITY                            =    1
 NUMBER OF OCCUPIED ORBITALS (ALPHA)          =    5
 NUMBER OF OCCUPIED ORBITALS (BETA )          =    5
 TOTAL NUMBER OF ATOMS                        =    4
 THE NUCLEAR REPULSION ENERGY IS       12.1951379926

     $CONTRL OPTIONS
     ---------------
 SCFTYP=RHF          RUNTYP=IRC          EXETYP=RUN     
 MPLEVL=       0     CITYP =NONE         CCTYP =NONE         VBTYP =NONE    
 DFTTYP=NONE         TDDFT =NONE    
 MULT  =       1     ICHARG=       0     NZVAR =       6     COORD =UNIQUE  
 PP    =NONE         RELWFN=NONE         LOCAL =NONE         NUMGRD=       F
 ISPHER=      -1     NOSYM =       0     MAXIT =      30     UNITS =ANGS    
 PLTORB=       F     MOLPLT=       F     AIMPAC=       F     FRIEND=        
 NPRINT=       7     IREST =       0     GEOM  =INPUT   
 NORMF =       0     NORMP =       0     ITOL  =      20     ICUT  =       9
 INTTYP=BEST         GRDTYP=BEST         QMTTOL= 1.0E-06

     $SYSTEM OPTIONS
     ---------------
  REPLICATED MEMORY=     1000000 WORDS (ON EVERY NODE).
 DISTRIBUTED MEMDDI=           0 MILLION WORDS IN AGGREGATE,
 MEMDDI DISTRIBUTED OVER   1 PROCESSORS IS           0 WORDS/PROCESSOR.
 TOTAL MEMORY REQUESTED ON EACH PROCESSOR=     1000000 WORDS.
 TIMLIM=      525600.00 MINUTES, OR     365.0 DAYS.
 PARALL= F  BALTYP=  DLB     KDIAG=    0  COREFL= F
 MXSEQ2=     300 MXSEQ3=     150  mem10=         0

          ----------------
          PROPERTIES INPUT
          ----------------

     MOMENTS            FIELD           POTENTIAL          DENSITY
 IEMOM =       1   IEFLD =       0   IEPOT =       0   IEDEN =       0
 WHERE =COMASS     WHERE =NUCLEI     WHERE =NUCLEI     WHERE =NUCLEI  
 OUTPUT=BOTH       OUTPUT=BOTH       OUTPUT=BOTH       OUTPUT=BOTH    
 IEMINT=       0   IEFINT=       0                     IEDINT=       0
                                                       MORB  =       0
          EXTRAPOLATION IN EFFECT
          DIIS IN EFFECT
 ORBITAL PRINTING OPTION: NPREO=     1    15     2     1

     -------------------------------
     INTEGRAL TRANSFORMATION OPTIONS
     -------------------------------
     NWORD  =            0
     CUTOFF = 1.0E-09     MPTRAN =       0
     DIRTRF =       F     AOINTS =DUP     

          ----------------------
          INTEGRAL INPUT OPTIONS
          ----------------------
 NOPK  =       1 NORDER=       0 SCHWRZ=       F

   --- ENCODED Z MATRIX ---
 COORD  TYPE   I   J   K   L   M   N
    1      1    1   2
    2      1    1   3
    3      1    1   4
    4      2    3   1   2
    5      2    4   1   2
    6      3    4   1   2   3

 THE DETERMINANT OF THE G MATRIX IS 10**(    -1)


                     --------------------
                     INTERNAL COORDINATES
                     --------------------

                 - - ATOMS - -         COORDINATE      COORDINATE
 NO.   TYPE    I  J  K  L  M  N        (BOHR,RAD)       (ANG,DEG)
 ----------------------------------------------------------------
   1 STRETCH   1  2                     1.8640257       0.9864000
   2 STRETCH   1  3                     1.8640257       0.9864000
   3 STRETCH   1  4                     1.8640257       0.9864000
   4 BEND      3  1  2                  2.0943951     120.0000000
   5 BEND      4  1  2                  2.0943951     120.0000000
   6 TORSION   4  1  2  3               3.1415927     180.0000000

     ------------------------------------------
     THE POINT GROUP IS CNV, NAXIS= 3, ORDER= 6
     ------------------------------------------

     DIMENSIONS OF THE SYMMETRY SUBSPACES ARE
 A1  =    7     A2  =    0     E   =    4

 ..... DONE SETTING UP THE RUN .....
 STEP CPU TIME =     0.02 TOTAL CPU TIME =        0.0 (    0.0 MIN)
 TOTAL WALL CLOCK TIME=        0.0 SECONDS, CPU UTILIZATION IS  66.67%

          -----------------------------
          INTRINSIC REACTION COORDINATE
          -----------------------------
          PACE   =AMPC4   
          STRIDE = 0.01000 BOHR*SQRT(AMU)
          NPOINT =       5
          NEXTPT =       0
          STOTAL =  0.0000 BOHR*SQRT(AMU)
          SAB    =  0.0000 BOHR*SQRT(AMU)
          NPRT   =       0
          NPUN   =       0

          SADDLE =       T
          TSENGY =       F
          FORWRD =       T
          EVIB   = 0.00010 HARTREE
          FREQ   =   424.3 CM**-1

          STABLZ =       F
          ELBOW  =  175.00 DEGREES
          DELTA  = 0.02500 BOHR

          READQB =       F
          EB     =        0.0000000000 HARTREES
          GBNORM =        0.0000000000 HARTREES/SQRT(AMU)-BOHR

          GCUT   = 0.0000000 HARTREES/SQRT(AMU)-BOHR
          RCUT   = 0.0000000 BOHR
          ACUT   =    5.00 DEGREES
          MXOPT  =      20
          IHUPD  =       2

 ATOMIC MASSES USED (IN AMU) ARE
     NITROGEN      14.0031
     HYDROGEN       1.0078
     HYDROGEN       1.0078
     HYDROGEN       1.0078

 JUMP AWAY FROM SADDLE POINT ALONG MODE WITH FREQUENCY  424.30000 INPUT CMODE=
      0.00000000     0.00000000     0.12370120          0.00000000     0.00000000    -0.57291594
      0.00000000     0.00000000    -0.57291594          0.00000000     0.00000000    -0.57291594


 JUMPING OFF SADDLE POINT ALONG THE IMAGINARY NORMAL MODE...
 *** INPUT NORMAL MODE NORMALIZED BY FACTOR OF    0.9103
 INITIAL DISPLACEMENT= -0.17 ALONG MODE WITH FREQUENCY=     424.300 I CM**-1
 THE COMPONENTS OF THE DISPLACEMENT ARE (BOHR) -
    0.000000   0.000000  -0.019294
    0.000000   0.000000   0.089360
    0.000000   0.000000   0.089360
    0.000000   0.000000   0.089360
 DISTANCE FROM THE SADDLE POINT TO THE 1ST IRC POINT IS  0.17134 SQRT(AMU)-BOHR)
1         POINT   1 ON THE REACTION PATH
          ******************************
          AT PATH DISTANCE STOTAL=   0.17134

          THE COORDINATES OF POINT QB ARE
 COORDINATES OF ALL ATOMS ARE (ANGS)
   ATOM   CHARGE       X              Y              Z
 ------------------------------------------------------------
 NITROGEN    7.0   0.0000000000   0.0000000000  -0.0102099974
 HYDROGEN    1.0  -0.4932000000   0.8542474583   0.0472870930
 HYDROGEN    1.0  -0.4932000000  -0.8542474583   0.0472870930
 HYDROGEN    1.0   0.9864000000   0.0000000000   0.0472870930
 COORDINATES OF SYMMETRY UNIQUE ATOMS (ANGS)
   ATOM   CHARGE       X              Y              Z
 ------------------------------------------------------------
 NITROGEN    7.0   0.0000000000   0.0000000000  -0.0102099974
 HYDROGEN    1.0   0.9864000000   0.0000000000   0.0472870930

          INTERNUCLEAR DISTANCES (ANGS.)
          ------------------------------

                1 NITR       2 HYDR       3 HYDR       4 HYDR  

   1 NITR    0.0000000    0.9880743 *  0.9880743 *  0.9880743 *
   2 HYDR    0.9880743 *  0.0000000    1.7084949 *  1.7084949 *
   3 HYDR    0.9880743 *  1.7084949 *  0.0000000    1.7084949 *
   4 HYDR    0.9880743 *  1.7084949 *  1.7084949 *  0.0000000  

  * ... LESS THAN  3.000


          ********************
          1 ELECTRON INTEGRALS
          ********************
 ...... END OF ONE-ELECTRON INTEGRALS ......
 STEP CPU TIME =     0.00 TOTAL CPU TIME =        0.0 (    0.0 MIN)
 TOTAL WALL CLOCK TIME=        0.1 SECONDS, CPU UTILIZATION IS  22.22%

          -------------
          GUESS OPTIONS
          -------------
          GUESS =HUCKEL            NORB  =       0          NORDER=       0
          MIX   =       F          PRTMO =       F          PUNMO =       F
          TOLZ  = 1.0E-08          TOLE  = 1.0E-05
          SYMDEN=       F          PURIFY=       F

 INITIAL GUESS ORBITALS GENERATED BY HUCKEL   ROUTINE.
 HUCKEL GUESS REQUIRES      4725 WORDS.

 SYMMETRIES FOR INITIAL GUESS ORBITALS FOLLOW.   BOTH SET(S).
     5 ORBITALS ARE OCCUPIED (    1 CORE ORBITALS).
     2=A1       3=E        4=E        5=A1       6=E        7=E        8=A1  
     9=A1      10=A1      11=A1      12=E       13=E       14=E       15=E   
 ...... END OF INITIAL ORBITAL SELECTION ......
 STEP CPU TIME =     0.00 TOTAL CPU TIME =        0.0 (    0.0 MIN)
 TOTAL WALL CLOCK TIME=        0.1 SECONDS, CPU UTILIZATION IS  22.22%

                    ----------------------
                    AO INTEGRAL TECHNOLOGY
                    ----------------------
     S,P,L SHELL ROTATED AXIS INTEGRALS, REPROGRAMMED BY
        KAZUYA ISHIMURA (IMS) AND JOSE SIERRA (SYNSTAR).
     S,P,D,L SHELL ROTATED AXIS INTEGRALS PROGRAMMED BY
        KAZUYA ISHIMURA (INSTITUTE FOR MOLECULAR SCIENCE).
     S,P,D,F,G SHELL TO TOTAL QUARTET ANGULAR MOMENTUM SUM 5,
        ERIC PROGRAM BY GRAHAM FLETCHER (ELORET AND NASA ADVANCED
        SUPERCOMPUTING DIVISION, AMES RESEARCH CENTER).
     S,P,D,F,G,L SHELL GENERAL RYS QUADRATURE PROGRAMMED BY
        MICHEL DUPUIS (PACIFIC NORTHWEST NATIONAL LABORATORY).

          --------------------
          2 ELECTRON INTEGRALS
          --------------------

 THE -PK- OPTION IS OFF, THE INTEGRALS ARE NOT IN SUPERMATRIX FORM.
 STORING   15000 INTEGRALS/RECORD ON DISK, USING 12 BYTES/INTEGRAL.
 TWO ELECTRON INTEGRAL EVALUATION REQUIRES   89401 WORDS OF MEMORY.
 II,JST,KST,LST =  1  1  1  1 NREC =         1 INTLOC =    1
 II,JST,KST,LST =  2  1  1  1 NREC =         1 INTLOC =    2
 II,JST,KST,LST =  3  1  1  1 NREC =         1 INTLOC =   34
 II,JST,KST,LST =  4  1  1  1 NREC =         1 INTLOC =  214
 II,JST,KST,LST =  5  1  1  1 NREC =         1 INTLOC =  214
 II,JST,KST,LST =  6  1  1  1 NREC =         1 INTLOC =  214
 II,JST,KST,LST =  7  1  1  1 NREC =         1 INTLOC =  214
 II,JST,KST,LST =  8  1  1  1 NREC =         1 INTLOC =  214
 II,JST,KST,LST =  9  1  1  1 NREC =         1 INTLOC =  663
 TOTAL NUMBER OF NONZERO TWO-ELECTRON INTEGRALS =                1511
          1 INTEGRAL RECORDS WERE STORED ON DISK FILE  8.
  ...... END OF TWO-ELECTRON INTEGRALS .....
 STEP CPU TIME =     0.02 TOTAL CPU TIME =        0.0 (    0.0 MIN)
 TOTAL WALL CLOCK TIME=        0.2 SECONDS, CPU UTILIZATION IS  21.05%

          --------------------------
                 RHF SCF CALCULATION
          --------------------------

     NUCLEAR ENERGY =        12.1760474609
     MAXIT =   30     NPUNCH=    2
     EXTRAP=T  DAMP=F  SHIFT=F  RSTRCT=F  DIIS=T  DEM=F  SOSCF=F
     DENSITY MATRIX CONV=  1.00E-05
     MEMORY REQUIRED FOR RHF ITERS=     32450 WORDS.

 ITER EX DEM     TOTAL ENERGY        E CHANGE  DENSITY CHANGE    DIIS ERROR
   1  0  0      -56.0255799858   -56.0255799858   0.205085611   0.725946094
          * * *   INITIATING DIIS PROCEDURE   * * *
   2  1  0      -56.1540008954    -0.1284209096   0.110642081   0.118598921
   3  2  0      -56.1636414909    -0.0096405955   0.021947539   0.037440881
   4  3  0      -56.1648420762    -0.0012005853   0.018431878   0.019771092
   5  4  0      -56.1650121548    -0.0001700786   0.001917832   0.001621130
   6  5  0      -56.1650171548    -0.0000050000   0.000535647   0.000388251
   7  6  0      -56.1650173973    -0.0000002425   0.000085679   0.000037159
   8  7  0      -56.1650174002    -0.0000000029   0.000025393   0.000008483
   9  8  0      -56.1650174004    -0.0000000002   0.000000464   0.000000410
  10  9  0      -56.1650174004    -0.0000000000   0.000000046   0.000000028

          -----------------
          DENSITY CONVERGED
          -----------------
     TIME TO FORM FOCK OPERATORS=       0.0 SECONDS (       0.0 SEC/ITER)
     TIME TO SOLVE SCF EQUATIONS=       0.0 SECONDS (       0.0 SEC/ITER)

 FINAL RHF ENERGY IS      -56.1650174004 AFTER  10 ITERATIONS

          ------------
          EIGENVECTORS
          ------------

                      1          2          3          4          5
                  -15.5110    -1.1211    -0.6448    -0.6448    -0.3828
                     A1         A1         E          E          A1  
    1  N  1  S    0.995923  -0.204043  -0.000000  -0.000000   0.010582
    2  N  1  S    0.023300   0.423156  -0.000000  -0.000000  -0.026595
    3  N  1  X   -0.000000   0.000000   0.472727  -0.000000  -0.000000
    4  N  1  Y   -0.000000   0.000000  -0.000000   0.472727  -0.000000
    5  N  1  Z    0.000393   0.018179  -0.000000  -0.000000   0.590893
    6  N  1  S   -0.010331   0.449187  -0.000000  -0.000000  -0.035230
    7  N  1  X   -0.000000   0.000000   0.266696  -0.000000  -0.000000
    8  N  1  Y   -0.000000   0.000000  -0.000000   0.266696  -0.000000
    9  N  1  Z   -0.000319   0.009486  -0.000000  -0.000000   0.554041
   10  H  2  S   -0.000227   0.142424  -0.146433   0.253629   0.008377
   11  H  2  S    0.002205   0.008411  -0.070484   0.122082   0.003656
   12  H  3  S   -0.000227   0.142424  -0.146433  -0.253629   0.008377
   13  H  3  S    0.002205   0.008411  -0.070484  -0.122082   0.003656
   14  H  4  S   -0.000227   0.142424   0.292866  -0.000000   0.008377
   15  H  4  S    0.002205   0.008411   0.140968  -0.000000   0.003656

                      6          7          8          9         10
                    0.2330     0.3302     0.3302     0.9708     0.9708
                     A1         E          E          E          E   
    1  N  1  S   -0.124008  -0.000000   0.000000  -0.000000  -0.000000
    2  N  1  S    0.135150  -0.000000   0.000000  -0.000000  -0.000000
    3  N  1  X    0.000000  -0.310268   0.000000  -0.510105  -0.000000
    4  N  1  Y    0.000000  -0.000000   0.310268  -0.000000  -0.510105
    5  N  1  Z    0.025144  -0.000000   0.000000  -0.000000  -0.000000
    6  N  1  S    1.907575  -0.000000   0.000000  -0.000000  -0.000000
    7  N  1  X    0.000000  -1.227770   0.000000   1.722060  -0.000000
    8  N  1  Y    0.000000  -0.000000   1.227770  -0.000000   1.722060
    9  N  1  Z    0.072713  -0.000000   0.000000  -0.000000  -0.000000
   10  H  2  S   -0.043386  -0.014912  -0.025828   0.403267  -0.698479
   11  H  2  S   -0.955507  -0.936864  -1.622695   0.205261  -0.355522
   12  H  3  S   -0.043386  -0.014912   0.025828   0.403267   0.698479
   13  H  3  S   -0.955507  -0.936864   1.622695   0.205261   0.355522
   14  H  4  S   -0.043386   0.029824   0.000000  -0.806535  -0.000000
   15  H  4  S   -0.955507   1.873727   0.000000  -0.410522  -0.000000

                     11         12         13         14         15
                    0.9740     1.1126     1.2958     1.2958     1.4501
                     A1         A1         E          E          A1  
    1  N  1  S   -0.008609   0.083581   0.000000  -0.000000   0.043652
    2  N  1  S    0.007256   0.003908   0.000000  -0.000000  -1.915672
    3  N  1  X    0.000000  -0.000000   0.989347  -0.000000   0.000000
    4  N  1  Y    0.000000  -0.000000   0.000000  -0.989347   0.000000
    5  N  1  Z   -1.006300  -0.082985   0.000000  -0.000000  -0.020139
    6  N  1  S    0.098224  -0.658740   0.000000  -0.000000   3.437561
    7  N  1  X    0.000000  -0.000000  -1.002631  -0.000000   0.000000
    8  N  1  Y    0.000000  -0.000000   0.000000   1.002631   0.000000
    9  N  1  Z    1.034379   0.002864   0.000000  -0.000000   0.084269
   10  H  2  S   -0.048349   0.809831   0.402104   0.696464  -0.022239
   11  H  2  S   -0.017981  -0.253289  -0.640217  -1.108888  -0.804691
   12  H  3  S   -0.048349   0.809831   0.402104  -0.696464  -0.022239
   13  H  3  S   -0.017981  -0.253289  -0.640217   1.108888  -0.804691
   14  H  4  S   -0.048349   0.809831  -0.804208  -0.000000  -0.022239
   15  H  4  S   -0.017981  -0.253289   1.280434  -0.000000  -0.804691
 ...... END OF RHF CALCULATION ......
 STEP CPU TIME =     0.00 TOTAL CPU TIME =        0.0 (    0.0 MIN)
 TOTAL WALL CLOCK TIME=        0.3 SECONDS, CPU UTILIZATION IS  13.79%

     ----------------------------------------------------------------
     PROPERTY VALUES FOR THE RHF   SELF-CONSISTENT FIELD WAVEFUNCTION
     ----------------------------------------------------------------

          -----------------
          ENERGY COMPONENTS
          -----------------

         WAVEFUNCTION NORMALIZATION =       1.0000000000

                ONE ELECTRON ENERGY =    -100.0729307139
                TWO ELECTRON ENERGY =      31.7318658527
           NUCLEAR REPULSION ENERGY =      12.1760474609
                                      ------------------
                       TOTAL ENERGY =     -56.1650174004

 ELECTRON-ELECTRON POTENTIAL ENERGY =      31.7318658527
  NUCLEUS-ELECTRON POTENTIAL ENERGY =    -156.2933916595
   NUCLEUS-NUCLEUS POTENTIAL ENERGY =      12.1760474609
                                      ------------------
             TOTAL POTENTIAL ENERGY =    -112.3854783459
               TOTAL KINETIC ENERGY =      56.2204609455
                 VIRIAL RATIO (V/T) =       1.9990138191

          ---------------------------------------
          MULLIKEN AND LOWDIN POPULATION ANALYSES
          ---------------------------------------

     ATOMIC MULLIKEN POPULATION IN EACH MOLECULAR ORBITAL

                      1          2          3          4          5

                  2.000000   2.000000   2.000000   2.000000   2.000000

    1             1.998892   1.576599   1.222341   1.222341   1.998910
    2             0.000369   0.141134   0.129610   0.388830   0.000363
    3             0.000369   0.141134   0.129610   0.388830   0.000363
    4             0.000369   0.141134   0.518440   0.000000   0.000363

               ----- POPULATIONS IN EACH AO -----
                             MULLIKEN      LOWDIN
              1  N  1  S      1.99736     1.99183
              2  N  1  S      0.73795     0.66823
              3  N  1  X      0.75907     0.69581
              4  N  1  Y      0.75907     0.69581
              5  N  1  Z      1.04022     1.03376
              6  N  1  S      0.84302     0.56351
              7  N  1  X      0.46327     0.53767
              8  N  1  Y      0.46327     0.53767
              9  N  1  Z      0.95585     0.96200
             10  H  2  S      0.52004     0.48941
             11  H  2  S      0.14026     0.28184
             12  H  3  S      0.52004     0.48941
             13  H  3  S      0.14026     0.28184
             14  H  4  S      0.52004     0.48941
             15  H  4  S      0.14026     0.28184

          ----- MULLIKEN ATOMIC OVERLAP POPULATIONS -----
          (OFF-DIAGONAL ELEMENTS NEED TO BE MULTIPLIED BY 2)

             1           2           3           4

    1    6.9947475
    2    0.3414449   0.3641148
    3    0.3414449  -0.0226269   0.3641148
    4    0.3414449  -0.0226269  -0.0226269   0.3641148

          TOTAL MULLIKEN AND LOWDIN ATOMIC POPULATIONS
       ATOM         MULL.POP.    CHARGE          LOW.POP.     CHARGE
    1 NITROGEN      8.019082   -1.019082         7.686270   -0.686270
    2 HYDROGEN      0.660306    0.339694         0.771243    0.228757
    3 HYDROGEN      0.660306    0.339694         0.771243    0.228757
    4 HYDROGEN      0.660306    0.339694         0.771243    0.228757

          -------------------------------
          BOND ORDER AND VALENCE ANALYSIS     BOND ORDER THRESHOLD=0.050
          -------------------------------

                   BOND                       BOND                       BOND
  ATOM PAIR DIST  ORDER      ATOM PAIR DIST  ORDER      ATOM PAIR DIST  ORDER
    1   2  0.988  0.857        1   3  0.988  0.857        1   4  0.988  0.857

                       TOTAL       BONDED        FREE
      ATOM            VALENCE     VALENCE     VALENCE
    1 NITROGEN          2.571       2.571      -0.000
    2 HYDROGEN          0.854       0.854      -0.000
    3 HYDROGEN          0.854       0.854      -0.000
    4 HYDROGEN          0.854       0.854      -0.000

          ---------------------
          ELECTROSTATIC MOMENTS
          ---------------------

 POINT   1           X           Y           Z (BOHR)    CHARGE
                -0.000000    0.000000    0.000000        0.00 (A.U.)
         DX          DY          DZ         /D/  (DEBYE)
    -0.000000    0.000000    0.422657    0.422657
 ...... END OF PROPERTY EVALUATION ......
 STEP CPU TIME =     0.02 TOTAL CPU TIME =        0.1 (    0.0 MIN)
 TOTAL WALL CLOCK TIME=        0.3 SECONDS, CPU UTILIZATION IS  20.00%

 BEGINNING ONE ELECTRON GRADIENT...
 ..... END OF 1-ELECTRON GRADIENT ......
 STEP CPU TIME =     0.00 TOTAL CPU TIME =        0.1 (    0.0 MIN)
 TOTAL WALL CLOCK TIME=        0.3 SECONDS, CPU UTILIZATION IS  20.00%

          ----------------------
          GRADIENT OF THE ENERGY
          ----------------------
 THE COARSE/FINE SCHWARZ SCREENINGS SKIPPED            0/           0 BLOCKS.
 THE NUMBER OF GRADIENT INTEGRAL BLOCKS COMPUTED WAS       236
 ...... END OF 2-ELECTRON GRADIENT ......
 STEP CPU TIME =     0.00 TOTAL CPU TIME =        0.1 (    0.0 MIN)
 TOTAL WALL CLOCK TIME=        0.3 SECONDS, CPU UTILIZATION IS  20.00%


                     --------------------
                     INTERNAL COORDINATES
                     --------------------

                 - - ATOMS - -         COORDINATE        GRADIENT
 NO.   TYPE    I  J  K  L  M  N         (ANG,DEG)     (H/B,H/RAD)
 ----------------------------------------------------------------
   1 STRETCH   1  2                     0.9880743       0.0013157
   2 STRETCH   1  3                     0.9880743       0.0013157
   3 STRETCH   1  4                     0.9880743       0.0013157
   4 BEND      3  1  2                119.6645214       0.0001086
   5 BEND      4  1  2                119.6645214       0.0001086
   6 TORSION   4  1  2  3            -168.4892046      -0.0009366

     NORMALIZED MASS WEIGHTED GRADIENT AT POINT QB
     (ORIGINAL GBNORM=  0.002513 HARTREE/BOHR-SQRT(AMU))

          ATOM            DE/DX       DE/DY       DE/DZ
          ----------------------------------------------
          NITROGEN      0.000000    0.000000    0.160329
          HYDROGEN     -0.266965    0.462396   -0.199210
          HYDROGEN     -0.266965   -0.462396   -0.199210
          HYDROGEN      0.533929    0.000000   -0.199210


 *** JUMPING TO POINT QC VIA A AMPC4   PACE ***
 ...... END OF ONE-ELECTRON INTEGRALS ......
 STEP CPU TIME =     0.00 TOTAL CPU TIME =        0.1 (    0.0 MIN)
 TOTAL WALL CLOCK TIME=        0.3 SECONDS, CPU UTILIZATION IS  20.00%
 TOTAL NUMBER OF NONZERO TWO-ELECTRON INTEGRALS =                1511
          1 INTEGRAL RECORDS WERE STORED ON DISK FILE  8.
  ...... END OF TWO-ELECTRON INTEGRALS .....
 STEP CPU TIME =     0.00 TOTAL CPU TIME =        0.1 (    0.0 MIN)
 TOTAL WALL CLOCK TIME=        0.3 SECONDS, CPU UTILIZATION IS  19.35%

          --------------------------
                 RHF SCF CALCULATION
          --------------------------
     DENSITY MATRIX CONV=  1.00E-05

 ITER EX DEM     TOTAL ENERGY        E CHANGE  DENSITY CHANGE    DIIS ERROR
          * * *   INITIATING DIIS PROCEDURE   * * *
   1  0  0      -56.1650226105   -56.1650226105   0.000725532   0.001040655
   2  1  0      -56.1650240975    -0.0000014871   0.000423293   0.000601160
   3  2  0      -56.1650243141    -0.0000002166   0.000074910   0.000100222
   4  3  0      -56.1650243319    -0.0000000177   0.000030767   0.000021700
   5  4  0      -56.1650243325    -0.0000000006   0.000004047   0.000002740
   6  5  0      -56.1650243325    -0.0000000000   0.000001132   0.000000481

          -----------------
          DENSITY CONVERGED
          -----------------
     TIME TO FORM FOCK OPERATORS=       0.0 SECONDS (       0.0 SEC/ITER)
     TIME TO SOLVE SCF EQUATIONS=       0.0 SECONDS (       0.0 SEC/ITER)

 FINAL RHF ENERGY IS      -56.1650243325 AFTER   6 ITERATIONS
 ...... END OF RHF CALCULATION ......
 STEP CPU TIME =     0.00 TOTAL CPU TIME =        0.1 (    0.0 MIN)
 TOTAL WALL CLOCK TIME=        0.3 SECONDS, CPU UTILIZATION IS  18.18%
 ..... END OF 1-ELECTRON GRADIENT ......
 STEP CPU TIME =     0.01 TOTAL CPU TIME =        0.1 (    0.0 MIN)
 TOTAL WALL CLOCK TIME=        0.3 SECONDS, CPU UTILIZATION IS  21.21%
 ...... END OF 2-ELECTRON GRADIENT ......
 STEP CPU TIME =     0.00 TOTAL CPU TIME =        0.1 (    0.0 MIN)
 TOTAL WALL CLOCK TIME=        0.3 SECONDS, CPU UTILIZATION IS  21.21%
 ...... END OF ONE-ELECTRON INTEGRALS ......
 STEP CPU TIME =     0.00 TOTAL CPU TIME =        0.1 (    0.0 MIN)
 TOTAL WALL CLOCK TIME=        0.3 SECONDS, CPU UTILIZATION IS  21.21%
 TOTAL NUMBER OF NONZERO TWO-ELECTRON INTEGRALS =                1511
          1 INTEGRAL RECORDS WERE STORED ON DISK FILE  8.
  ...... END OF TWO-ELECTRON INTEGRALS .....
 STEP CPU TIME =     0.00 TOTAL CPU TIME =        0.1 (    0.0 MIN)
 TOTAL WALL CLOCK TIME=        0.3 SECONDS, CPU UTILIZATION IS  20.59%

          --------------------------
                 RHF SCF CALCULATION
          --------------------------
     DENSITY MATRIX CONV=  1.00E-05

 ITER EX DEM     TOTAL ENERGY        E CHANGE  DENSITY CHANGE    DIIS ERROR
          * * *   INITIATING DIIS PROCEDURE   * * *
   1  0  0      -56.1650172638   -56.1650172638   0.000921093   0.001301069
   2  1  0      -56.1650197021    -0.0000024383   0.000525936   0.000771280
   3  2  0      -56.1650200585    -0.0000003564   0.000095939   0.000123521
   4  3  0      -56.1650200911    -0.0000000326   0.000044808   0.000029305
   5  4  0      -56.1650200927    -0.0000000016   0.000009902   0.000003485
   6  5  0      -56.1650200928    -0.0000000000   0.000002629   0.000000918

          -----------------
          DENSITY CONVERGED
          -----------------
     TIME TO FORM FOCK OPERATORS=       0.0 SECONDS (       0.0 SEC/ITER)
     TIME TO SOLVE SCF EQUATIONS=       0.0 SECONDS (       0.0 SEC/ITER)

 FINAL RHF ENERGY IS      -56.1650200928 AFTER   6 ITERATIONS
 ...... END OF RHF CALCULATION ......
 STEP CPU TIME =     0.00 TOTAL CPU TIME =        0.1 (    0.0 MIN)
 TOTAL WALL CLOCK TIME=        0.9 SECONDS, CPU UTILIZATION IS   8.05%
 ..... END OF 1-ELECTRON GRADIENT ......
 STEP CPU TIME =     0.00 TOTAL CPU TIME =        0.1 (    0.0 MIN)
 TOTAL WALL CLOCK TIME=        0.9 SECONDS, CPU UTILIZATION IS   8.05%
 ...... END OF 2-ELECTRON GRADIENT ......
 STEP CPU TIME =     0.00 TOTAL CPU TIME =        0.1 (    0.0 MIN)
 TOTAL WALL CLOCK TIME=        0.9 SECONDS, CPU UTILIZATION IS   8.05%
 ...... END OF ONE-ELECTRON INTEGRALS ......
 STEP CPU TIME =     0.00 TOTAL CPU TIME =        0.1 (    0.0 MIN)
 TOTAL WALL CLOCK TIME=        0.9 SECONDS, CPU UTILIZATION IS   8.05%
 TOTAL NUMBER OF NONZERO TWO-ELECTRON INTEGRALS =                1511
          1 INTEGRAL RECORDS WERE STORED ON DISK FILE  8.
  ...... END OF TWO-ELECTRON INTEGRALS .....
 STEP CPU TIME =     0.01 TOTAL CPU TIME =        0.1 (    0.0 MIN)
 TOTAL WALL CLOCK TIME=        0.9 SECONDS, CPU UTILIZATION IS   9.09%

          --------------------------
                 RHF SCF CALCULATION
          --------------------------
     DENSITY MATRIX CONV=  1.00E-05

 ITER EX DEM     TOTAL ENERGY        E CHANGE  DENSITY CHANGE    DIIS ERROR
          * * *   INITIATING DIIS PROCEDURE   * * *
   1  0  0      -56.1650095300   -56.1650095300   0.001696403   0.002427090
   2  1  0      -56.1650171595    -0.0000076296   0.000964987   0.001415544
   3  2  0      -56.1650183208    -0.0000011613   0.000169594   0.000227100
   4  3  0      -56.1650184100    -0.0000000891   0.000071174   0.000053597
   5  4  0      -56.1650184134    -0.0000000035   0.000008441   0.000006120
   6  5  0      -56.1650184135    -0.0000000001   0.000002227   0.000000831

          -----------------
          DENSITY CONVERGED
          -----------------
     TIME TO FORM FOCK OPERATORS=       0.0 SECONDS (       0.0 SEC/ITER)
     TIME TO SOLVE SCF EQUATIONS=       0.0 SECONDS (       0.0 SEC/ITER)

 FINAL RHF ENERGY IS      -56.1650184135 AFTER   6 ITERATIONS
 ...... END OF RHF CALCULATION ......
 STEP CPU TIME =     0.01 TOTAL CPU TIME =        0.1 (    0.0 MIN)
 TOTAL WALL CLOCK TIME=        1.5 SECONDS, CPU UTILIZATION IS   6.08%
 ..... END OF 1-ELECTRON GRADIENT ......
 STEP CPU TIME =     0.00 TOTAL CPU TIME =        0.1 (    0.0 MIN)
 TOTAL WALL CLOCK TIME=        1.5 SECONDS, CPU UTILIZATION IS   6.04%
 ...... END OF 2-ELECTRON GRADIENT ......
 STEP CPU TIME =     0.00 TOTAL CPU TIME =        0.1 (    0.0 MIN)
 TOTAL WALL CLOCK TIME=        1.5 SECONDS, CPU UTILIZATION IS   6.04%
 THE DISTANCE FROM QB TO QC (OR QC') IS   0.00623 SQRT(AMU)-BOHR)
  TOTAL PATH DISTANCE TO QC (OR QC') IS   0.17756 SQRT(AMU)-BOHR)
 ......NEXT POINT ON IRC FOUND......RENAMING QC(QC')-->QB-->QA.


                     --------------------
                     INTERNAL COORDINATES
                     --------------------

                 - - ATOMS - -         COORDINATE      COORDINATE
 NO.   TYPE    I  J  K  L  M  N        (BOHR,RAD)       (ANG,DEG)
 ----------------------------------------------------------------
   1 STRETCH   1  2                     1.8658732       0.9873777
   2 STRETCH   1  3                     1.8658732       0.9873777
   3 STRETCH   1  4                     1.8658732       0.9873777
   4 BEND      3  1  2                  2.0881406     119.6416417
   5 BEND      4  1  2                  2.0881406     119.6416417
   6 TORSION   4  1  2  3              -2.9339893    -168.1052056

 THE NUCLEAR REPULSION AT THE IRC POINT IS       12.1847463260

 * * * IRC RESTART INFORMATION * * *
 COORDINATES FOR $DATA AND ENTIRE $IRC GROUP FOLLOW

 COORDINATES OF SYMMETRY UNIQUE ATOMS (ANGS)
   ATOM   CHARGE       X              Y              Z
 ------------------------------------------------------------
 NITROGEN    7.0   0.0000000000   0.0000000000  -0.0105455806
 HYDROGEN    1.0   0.9855901103   0.0000000000   0.0488413296
 $IRC   PACE=AMPC4      STRIDE= 0.01000   NPOINT=??
        STOTAL=  0.177564   NEXTPT=   2
        NPRT= 0   NPUN= 0   SADDLE=.FALSE.
        SAB=  0.006229
        GA0(   1)= 0.000000000E+00, 0.000000000E+00, 1.672104790E-01
        GA0(   4)= 2.649761595E-01,-4.589521710E-01,-2.077596967E-01
        GA0(   7)= 2.649761595E-01, 4.589521710E-01,-2.077596967E-01
        GA0(  10)=-5.299523189E-01, 0.000000000E+00,-2.077596967E-01
        GA1(   1)= 0.000000000E+00, 0.000000000E+00, 1.318408160E-01
        GA1(   4)=-2.741827479E-01, 4.748984499E-01,-1.638127472E-01
        GA1(   7)=-2.741827479E-01,-4.748984499E-01,-1.638127472E-01
        GA1(  10)= 5.483654957E-01, 0.000000000E+00,-1.638127472E-01
        GA2(   1)= 0.000000000E+00, 0.000000000E+00, 4.163106524E-01
        GA2(   4)= 4.471009743E-02,-7.744016037E-02,-5.172676699E-01
        GA2(   7)= 4.471009743E-02, 7.744016037E-02,-5.172676699E-01
        GA2(  10)=-8.942019487E-02, 0.000000000E+00,-5.172676699E-01
         GB(   1)= 0.000000000E+00, 0.000000000E+00, 0.000000000E+00
         GB(   4)= 0.000000000E+00, 0.000000000E+00, 0.000000000E+00
         GB(   7)= 0.000000000E+00, 0.000000000E+00, 0.000000000E+00
         GB(  10)= 0.000000000E+00, 0.000000000E+00, 0.000000000E+00
 $END   
1         POINT   2 ON THE REACTION PATH
          ******************************
          AT PATH DISTANCE STOTAL=   0.17756

          THE COORDINATES OF POINT QB ARE
 COORDINATES OF ALL ATOMS ARE (ANGS)
   ATOM   CHARGE       X              Y              Z
 ------------------------------------------------------------
 NITROGEN    7.0   0.0000000000   0.0000000000  -0.0105455806
 HYDROGEN    1.0  -0.4927950552   0.8535460733   0.0488413296
 HYDROGEN    1.0  -0.4927950552  -0.8535460733   0.0488413296
 HYDROGEN    1.0   0.9855901103   0.0000000000   0.0488413296
 COORDINATES OF SYMMETRY UNIQUE ATOMS (ANGS)
   ATOM   CHARGE       X              Y              Z
 ------------------------------------------------------------
 NITROGEN    7.0   0.0000000000   0.0000000000  -0.0105455806
 HYDROGEN    1.0   0.9855901103   0.0000000000   0.0488413296

          INTERNUCLEAR DISTANCES (ANGS.)
          ------------------------------

                1 NITR       2 HYDR       3 HYDR       4 HYDR  

   1 NITR    0.0000000    0.9873777 *  0.9873777 *  0.9873777 *
   2 HYDR    0.9873777 *  0.0000000    1.7070921 *  1.7070921 *
   3 HYDR    0.9873777 *  1.7070921 *  0.0000000    1.7070921 *
   4 HYDR    0.9873777 *  1.7070921 *  1.7070921 *  0.0000000  

  * ... LESS THAN  3.000

 ...... END OF ONE-ELECTRON INTEGRALS ......
 STEP CPU TIME =     0.00 TOTAL CPU TIME =        0.1 (    0.0 MIN)
 TOTAL WALL CLOCK TIME=        1.5 SECONDS, CPU UTILIZATION IS   6.04%
 TOTAL NUMBER OF NONZERO TWO-ELECTRON INTEGRALS =                1511
          1 INTEGRAL RECORDS WERE STORED ON DISK FILE  8.
  ...... END OF TWO-ELECTRON INTEGRALS .....
 STEP CPU TIME =     0.00 TOTAL CPU TIME =        0.1 (    0.0 MIN)
 TOTAL WALL CLOCK TIME=        1.5 SECONDS, CPU UTILIZATION IS   6.04%

          --------------------------
                 RHF SCF CALCULATION
          --------------------------
     DENSITY MATRIX CONV=  1.00E-05

 ITER EX DEM     TOTAL ENERGY        E CHANGE  DENSITY CHANGE    DIIS ERROR
          * * *   INITIATING DIIS PROCEDURE   * * *
   1  0  0      -56.1650232972   -56.1650232972   0.001149342   0.001629656
   2  1  0      -56.1650268992    -0.0000036020   0.000652946   0.000959514
   3  2  0      -56.1650274397    -0.0000005405   0.000116722   0.000153146
   4  3  0      -56.1650274843    -0.0000000446   0.000049383   0.000036467
   5  4  0      -56.1650274863    -0.0000000019   0.000009021   0.000003865
   6  5  0      -56.1650274863    -0.0000000000   0.000002500   0.000000899

          -----------------
          DENSITY CONVERGED
          -----------------
     TIME TO FORM FOCK OPERATORS=       0.0 SECONDS (       0.0 SEC/ITER)
     TIME TO SOLVE SCF EQUATIONS=       0.0 SECONDS (       0.0 SEC/ITER)

 FINAL RHF ENERGY IS      -56.1650274863 AFTER   6 ITERATIONS
 ...... END OF RHF CALCULATION ......
 STEP CPU TIME =     0.01 TOTAL CPU TIME =        0.1 (    0.0 MIN)
 TOTAL WALL CLOCK TIME=        1.5 SECONDS, CPU UTILIZATION IS   6.62%
 ..... END OF 1-ELECTRON GRADIENT ......
 STEP CPU TIME =     0.00 TOTAL CPU TIME =        0.1 (    0.0 MIN)
 TOTAL WALL CLOCK TIME=        1.5 SECONDS, CPU UTILIZATION IS   6.58%
 ...... END OF 2-ELECTRON GRADIENT ......
 STEP CPU TIME =     0.00 TOTAL CPU TIME =        0.1 (    0.0 MIN)
 TOTAL WALL CLOCK TIME=        1.5 SECONDS, CPU UTILIZATION IS   6.58%


                     --------------------
                     INTERNAL COORDINATES
                     --------------------

                 - - ATOMS - -         COORDINATE        GRADIENT
 NO.   TYPE    I  J  K  L  M  N         (ANG,DEG)     (H/B,H/RAD)
 ----------------------------------------------------------------
   1 STRETCH   1  2                     0.9873777       0.0005550
   2 STRETCH   1  3                     0.9873777       0.0005550
   3 STRETCH   1  4                     0.9873777       0.0005550
   4 BEND      3  1  2                119.6416417       0.0001131
   5 BEND      4  1  2                119.6416417       0.0001131
   6 TORSION   4  1  2  3            -168.1052056      -0.0009436

     NORMALIZED MASS WEIGHTED GRADIENT AT POINT QB
     (ORIGINAL GBNORM=  0.001460 HARTREE/BOHR-SQRT(AMU))

          ATOM            DE/DX       DE/DY       DE/DZ
          ----------------------------------------------
          NITROGEN      0.000000    0.000000    0.302414
          HYDROGEN     -0.201035    0.348202   -0.375751
          HYDROGEN     -0.201035   -0.348202   -0.375751
          HYDROGEN      0.402069    0.000000   -0.375751


 *** JUMPING TO POINT QC VIA A AMPC4   PACE ***
 ...... END OF ONE-ELECTRON INTEGRALS ......
 STEP CPU TIME =     0.00 TOTAL CPU TIME =        0.1 (    0.0 MIN)
 TOTAL WALL CLOCK TIME=        1.5 SECONDS, CPU UTILIZATION IS   6.58%
 TOTAL NUMBER OF NONZERO TWO-ELECTRON INTEGRALS =                1511
          1 INTEGRAL RECORDS WERE STORED ON DISK FILE  8.
  ...... END OF TWO-ELECTRON INTEGRALS .....
 STEP CPU TIME =     0.00 TOTAL CPU TIME =        0.1 (    0.0 MIN)
 TOTAL WALL CLOCK TIME=        1.5 SECONDS, CPU UTILIZATION IS   6.54%

          --------------------------
                 RHF SCF CALCULATION
          --------------------------
     DENSITY MATRIX CONV=  1.00E-05

 ITER EX DEM     TOTAL ENERGY        E CHANGE  DENSITY CHANGE    DIIS ERROR
          * * *   INITIATING DIIS PROCEDURE   * * *
   1  0  0      -56.1640458959   -56.1640458959   0.008674188   0.012759628
   2  1  0      -56.1642471661    -0.0002012702   0.004970147   0.007181803
   3  2  0      -56.1642772803    -0.0000301142   0.000848338   0.001196722
   4  3  0      -56.1642794760    -0.0000021958   0.000354439   0.000261901
   5  4  0      -56.1642795508    -0.0000000748   0.000044114   0.000033406
   6  5  0      -56.1642795518    -0.0000000010   0.000002543   0.000001887
   7  6  0      -56.1642795518    -0.0000000000   0.000000761   0.000000314

          -----------------
          DENSITY CONVERGED
          -----------------
     TIME TO FORM FOCK OPERATORS=       0.0 SECONDS (       0.0 SEC/ITER)
     TIME TO SOLVE SCF EQUATIONS=       0.0 SECONDS (       0.0 SEC/ITER)

 FINAL RHF ENERGY IS      -56.1642795518 AFTER   7 ITERATIONS
 ...... END OF RHF CALCULATION ......
 STEP CPU TIME =     0.00 TOTAL CPU TIME =        0.1 (    0.0 MIN)
 TOTAL WALL CLOCK TIME=        1.5 SECONDS, CPU UTILIZATION IS   6.45%
 ..... END OF 1-ELECTRON GRADIENT ......
 STEP CPU TIME =     0.01 TOTAL CPU TIME =        0.1 (    0.0 MIN)
 TOTAL WALL CLOCK TIME=        1.5 SECONDS, CPU UTILIZATION IS   7.10%
 ...... END OF 2-ELECTRON GRADIENT ......
 STEP CPU TIME =     0.00 TOTAL CPU TIME =        0.1 (    0.0 MIN)
 TOTAL WALL CLOCK TIME=        1.5 SECONDS, CPU UTILIZATION IS   7.10%
 ...... END OF ONE-ELECTRON INTEGRALS ......
 STEP CPU TIME =     0.00 TOTAL CPU TIME =        0.1 (    0.0 MIN)
 TOTAL WALL CLOCK TIME=        1.5 SECONDS, CPU UTILIZATION IS   7.10%
 TOTAL NUMBER OF NONZERO TWO-ELECTRON INTEGRALS =                1511
          1 INTEGRAL RECORDS WERE STORED ON DISK FILE  8.
  ...... END OF TWO-ELECTRON INTEGRALS .....
 STEP CPU TIME =     0.00 TOTAL CPU TIME =        0.1 (    0.0 MIN)
 TOTAL WALL CLOCK TIME=        1.6 SECONDS, CPU UTILIZATION IS   7.05%

          --------------------------
                 RHF SCF CALCULATION
          --------------------------
     DENSITY MATRIX CONV=  1.00E-05

 ITER EX DEM     TOTAL ENERGY        E CHANGE  DENSITY CHANGE    DIIS ERROR
          * * *   INITIATING DIIS PROCEDURE   * * *
   1  0  0      -56.1648616053   -56.1648616053   0.006298313   0.009005239
   2  1  0      -56.1649665299    -0.0001049246   0.003578629   0.005186325
   3  2  0      -56.1649823091    -0.0000157792   0.000625000   0.000849361
   4  3  0      -56.1649834769    -0.0000011678   0.000256009   0.000190167
   5  4  0      -56.1649835156    -0.0000000387   0.000031770   0.000023906
   6  5  0      -56.1649835161    -0.0000000005   0.000001854   0.000001386
   7  6  0      -56.1649835161    -0.0000000000   0.000000523   0.000000221

          -----------------
          DENSITY CONVERGED
          -----------------
     TIME TO FORM FOCK OPERATORS=       0.0 SECONDS (       0.0 SEC/ITER)
     TIME TO SOLVE SCF EQUATIONS=       0.0 SECONDS (       0.0 SEC/ITER)

 FINAL RHF ENERGY IS      -56.1649835161 AFTER   7 ITERATIONS
 ...... END OF RHF CALCULATION ......
 STEP CPU TIME =     0.00 TOTAL CPU TIME =        0.1 (    0.0 MIN)
 TOTAL WALL CLOCK TIME=        1.6 SECONDS, CPU UTILIZATION IS   6.92%
 ..... END OF 1-ELECTRON GRADIENT ......
 STEP CPU TIME =     0.00 TOTAL CPU TIME =        0.1 (    0.0 MIN)
 TOTAL WALL CLOCK TIME=        1.6 SECONDS, CPU UTILIZATION IS   6.92%
 ...... END OF 2-ELECTRON GRADIENT ......
 STEP CPU TIME =     0.00 TOTAL CPU TIME =        0.1 (    0.0 MIN)
 TOTAL WALL CLOCK TIME=        1.6 SECONDS, CPU UTILIZATION IS   6.92%
 THE DISTANCE FROM QB TO QC (OR QC') IS   0.00197 SQRT(AMU)-BOHR)
  TOTAL PATH DISTANCE TO QC (OR QC') IS   0.17954 SQRT(AMU)-BOHR)
 ......NEXT POINT ON IRC FOUND......RENAMING QC(QC')-->QB-->QA.


                     --------------------
                     INTERNAL COORDINATES
                     --------------------

                 - - ATOMS - -         COORDINATE      COORDINATE
 NO.   TYPE    I  J  K  L  M  N        (BOHR,RAD)       (ANG,DEG)
 ----------------------------------------------------------------
   1 STRETCH   1  2                     1.8652709       0.9870589
   2 STRETCH   1  3                     1.8652709       0.9870589
   3 STRETCH   1  4                     1.8652709       0.9870589
   4 BEND      3  1  2                  2.0880231     119.6349139
   5 BEND      4  1  2                  2.0880231     119.6349139
   6 TORSION   4  1  2  3              -2.9320602    -167.9946774

 THE NUCLEAR REPULSION AT THE IRC POINT IS       12.1887130106

 * * * IRC RESTART INFORMATION * * *
 COORDINATES FOR $DATA AND ENTIRE $IRC GROUP FOLLOW

 COORDINATES OF SYMMETRY UNIQUE ATOMS (ANGS)
   ATOM   CHARGE       X              Y              Z
 ------------------------------------------------------------
 NITROGEN    7.0   0.0000000000   0.0000000000  -0.0106408528
 HYDROGEN    1.0   0.9852382877   0.0000000000   0.0492825779
 $IRC   PACE=AMPC4      STRIDE= 0.01000   NPOINT=??
        STOTAL=  0.179537   NEXTPT=   3
        NPRT= 0   NPUN= 0   SADDLE=.FALSE.
        SAB=  0.001973
        GA0(   1)= 0.000000000E+00, 0.000000000E+00, 3.024143121E-01
        GA0(   4)=-2.010346421E-01, 3.482022141E-01,-3.757510063E-01
        GA0(   7)=-2.010346421E-01,-3.482022141E-01,-3.757510063E-01
        GA0(  10)= 4.020692841E-01, 0.000000000E+00,-3.757510063E-01
        GA1(   1)= 0.000000000E+00, 0.000000000E+00, 1.672104790E-01
        GA1(   4)= 2.649761595E-01,-4.589521710E-01,-2.077596967E-01
        GA1(   7)= 2.649761595E-01, 4.589521710E-01,-2.077596967E-01
        GA1(  10)=-5.299523189E-01, 0.000000000E+00,-2.077596967E-01
        GA2(   1)= 0.000000000E+00, 0.000000000E+00, 1.318408160E-01
        GA2(   4)=-2.741827479E-01, 4.748984499E-01,-1.638127472E-01
        GA2(   7)=-2.741827479E-01,-4.748984499E-01,-1.638127472E-01
        GA2(  10)= 5.483654957E-01, 0.000000000E+00,-1.638127472E-01
         GB(   1)= 0.000000000E+00, 0.000000000E+00, 3.024143121E-01
         GB(   4)=-2.010346421E-01, 3.482022141E-01,-3.757510063E-01
         GB(   7)=-2.010346421E-01,-3.482022141E-01,-3.757510063E-01
         GB(  10)= 4.020692841E-01, 0.000000000E+00,-3.757510063E-01
 $END   
1         POINT   3 ON THE REACTION PATH
          ******************************
          AT PATH DISTANCE STOTAL=   0.17954

          THE COORDINATES OF POINT QB ARE
 COORDINATES OF ALL ATOMS ARE (ANGS)
   ATOM   CHARGE       X              Y              Z
 ------------------------------------------------------------
 NITROGEN    7.0   0.0000000000   0.0000000000  -0.0106408528
 HYDROGEN    1.0  -0.4926191438   0.8532413859   0.0492825779
 HYDROGEN    1.0  -0.4926191438  -0.8532413859   0.0492825779
 HYDROGEN    1.0   0.9852382877   0.0000000000   0.0492825779
 COORDINATES OF SYMMETRY UNIQUE ATOMS (ANGS)
   ATOM   CHARGE       X              Y              Z
 ------------------------------------------------------------
 NITROGEN    7.0   0.0000000000   0.0000000000  -0.0106408528
 HYDROGEN    1.0   0.9852382877   0.0000000000   0.0492825779

          INTERNUCLEAR DISTANCES (ANGS.)
          ------------------------------

                1 NITR       2 HYDR       3 HYDR       4 HYDR  

   1 NITR    0.0000000    0.9870589 *  0.9870589 *  0.9870589 *
   2 HYDR    0.9870589 *  0.0000000    1.7064828 *  1.7064828 *
   3 HYDR    0.9870589 *  1.7064828 *  0.0000000    1.7064828 *
   4 HYDR    0.9870589 *  1.7064828 *  1.7064828 *  0.0000000  

  * ... LESS THAN  3.000

 ...... END OF ONE-ELECTRON INTEGRALS ......
 STEP CPU TIME =     0.00 TOTAL CPU TIME =        0.1 (    0.0 MIN)
 TOTAL WALL CLOCK TIME=        1.6 SECONDS, CPU UTILIZATION IS   6.92%
 TOTAL NUMBER OF NONZERO TWO-ELECTRON INTEGRALS =                1511
          1 INTEGRAL RECORDS WERE STORED ON DISK FILE  8.
  ...... END OF TWO-ELECTRON INTEGRALS .....
 STEP CPU TIME =     0.00 TOTAL CPU TIME =        0.1 (    0.0 MIN)
 TOTAL WALL CLOCK TIME=        1.6 SECONDS, CPU UTILIZATION IS   6.92%

          --------------------------
                 RHF SCF CALCULATION
          --------------------------
     DENSITY MATRIX CONV=  1.00E-05

 ITER EX DEM     TOTAL ENERGY        E CHANGE  DENSITY CHANGE    DIIS ERROR
          * * *   INITIATING DIIS PROCEDURE   * * *
   1  0  0      -56.1650145772   -56.1650145772   0.002247256   0.003198506
   2  1  0      -56.1650278470    -0.0000132697   0.001279985   0.001864544
   3  2  0      -56.1650298685    -0.0000020215   0.000224351   0.000300102
   4  3  0      -56.1650300188    -0.0000001503   0.000092941   0.000069787
   5  4  0      -56.1650300240    -0.0000000052   0.000010928   0.000008476
   6  5  0      -56.1650300241    -0.0000000001   0.000000658   0.000000498
   7  6  0      -56.1650300241    -0.0000000000   0.000000118   0.000000058

          -----------------
          DENSITY CONVERGED
          -----------------
     TIME TO FORM FOCK OPERATORS=       0.0 SECONDS (       0.0 SEC/ITER)
     TIME TO SOLVE SCF EQUATIONS=       0.0 SECONDS (       0.0 SEC/ITER)

 FINAL RHF ENERGY IS      -56.1650300241 AFTER   7 ITERATIONS
 ...... END OF RHF CALCULATION ......
 STEP CPU TIME =     0.01 TOTAL CPU TIME =        0.1 (    0.0 MIN)
 TOTAL WALL CLOCK TIME=        1.6 SECONDS, CPU UTILIZATION IS   7.45%
 ..... END OF 1-ELECTRON GRADIENT ......
 STEP CPU TIME =     0.01 TOTAL CPU TIME =        0.1 (    0.0 MIN)
 TOTAL WALL CLOCK TIME=        1.6 SECONDS, CPU UTILIZATION IS   8.07%
 ...... END OF 2-ELECTRON GRADIENT ......
 STEP CPU TIME =     0.00 TOTAL CPU TIME =        0.1 (    0.0 MIN)
 TOTAL WALL CLOCK TIME=        1.6 SECONDS, CPU UTILIZATION IS   8.02%


                     --------------------
                     INTERNAL COORDINATES
                     --------------------

                 - - ATOMS - -         COORDINATE        GRADIENT
 NO.   TYPE    I  J  K  L  M  N         (ANG,DEG)     (H/B,H/RAD)
 ----------------------------------------------------------------
   1 STRETCH   1  2                     0.9870589       0.0002107
   2 STRETCH   1  3                     0.9870589       0.0002107
   3 STRETCH   1  4                     0.9870589       0.0002107
   4 BEND      3  1  2                119.6349139       0.0001140
   5 BEND      4  1  2                119.6349139       0.0001140
   6 TORSION   4  1  2  3            -167.9946774      -0.0009423

     NORMALIZED MASS WEIGHTED GRADIENT AT POINT QB
     (ORIGINAL GBNORM=  0.001165 HARTREE/BOHR-SQRT(AMU))

          ATOM            DE/DX       DE/DY       DE/DZ
          ----------------------------------------------
          NITROGEN      0.000000    0.000000    0.392496
          HYDROGEN     -0.105062    0.181973   -0.487678
          HYDROGEN     -0.105062   -0.181973   -0.487678
          HYDROGEN      0.210125    0.000000   -0.487678


 *** JUMPING TO POINT QC VIA A AMPC4   PACE ***
 ...... END OF ONE-ELECTRON INTEGRALS ......
 STEP CPU TIME =     0.00 TOTAL CPU TIME =        0.1 (    0.0 MIN)
 TOTAL WALL CLOCK TIME=        1.6 SECONDS, CPU UTILIZATION IS   8.02%
 TOTAL NUMBER OF NONZERO TWO-ELECTRON INTEGRALS =                1511
          1 INTEGRAL RECORDS WERE STORED ON DISK FILE  8.
  ...... END OF TWO-ELECTRON INTEGRALS .....
 STEP CPU TIME =     0.00 TOTAL CPU TIME =        0.1 (    0.0 MIN)
 TOTAL WALL CLOCK TIME=        1.6 SECONDS, CPU UTILIZATION IS   8.02%

          --------------------------
                 RHF SCF CALCULATION
          --------------------------
     DENSITY MATRIX CONV=  1.00E-05

 ITER EX DEM     TOTAL ENERGY        E CHANGE  DENSITY CHANGE    DIIS ERROR
          * * *   INITIATING DIIS PROCEDURE   * * *
   1  0  0      -56.1647699702   -56.1647699702   0.004422939   0.006122985
   2  1  0      -56.1648228023    -0.0000528321   0.002512386   0.003690987
   3  2  0      -56.1648308180    -0.0000080157   0.000453102   0.000571215
   4  3  0      -56.1648314802    -0.0000006622   0.000192346   0.000141790
   5  4  0      -56.1648315088    -0.0000000286   0.000033384   0.000014866
   6  5  0      -56.1648315093    -0.0000000005   0.000009465   0.000003443
   7  6  0      -56.1648315093    -0.0000000000   0.000001789   0.000000723

          -----------------
          DENSITY CONVERGED
          -----------------
     TIME TO FORM FOCK OPERATORS=       0.0 SECONDS (       0.0 SEC/ITER)
     TIME TO SOLVE SCF EQUATIONS=       0.0 SECONDS (       0.0 SEC/ITER)

 FINAL RHF ENERGY IS      -56.1648315093 AFTER   7 ITERATIONS
 ...... END OF RHF CALCULATION ......
 STEP CPU TIME =     0.00 TOTAL CPU TIME =        0.1 (    0.0 MIN)
 TOTAL WALL CLOCK TIME=        1.6 SECONDS, CPU UTILIZATION IS   7.93%
 ..... END OF 1-ELECTRON GRADIENT ......
 STEP CPU TIME =     0.00 TOTAL CPU TIME =        0.1 (    0.0 MIN)
 TOTAL WALL CLOCK TIME=        1.6 SECONDS, CPU UTILIZATION IS   7.93%
 ...... END OF 2-ELECTRON GRADIENT ......
 STEP CPU TIME =     0.00 TOTAL CPU TIME =        0.1 (    0.0 MIN)
 TOTAL WALL CLOCK TIME=        1.6 SECONDS, CPU UTILIZATION IS   7.93%
 ...... END OF ONE-ELECTRON INTEGRALS ......
 STEP CPU TIME =     0.00 TOTAL CPU TIME =        0.1 (    0.0 MIN)
 TOTAL WALL CLOCK TIME=        1.6 SECONDS, CPU UTILIZATION IS   7.93%
 TOTAL NUMBER OF NONZERO TWO-ELECTRON INTEGRALS =                1511
          1 INTEGRAL RECORDS WERE STORED ON DISK FILE  8.
  ...... END OF TWO-ELECTRON INTEGRALS .....
 STEP CPU TIME =     0.01 TOTAL CPU TIME =        0.1 (    0.0 MIN)
 TOTAL WALL CLOCK TIME=        1.6 SECONDS, CPU UTILIZATION IS   8.54%

          --------------------------
                 RHF SCF CALCULATION
          --------------------------
     DENSITY MATRIX CONV=  1.00E-05

 ITER EX DEM     TOTAL ENERGY        E CHANGE  DENSITY CHANGE    DIIS ERROR
          * * *   INITIATING DIIS PROCEDURE   * * *
   1  0  0      -56.1649814312   -56.1649814312   0.003079005   0.004365653
   2  1  0      -56.1650072072    -0.0000257760   0.001757176   0.002580958
   3  2  0      -56.1650111041    -0.0000038968   0.000313699   0.000408981
   4  3  0      -56.1650114243    -0.0000003202   0.000133915   0.000098815
   5  4  0      -56.1650114382    -0.0000000139   0.000023172   0.000010517
   6  5  0      -56.1650114385    -0.0000000003   0.000006506   0.000002353
   7  6  0      -56.1650114385    -0.0000000000   0.000001227   0.000000495

          -----------------
          DENSITY CONVERGED
          -----------------
     TIME TO FORM FOCK OPERATORS=       0.0 SECONDS (       0.0 SEC/ITER)
     TIME TO SOLVE SCF EQUATIONS=       0.0 SECONDS (       0.0 SEC/ITER)

 FINAL RHF ENERGY IS      -56.1650114385 AFTER   7 ITERATIONS
 ...... END OF RHF CALCULATION ......
 STEP CPU TIME =     0.00 TOTAL CPU TIME =        0.1 (    0.0 MIN)
 TOTAL WALL CLOCK TIME=        1.7 SECONDS, CPU UTILIZATION IS   8.38%
 ..... END OF 1-ELECTRON GRADIENT ......
 STEP CPU TIME =     0.00 TOTAL CPU TIME =        0.1 (    0.0 MIN)
 TOTAL WALL CLOCK TIME=        1.7 SECONDS, CPU UTILIZATION IS   8.38%
 ...... END OF 2-ELECTRON GRADIENT ......
 STEP CPU TIME =     0.00 TOTAL CPU TIME =        0.1 (    0.0 MIN)
 TOTAL WALL CLOCK TIME=        1.7 SECONDS, CPU UTILIZATION IS   8.38%
 THE DISTANCE FROM QB TO QC (OR QC') IS   0.00247 SQRT(AMU)-BOHR)
  TOTAL PATH DISTANCE TO QC (OR QC') IS   0.18201 SQRT(AMU)-BOHR)
 ......NEXT POINT ON IRC FOUND......RENAMING QC(QC')-->QB-->QA.


                     --------------------
                     INTERNAL COORDINATES
                     --------------------

                 - - ATOMS - -         COORDINATE      COORDINATE
 NO.   TYPE    I  J  K  L  M  N        (BOHR,RAD)       (ANG,DEG)
 ----------------------------------------------------------------
   1 STRETCH   1  2                     1.8645301       0.9866669
   2 STRETCH   1  3                     1.8645301       0.9866669
   3 STRETCH   1  4                     1.8645301       0.9866669
   4 BEND      3  1  2                  2.0878735     119.6263376
   5 BEND      4  1  2                  2.0878735     119.6263376
   6 TORSION   4  1  2  3              -2.9296271    -167.8552694

 THE NUCLEAR REPULSION AT THE IRC POINT IS       12.1935959067

 * * * IRC RESTART INFORMATION * * *
 COORDINATES FOR $DATA AND ENTIRE $IRC GROUP FOLLOW

 COORDINATES OF SYMMETRY UNIQUE ATOMS (ANGS)
   ATOM   CHARGE       X              Y              Z
 ------------------------------------------------------------
 NITROGEN    7.0   0.0000000000   0.0000000000  -0.0107610659
 HYDROGEN    1.0   0.9848041516   0.0000000000   0.0498393388
 $IRC   PACE=AMPC4      STRIDE= 0.01000   NPOINT=??
        STOTAL=  0.182007   NEXTPT=   4
        NPRT= 0   NPUN= 0   SADDLE=.FALSE.
        SAB=  0.002471
        GA0(   1)= 0.000000000E+00, 0.000000000E+00, 3.924961705E-01
        GA0(   4)=-1.050622940E-01, 1.819732311E-01,-4.876780799E-01
        GA0(   7)=-1.050622940E-01,-1.819732311E-01,-4.876780799E-01
        GA0(  10)= 2.101245879E-01, 0.000000000E+00,-4.876780799E-01
        GA1(   1)= 0.000000000E+00, 0.000000000E+00, 3.024143121E-01
        GA1(   4)=-2.010346421E-01, 3.482022141E-01,-3.757510063E-01
        GA1(   7)=-2.010346421E-01,-3.482022141E-01,-3.757510063E-01
        GA1(  10)= 4.020692841E-01, 0.000000000E+00,-3.757510063E-01
        GA2(   1)= 0.000000000E+00, 0.000000000E+00, 1.672104790E-01
        GA2(   4)= 2.649761595E-01,-4.589521710E-01,-2.077596967E-01
        GA2(   7)= 2.649761595E-01, 4.589521710E-01,-2.077596967E-01
        GA2(  10)=-5.299523189E-01, 0.000000000E+00,-2.077596967E-01
         GB(   1)= 0.000000000E+00, 0.000000000E+00, 3.924961705E-01
         GB(   4)=-1.050622940E-01, 1.819732311E-01,-4.876780799E-01
         GB(   7)=-1.050622940E-01,-1.819732311E-01,-4.876780799E-01
         GB(  10)= 2.101245879E-01, 0.000000000E+00,-4.876780799E-01
 $END   
1         POINT   4 ON THE REACTION PATH
          ******************************
          AT PATH DISTANCE STOTAL=   0.18201

          THE COORDINATES OF POINT QB ARE
 COORDINATES OF ALL ATOMS ARE (ANGS)
   ATOM   CHARGE       X              Y              Z
 ------------------------------------------------------------
 NITROGEN    7.0   0.0000000000   0.0000000000  -0.0107610659
 HYDROGEN    1.0  -0.4924020758   0.8528654131   0.0498393388
 HYDROGEN    1.0  -0.4924020758  -0.8528654131   0.0498393388
 HYDROGEN    1.0   0.9848041516   0.0000000000   0.0498393388
 COORDINATES OF SYMMETRY UNIQUE ATOMS (ANGS)
   ATOM   CHARGE       X              Y              Z
 ------------------------------------------------------------
 NITROGEN    7.0   0.0000000000   0.0000000000  -0.0107610659
 HYDROGEN    1.0   0.9848041516   0.0000000000   0.0498393388

          INTERNUCLEAR DISTANCES (ANGS.)
          ------------------------------

                1 NITR       2 HYDR       3 HYDR       4 HYDR  

   1 NITR    0.0000000    0.9866669 *  0.9866669 *  0.9866669 *
   2 HYDR    0.9866669 *  0.0000000    1.7057308 *  1.7057308 *
   3 HYDR    0.9866669 *  1.7057308 *  0.0000000    1.7057308 *
   4 HYDR    0.9866669 *  1.7057308 *  1.7057308 *  0.0000000  

  * ... LESS THAN  3.000

 ...... END OF ONE-ELECTRON INTEGRALS ......
 STEP CPU TIME =     0.00 TOTAL CPU TIME =        0.1 (    0.0 MIN)
 TOTAL WALL CLOCK TIME=        1.7 SECONDS, CPU UTILIZATION IS   8.38%
 TOTAL NUMBER OF NONZERO TWO-ELECTRON INTEGRALS =                1511
          1 INTEGRAL RECORDS WERE STORED ON DISK FILE  8.
  ...... END OF TWO-ELECTRON INTEGRALS .....
 STEP CPU TIME =     0.00 TOTAL CPU TIME =        0.1 (    0.0 MIN)
 TOTAL WALL CLOCK TIME=        1.7 SECONDS, CPU UTILIZATION IS   8.33%

          --------------------------
                 RHF SCF CALCULATION
          --------------------------
     DENSITY MATRIX CONV=  1.00E-05

 ITER EX DEM     TOTAL ENERGY        E CHANGE  DENSITY CHANGE    DIIS ERROR
          * * *   INITIATING DIIS PROCEDURE   * * *
   1  0  0      -56.1650251221   -56.1650251221   0.001534832   0.002191843
   2  1  0      -56.1650313242    -0.0000062021   0.000874756   0.001278763
   3  2  0      -56.1650322719    -0.0000009478   0.000153325   0.000205026
   4  3  0      -56.1650323431    -0.0000000712   0.000063526   0.000048313
   5  4  0      -56.1650323457    -0.0000000026   0.000007409   0.000005703
   6  5  0      -56.1650323457    -0.0000000000   0.000001199   0.000000438

          -----------------
          DENSITY CONVERGED
          -----------------
     TIME TO FORM FOCK OPERATORS=       0.0 SECONDS (       0.0 SEC/ITER)
     TIME TO SOLVE SCF EQUATIONS=       0.0 SECONDS (       0.0 SEC/ITER)

 FINAL RHF ENERGY IS      -56.1650323457 AFTER   6 ITERATIONS
 ...... END OF RHF CALCULATION ......
 STEP CPU TIME =     0.00 TOTAL CPU TIME =        0.1 (    0.0 MIN)
 TOTAL WALL CLOCK TIME=        1.7 SECONDS, CPU UTILIZATION IS   8.28%
 ..... END OF 1-ELECTRON GRADIENT ......
 STEP CPU TIME =     0.01 TOTAL CPU TIME =        0.1 (    0.0 MIN)
 TOTAL WALL CLOCK TIME=        1.7 SECONDS, CPU UTILIZATION IS   8.88%
 ...... END OF 2-ELECTRON GRADIENT ......
 STEP CPU TIME =     0.00 TOTAL CPU TIME =        0.1 (    0.0 MIN)
 TOTAL WALL CLOCK TIME=        1.7 SECONDS, CPU UTILIZATION IS   8.88%


                     --------------------
                     INTERNAL COORDINATES
                     --------------------

                 - - ATOMS - -         COORDINATE        GRADIENT
 NO.   TYPE    I  J  K  L  M  N         (ANG,DEG)     (H/B,H/RAD)
 ----------------------------------------------------------------
   1 STRETCH   1  2                     0.9866669      -0.0002139
   2 STRETCH   1  3                     0.9866669      -0.0002139
   3 STRETCH   1  4                     0.9866669      -0.0002139
   4 BEND      3  1  2                119.6263376       0.0001151
   5 BEND      4  1  2                119.6263376       0.0001151
   6 TORSION   4  1  2  3            -167.8552694      -0.0009406

     NORMALIZED MASS WEIGHTED GRADIENT AT POINT QB
     (ORIGINAL GBNORM=  0.001174 HARTREE/BOHR-SQRT(AMU))

          ATOM            DE/DX       DE/DY       DE/DZ
          ----------------------------------------------
          NITROGEN      0.000000    0.000000    0.406776
          HYDROGEN      0.075378   -0.130558   -0.505421
          HYDROGEN      0.075378    0.130558   -0.505421
          HYDROGEN     -0.150756    0.000000   -0.505421


 *** JUMPING TO POINT QC VIA A AMPC4   PACE ***
 ...... END OF ONE-ELECTRON INTEGRALS ......
 STEP CPU TIME =     0.00 TOTAL CPU TIME =        0.1 (    0.0 MIN)
 TOTAL WALL CLOCK TIME=        1.7 SECONDS, CPU UTILIZATION IS   8.82%
 TOTAL NUMBER OF NONZERO TWO-ELECTRON INTEGRALS =                1511
          1 INTEGRAL RECORDS WERE STORED ON DISK FILE  8.
  ...... END OF TWO-ELECTRON INTEGRALS .....
 STEP CPU TIME =     0.00 TOTAL CPU TIME =        0.1 (    0.0 MIN)
 TOTAL WALL CLOCK TIME=        1.7 SECONDS, CPU UTILIZATION IS   8.82%

          --------------------------
                 RHF SCF CALCULATION
          --------------------------
     DENSITY MATRIX CONV=  1.00E-05

 ITER EX DEM     TOTAL ENERGY        E CHANGE  DENSITY CHANGE    DIIS ERROR
          * * *   INITIATING DIIS PROCEDURE   * * *
   1  0  0      -56.1650400019   -56.1650400019   0.000696191   0.001779797
   2  1  0      -56.1650421185    -0.0000021166   0.000326101   0.000408409
   3  2  0      -56.1650423006    -0.0000001822   0.000108058   0.000112623
   4  3  0      -56.1650423245    -0.0000000238   0.000111067   0.000039521
   5  4  0      -56.1650423280    -0.0000000035   0.000009886   0.000002524
   6  5  0      -56.1650423280    -0.0000000000   0.000000650   0.000000502

          -----------------
          DENSITY CONVERGED
          -----------------
     TIME TO FORM FOCK OPERATORS=       0.0 SECONDS (       0.0 SEC/ITER)
     TIME TO SOLVE SCF EQUATIONS=       0.0 SECONDS (       0.0 SEC/ITER)

 FINAL RHF ENERGY IS      -56.1650423280 AFTER   6 ITERATIONS
 ...... END OF RHF CALCULATION ......
 STEP CPU TIME =     0.00 TOTAL CPU TIME =        0.1 (    0.0 MIN)
 TOTAL WALL CLOCK TIME=        1.7 SECONDS, CPU UTILIZATION IS   8.77%
 ..... END OF 1-ELECTRON GRADIENT ......
 STEP CPU TIME =     0.00 TOTAL CPU TIME =        0.1 (    0.0 MIN)
 TOTAL WALL CLOCK TIME=        1.7 SECONDS, CPU UTILIZATION IS   8.77%
 ...... END OF 2-ELECTRON GRADIENT ......
 STEP CPU TIME =     0.01 TOTAL CPU TIME =        0.2 (    0.0 MIN)
 TOTAL WALL CLOCK TIME=        1.7 SECONDS, CPU UTILIZATION IS   9.36%
 ...... END OF ONE-ELECTRON INTEGRALS ......
 STEP CPU TIME =     0.00 TOTAL CPU TIME =        0.2 (    0.0 MIN)
 TOTAL WALL CLOCK TIME=        1.7 SECONDS, CPU UTILIZATION IS   9.36%
 TOTAL NUMBER OF NONZERO TWO-ELECTRON INTEGRALS =                1511
          1 INTEGRAL RECORDS WERE STORED ON DISK FILE  8.
  ...... END OF TWO-ELECTRON INTEGRALS .....
 STEP CPU TIME =     0.00 TOTAL CPU TIME =        0.2 (    0.0 MIN)
 TOTAL WALL CLOCK TIME=        1.7 SECONDS, CPU UTILIZATION IS   9.30%

          --------------------------
                 RHF SCF CALCULATION
          --------------------------
     DENSITY MATRIX CONV=  1.00E-05

 ITER EX DEM     TOTAL ENERGY        E CHANGE  DENSITY CHANGE    DIIS ERROR
          * * *   INITIATING DIIS PROCEDURE   * * *
   1  0  0      -56.1650372397   -56.1650372397   0.000323944   0.000827274
   2  1  0      -56.1650376976    -0.0000004579   0.000151823   0.000189827
   3  2  0      -56.1650377370    -0.0000000394   0.000050321   0.000052437
   4  3  0      -56.1650377422    -0.0000000052   0.000051672   0.000018397
   5  4  0      -56.1650377430    -0.0000000008   0.000004596   0.000001174
   6  5  0      -56.1650377430    -0.0000000000   0.000000307   0.000000235

          -----------------
          DENSITY CONVERGED
          -----------------
     TIME TO FORM FOCK OPERATORS=       0.0 SECONDS (       0.0 SEC/ITER)
     TIME TO SOLVE SCF EQUATIONS=       0.0 SECONDS (       0.0 SEC/ITER)

 FINAL RHF ENERGY IS      -56.1650377430 AFTER   6 ITERATIONS
 ...... END OF RHF CALCULATION ......
 STEP CPU TIME =     0.00 TOTAL CPU TIME =        0.2 (    0.0 MIN)
 TOTAL WALL CLOCK TIME=        1.7 SECONDS, CPU UTILIZATION IS   9.25%
 ..... END OF 1-ELECTRON GRADIENT ......
 STEP CPU TIME =     0.00 TOTAL CPU TIME =        0.2 (    0.0 MIN)
 TOTAL WALL CLOCK TIME=        1.7 SECONDS, CPU UTILIZATION IS   9.25%
 ...... END OF 2-ELECTRON GRADIENT ......
 STEP CPU TIME =     0.00 TOTAL CPU TIME =        0.2 (    0.0 MIN)
 TOTAL WALL CLOCK TIME=        1.7 SECONDS, CPU UTILIZATION IS   9.20%
 THE DISTANCE FROM QB TO QC (OR QC') IS   0.00537 SQRT(AMU)-BOHR)
  TOTAL PATH DISTANCE TO QC (OR QC') IS   0.18737 SQRT(AMU)-BOHR)
 ......NEXT POINT ON IRC FOUND......RENAMING QC(QC')-->QB-->QA.


                     --------------------
                     INTERNAL COORDINATES
                     --------------------

                 - - ATOMS - -         COORDINATE      COORDINATE
 NO.   TYPE    I  J  K  L  M  N        (BOHR,RAD)       (ANG,DEG)
 ----------------------------------------------------------------
   1 STRETCH   1  2                     1.8654609       0.9871595
   2 STRETCH   1  3                     1.8654609       0.9871595
   3 STRETCH   1  4                     1.8654609       0.9871595
   4 BEND      3  1  2                  2.0874990     119.6048810
   5 BEND      4  1  2                  2.0874990     119.6048810
   6 TORSION   4  1  2  3              -2.9236614    -167.5134608

 THE NUCLEAR REPULSION AT THE IRC POINT IS       12.1876131415

 * * * IRC RESTART INFORMATION * * *
 COORDINATES FOR $DATA AND ENTIRE $IRC GROUP FOLLOW

 COORDINATES OF SYMMETRY UNIQUE ATOMS (ANGS)
   ATOM   CHARGE       X              Y              Z
 ------------------------------------------------------------
 NITROGEN    7.0   0.0000000000   0.0000000000  -0.0110718339
 HYDROGEN    1.0   0.9851884378   0.0000000000   0.0512786452
 $IRC   PACE=AMPC4      STRIDE= 0.01000   NPOINT=??
        STOTAL=  0.187373   NEXTPT=   5
        NPRT= 0   NPUN= 0   SADDLE=.FALSE.
        SAB=  0.005366
        GA0(   1)= 0.000000000E+00, 0.000000000E+00, 4.067761943E-01
        GA0(   4)= 7.537780516E-02,-1.305581883E-01,-5.054210672E-01
        GA0(   7)= 7.537780516E-02, 1.305581883E-01,-5.054210672E-01
        GA0(  10)=-1.507556103E-01, 0.000000000E+00,-5.054210672E-01
        GA1(   1)= 0.000000000E+00, 0.000000000E+00, 3.924961705E-01
        GA1(   4)=-1.050622940E-01, 1.819732311E-01,-4.876780799E-01
        GA1(   7)=-1.050622940E-01,-1.819732311E-01,-4.876780799E-01
        GA1(  10)= 2.101245879E-01, 0.000000000E+00,-4.876780799E-01
        GA2(   1)= 0.000000000E+00, 0.000000000E+00, 3.024143121E-01
        GA2(   4)=-2.010346421E-01, 3.482022141E-01,-3.757510063E-01
        GA2(   7)=-2.010346421E-01,-3.482022141E-01,-3.757510063E-01
        GA2(  10)= 4.020692841E-01, 0.000000000E+00,-3.757510063E-01
         GB(   1)= 0.000000000E+00, 0.000000000E+00, 4.067761943E-01
         GB(   4)= 7.537780516E-02,-1.305581883E-01,-5.054210672E-01
         GB(   7)= 7.537780516E-02, 1.305581883E-01,-5.054210672E-01
         GB(  10)=-1.507556103E-01, 0.000000000E+00,-5.054210672E-01
 $END   
 ......DONE WITH THIS PORTION OF THE IRC......
 STEP CPU TIME =     0.00 TOTAL CPU TIME =        0.2 (    0.0 MIN)
 TOTAL WALL CLOCK TIME=        1.7 SECONDS, CPU UTILIZATION IS   9.20%
               580000  WORDS OF DYNAMIC MEMORY USED
 EXECUTION OF GAMESS TERMINATED NORMALLY Mon Nov 28 22:14:06 2016
 DDI: 263640 bytes (0.3 MB / 0 MWords) used by master data server.

 ----------------------------------------
 CPU timing information for all processes
 ========================================
 0: 0.117 + 0.68 = 0.186
 ----------------------------------------
 ddikick.x: exited gracefully.
unset echo
----- accounting info -----
Files used on the master node compute-3-0 were:
-rw-rw-r-- 1 sarom sarom   15789 Nov 29  2016 .//irc-ampc4.dat
-rw-rw-r-- 1 sarom sarom    1682 Nov 29  2016 .//irc-ampc4.F05
-rw-rw-r-- 1 sarom sarom  180016 Nov 29  2016 .//irc-ampc4.F08
-rw-rw-r-- 1 sarom sarom 1799600 Nov 29  2016 .//irc-ampc4.F10
-rw-rw-r-- 1 sarom sarom    1682 Nov 28 17:27 .//irc-ampc4.inp
-rw-rw-r-- 1 sarom sarom   76764 Nov 29  2016 .//irc-ampc4.log
-rw-rw-r-- 1 sarom sarom    3572 Nov 29  2016 .//irc-ampc4.trj
Mon Nov 28 22:14:11 CST 2016
0.196u 0.514s 0:06.77 10.3%	0+0k 0+136io 0pf+0w
