----- GAMESS execution script 'rungms' -----
This job is running on host compute-3-0
under operating system Linux at Mon Nov 28 22:14:04 CST 2016
Available scratch disk space (Kbyte units) at beginning of the job is
Filesystem            1K-blocks       Used  Available Use% Mounted on
bolt.local:/export/home/sarom
                     9590469632 1553061888 7550239744  18% /home/sarom
Copying input file mex-hon.inp to your run's scratch directory...
cp mex-hon.inp .//mex-hon.F05
unset echo
/home/sarom/gamessGH/ddikick.x /home/sarom/gamessGH/gamess.00.x mex-hon -ddi 1 1 localhost -scr ./

 Distributed Data Interface kickoff program.
 Initiating 1 compute processes on 1 nodes to run the following command:
 /home/sarom/gamessGH/gamess.00.x mex-hon 

          ******************************************************
          *         GAMESS VERSION = 18 AUG 2016 (R1)          *
          *             FROM IOWA STATE UNIVERSITY             *
          * M.W.SCHMIDT, K.K.BALDRIDGE, J.A.BOATZ, S.T.ELBERT, *
          *   M.S.GORDON, J.H.JENSEN, S.KOSEKI, N.MATSUNAGA,   *
          *          K.A.NGUYEN, S.J.SU, T.L.WINDUS,           *
          *       TOGETHER WITH M.DUPUIS, J.A.MONTGOMERY       *
          *         J.COMPUT.CHEM.  14, 1347-1363(1993)        *
          **************** 64 BIT LINUX VERSION ****************

  SINCE 1993, STUDENTS AND POSTDOCS WORKING AT IOWA STATE UNIVERSITY
  AND ALSO IN THEIR VARIOUS JOBS AFTER LEAVING ISU HAVE MADE IMPORTANT
  CONTRIBUTIONS TO THE CODE:
     IVANA ADAMOVIC, CHRISTINE AIKENS, YURI ALEXEEV, POOJA ARORA,
     ANDREY ASADCHEV, ROB BELL, PRADIPTA BANDYOPADHYAY, JONATHAN BENTZ,
     BRETT BODE, KURT BRORSEN, CALEB CARLIN, GALINA CHABAN, WEI CHEN,
     CHEOL HO CHOI, PAUL DAY, ALBERT DEFUSCO, NUWAN DESILVA, TIM DUDLEY,
     DMITRI FEDOROV, GRAHAM FLETCHER, MARK FREITAG, KURT GLAESEMANN,
     DAN KEMP, GRANT MERRILL, NORIYUKI MINEZAWA, JONATHAN MULLIN,
     TAKESHI NAGATA, SEAN NEDD, HEATHER NETZLOFF, BOSILJKA NJEGIC, RYAN OLSON,
     MIKE PAK, SPENCER PRUITT, LUKE ROSKOP, JIM SHOEMAKER, LYUDMILA SLIPCHENKO,
     TONY SMITH, SAROM SOK LEANG, JIE SONG, TETSUYA TAKETSUGU, SIMON WEBB,
     PENG XU, SOOHAENG YOO, FEDERICO ZAHARIEV

  ADDITIONAL CODE HAS BEEN PROVIDED BY COLLABORATORS IN OTHER GROUPS:
     IOWA STATE UNIVERSITY:
          JOE IVANIC, AARON WEST, LAIMUTIS BYTAUTAS, KLAUS RUEDENBERG
     UNIVERSITY OF TOKYO: KIMIHIKO HIRAO, TAKAHITO NAKAJIMA,
          TAKAO TSUNEDA, MUNEAKI KAMIYA, SUSUMU YANAGISAWA,
          KIYOSHI YAGI, MAHITO CHIBA, SEIKEN TOKURA, NAOAKI KAWAKAMI
     UNIVERSITY OF AARHUS: FRANK JENSEN
     UNIVERSITY OF IOWA: VISVALDAS KAIRYS, HUI LI
     NATIONAL INST. OF STANDARDS AND TECHNOLOGY: WALT STEVENS, DAVID GARMER
     UNIVERSITY OF PISA: BENEDETTA MENNUCCI, JACOPO TOMASI
     UNIVERSITY OF MEMPHIS: HENRY KURTZ, PRAKASHAN KORAMBATH
     UNIVERSITY OF ALBERTA: TOBY ZENG, MARIUSZ KLOBUKOWSKI
     UNIVERSITY OF NEW ENGLAND: MARK SPACKMAN
     MIE UNIVERSITY: HIROAKI UMEDA
     NAT. INST. OF ADVANCED INDUSTRIAL SCIENCE AND TECHNOLOGY: KAZUO KITAURA
     MICHIGAN STATE UNIVERSITY:
          KAROL KOWALSKI, MARTA WLOCH, JEFFREY GOUR, JESSE LUTZ,
          WEI LI, PIOTR PIECUCH
     UNIVERSITY OF SILESIA: MONIKA MUSIAL, STANISLAW KUCHARSKI
     FACULTES UNIVERSITAIRES NOTRE-DAME DE LA PAIX:
          OLIVIER QUINET, BENOIT CHAMPAGNE
     UNIVERSITY OF CALIFORNIA - SANTA BARBARA: BERNARD KIRTMAN
     INSTITUTE FOR MOLECULAR SCIENCE:
          KAZUYA ISHIMURA, MICHIO KATOUDA, AND SHIGERU NAGASE
     UNIVERSITY OF NOTRE DAME: ANNA POMOGAEVA, DAN CHIPMAN
     KYUSHU UNIVERSITY:
          HARUYUKI NAKANO,
          FENG LONG GU, JACEK KORCHOWIEC, MARCIN MAKOWSKI, AND YURIKO AOKI,
          HIROTOSHI MORI AND EISAKU MIYOSHI
     PENNSYLVANIA STATE UNIVERSITY:
          TZVETELIN IORDANOV, CHET SWALINA, JONATHAN SKONE,
          SHARON HAMMES-SCHIFFER
     WASEDA UNIVERSITY:
          MASATO KOBAYASHI, TOMOKO AKAMA, TSUGUKI TOUMA,
          TAKESHI YOSHIKAWA, YASUHIRO IKABATA, JUNJI SEINO,
          YUYA NAKAJIMA, HIROMI NAKAI
     NANJING UNIVERSITY: SHUHUA LI
     UNIVERSITY OF NEBRASKA:
          PEIFENG SU, DEJUN SI, NANDUN THELLAMUREGE, YALI WANG, HUI LI
     UNIVERSITY OF ZURICH: ROBERTO PEVERATI, KIM BALDRIDGE
     N. COPERNICUS UNIVERSITY AND JACKSON STATE UNIVERSITY:
          MARIA BARYSZ
     UNIVERSITY OF COPENHAGEN: Jimmy Kromann, CASPER STEINMANN
     TOKYO INSTITUTE OF TECHNOLOGY: HIROYA NAKATA
     NAGOYA UNIVERSITY: YOSHIO NISHIMOTO, STEPHAN IRLE
     MOSCOW STATE UNIVERSITY: VLADIMIR MIRONOV

 EXECUTION OF GAMESS BEGUN Mon Nov 28 22:14:05 2016

            ECHO OF THE FIRST FEW INPUT CARDS -
 INPUT CARD>!   MP2 minimum energy crossing...HON's famous 1A' and 3A'' surfaces            
 INPUT CARD>!                                                                               
 INPUT CARD>!   The PBE0 seam crossing should find the MEX in 9 steps,                      
 INPUT CARD>!      NSERCH=  9                   ACTUAL    THRESHOLD                         
 INPUT CARD>!      ------------------------------------   ---------                         
 INPUT CARD>!      ENERGY OF FIRST STATE  = -130.242334                                     
 INPUT CARD>!      ENERGY OF 2nd    STATE = -130.242340                                     
 INPUT CARD>!      ENERGY DIFFERENCE =         0.000006    0.000010                         
 INPUT CARD>!      MAX EFFECTIVE GRADIENT =    0.000034    0.000500                         
 INPUT CARD>!      RMS EFFECTIVE GRADIENT =    0.000016    0.000300                         
 INPUT CARD>!      MAX CHANGE OF X =           0.000209    0.002000                         
 INPUT CARD>!      RMS CHANGE OF X =           0.000087    0.001500                         
 INPUT CARD>!                                                                               
 INPUT CARD>!   This run takes 81 seconds on 2.66 GHz Cloverton (29 Apr 2015)               
 INPUT CARD>!                                                                               
 INPUT CARD>!   ---------------------------------------------------------------             
 INPUT CARD>!   For HON, 1A' and 3A'', all starting at the same geometry,                   
 INPUT CARD>!                          #steps   NO     OH   a(HON)                          
 INPUT CARD>!       RHF  ROHF             33   1.159  1.208  118.1                          
 INPUT CARD>!       RHF  ROHF  + B3LYP     7   1.047  1.240  118.0                          
 INPUT CARD>!       RHF  ROHF  + MPLEVL    8   1.171  1.214  117.7                          
 INPUT CARD>!       RHF  UHF              13   0.964  1.108  117.2                          
 INPUT CARD>!       RHF  UHF   + B3LYP     9   1.047  1.240  118.0                          
 INPUT CARD>!       RHF  UHF   + MPLEVL    9   1.173  1.221  117.6                          
 INPUT CARD>!   with this test doing the 3rd line of that table.                            
 INPUT CARD>!                                                                               
 INPUT CARD>!   MCSCF, with active space being all valence orbitals starts off              
 INPUT CARD>!   bringing E's together, but then goes many steps, to atomization.            
 INPUT CARD>!   Determinants act exactly the same, as they should.                          
 INPUT CARD>!   This probably means restarting after 5 or so steps                          
 INPUT CARD>!   because H dissociation might make sense, but why long NO?                   
 INPUT CARD>--- $mex    scf1=mcscf mult1=1  scf2=mcscf mult2=3                              
 INPUT CARD>---         nstep=40 nrdmos=3 nmos1=35 nmos2=35 $end                            
 INPUT CARD>--- $mcscf  cistep=guga $end                                                    
 INPUT CARD>--- $drt1   group=Cs fors=.t. istsym=1 nmcc=2 ndoc=6 nalp=0 nval=3 $end         
 INPUT CARD>--- $drt2   group=Cs fors=.t. istsym=2 nmcc=2 ndoc=5 nalp=2 nval=2 $end         
 INPUT CARD>!                                                                               
 INPUT CARD>--- $contrl runtyp=mex mplevl=2 $end                                            
 INPUT CARD>--- $system mwords=1 memddi=5 $end                                              
 INPUT CARD>--- $mex    scf1=rhf mult1=1  scf2=rohf mult2=3                                 
 INPUT CARD>---         nstep=40 nrdmos=0 nmos2=0 $end                                      
 INPUT CARD>                                                                                
 INPUT CARD> $contrl runtyp=mex mplevl=0 dfttyp=pbe0 $end                                   
 INPUT CARD> $system mwords=1 $end                                                          
 INPUT CARD> $mex    scf1=rhf mult1=1  scf2=uhf mult2=3                                     
 INPUT CARD>         nstep=40 nrdmos=0 nmos2=0 $end                                         
 INPUT CARD>                                                                                
 INPUT CARD>                                                                                
 INPUT CARD> $basis  gbasis=n31 ngauss=6 ndfunc=1 npfunc=1 $end                             
 INPUT CARD> $guess  guess=huckel $end                                                      
    1000000 WORDS OF MEMORY AVAILABLE

     BASIS OPTIONS
     -------------
     GBASIS=N31          IGAUSS=       6      POLAR=POPN31  
     NDFUNC=       1     NFFUNC=       0     DIFFSP=       F
     NPFUNC=       1      DIFFS=       F     BASNAM=        


     RUN TITLE
     ---------
 MEX on HON ... 6-31G(d,p)                                                       

 THE POINT GROUP OF THE MOLECULE IS CS      
 THE ORDER OF THE PRINCIPAL AXIS IS     0

 ATOM      ATOMIC                      COORDINATES (BOHR)
           CHARGE         X                   Y                   Z
 N           7.0    -2.2320981233        0.6418280158        0.0000000000
 O           8.0    -0.2611919577       -0.9147700985        0.0000000000
 H           1.0     2.2481045788        0.3205288762        0.0000000000

          INTERNUCLEAR DISTANCES (ANGS.)
          ------------------------------

                1 N          2 O          3 H     

   1 N       0.0000000    1.3290114 *  2.3769102 *
   2 O       1.3290114 *  0.0000000    1.4800448 *
   3 H       2.3769102 *  1.4800448 *  0.0000000  

  * ... LESS THAN  3.000


     ATOMIC BASIS SET
     ----------------
 THE CONTRACTED PRIMITIVE FUNCTIONS HAVE BEEN UNNORMALIZED
 THE CONTRACTED BASIS FUNCTIONS ARE NOW NORMALIZED TO UNITY

  SHELL TYPE  PRIMITIVE        EXPONENT          CONTRACTION COEFFICIENT(S)

 N         

      1   S       1          4173.5114600    0.001834772160
      1   S       2           627.4579110    0.013994627002
      1   S       3           142.9020930    0.068586551812
      1   S       4            40.2343293    0.232240873040
      1   S       5            12.8202129    0.469069948082
      1   S       6             4.3904370    0.360455199063

      2   L       7            11.6263619   -0.114961181702    0.067579743878
      2   L       8             2.7162798   -0.169117478561    0.323907295893
      2   L       9             0.7722184    1.145851947027    0.740895139755

      3   L      10             0.2120315    1.000000000000    1.000000000000

      4   D      11             0.8000000    1.000000000000

 O         

      5   S      12          5484.6716600    0.001831074430
      5   S      13           825.2349460    0.013950172200
      5   S      14           188.0469580    0.068445078098
      5   S      15            52.9645000    0.232714335992
      5   S      16            16.8975704    0.470192897984
      5   S      17             5.7996353    0.358520852987

      6   L      18            15.5396162   -0.110777549525    0.070874268231
      6   L      19             3.5999336   -0.148026262701    0.339752839147
      6   L      20             1.0137618    1.130767015354    0.727158577316

      7   L      21             0.2700058    1.000000000000    1.000000000000

      8   D      22             0.8000000    1.000000000000

 H         

      9   S      23            18.7311370    0.033494604338
      9   S      24             2.8253944    0.234726953484
      9   S      25             0.6401217    0.813757326146

     10   S      26             0.1612778    1.000000000000

     11   P      27             1.1000000    1.000000000000

 TOTAL NUMBER OF BASIS SET SHELLS             =   11
 NUMBER OF CARTESIAN GAUSSIAN BASIS FUNCTIONS =   35
 NUMBER OF ELECTRONS                          =   16
 CHARGE OF MOLECULE                           =    0
 SPIN MULTIPLICITY                            =    1
 NUMBER OF OCCUPIED ORBITALS (ALPHA)          =    8
 NUMBER OF OCCUPIED ORBITALS (BETA )          =    8
 TOTAL NUMBER OF ATOMS                        =    3
 THE NUCLEAR REPULSION ENERGY IS       26.7164786045

     LEBEDEV GRID-BASED DFT OPTIONS
     ------------------------------
     DFTTYP=PBE0    
     NRAD  =      96     NLEB  =     302
     NRAD0 =      24     NLEB0 =     110
     SWOFF =    5.00E-03 (PURE SCF -> DFT)
     SWITCH=    3.00E-04 (COARSE -> TIGHT GRID)
     THRESH=    0.00E+00 GTHRE=    1.00E+00

 GRIMME'S EMPIRICAL DISPERSION CORRECTION= F

     $CONTRL OPTIONS
     ---------------
 SCFTYP=RHF          RUNTYP=MEX          EXETYP=RUN     
 MPLEVL=       0     CITYP =NONE         CCTYP =NONE         VBTYP =NONE    
 DFTTYP=PBE0         TDDFT =NONE    
 MULT  =       1     ICHARG=       0     NZVAR =       0     COORD =UNIQUE  
 PP    =NONE         RELWFN=NONE         LOCAL =NONE         NUMGRD=       F
 ISPHER=      -1     NOSYM =       0     MAXIT =      30     UNITS =ANGS    
 PLTORB=       F     MOLPLT=       F     AIMPAC=       F     FRIEND=        
 NPRINT=       7     IREST =       0     GEOM  =INPUT   
 NORMF =       0     NORMP =       0     ITOL  =      20     ICUT  =       9
 INTTYP=BEST         GRDTYP=BEST         QMTTOL= 1.0E-06

     $SYSTEM OPTIONS
     ---------------
  REPLICATED MEMORY=     1000000 WORDS (ON EVERY NODE).
 DISTRIBUTED MEMDDI=           0 MILLION WORDS IN AGGREGATE,
 MEMDDI DISTRIBUTED OVER   1 PROCESSORS IS           0 WORDS/PROCESSOR.
 TOTAL MEMORY REQUESTED ON EACH PROCESSOR=     1000000 WORDS.
 TIMLIM=      525600.00 MINUTES, OR     365.0 DAYS.
 PARALL= F  BALTYP=  DLB     KDIAG=    0  COREFL= F
 MXSEQ2=     300 MXSEQ3=     150  mem10=         0

     ------------
     $MEX OPTIONS
     ------------

     SCF1    =RHF          SCF2   =UHF     
     MULT1   =       1     MULT2  =       3
     MPLEVL  =       0     MPLEVL =       0
     DFTTYP  =PBE0         DFTTYP =PBE0    
     NMOS1   =       0     NMOS2  =       0     NRDMOS=       0
     NPRT    =       0
     NSTEP   =      40     STPSZ   = 1.00E-01
     ENERGY DIFFERENCE THRESHOLD,    TDE = 1.00E-05
     MAX. CHANGE IN DISPLACEMENT, TDXMAX = 2.00E-03
     RMS CHANGE IN DISPLACEMENT,  TDXRMS = 1.50E-03
     MAX. CHANGE IN GRADIENT,      TGMAX = 5.00E-04
     RMS CHANGE IN GRADIENT,       TGRMS = 3.00E-04

          ----------------
          PROPERTIES INPUT
          ----------------

     MOMENTS            FIELD           POTENTIAL          DENSITY
 IEMOM =       1   IEFLD =       0   IEPOT =       0   IEDEN =       0
 WHERE =COMASS     WHERE =NUCLEI     WHERE =NUCLEI     WHERE =NUCLEI  
 OUTPUT=BOTH       OUTPUT=BOTH       OUTPUT=BOTH       OUTPUT=BOTH    
 IEMINT=       0   IEFINT=       0                     IEDINT=       0
                                                       MORB  =       0
          EXTRAPOLATION IN EFFECT
          DIIS IN EFFECT
          DIIS or SOSCF will be reset if energy rises
 ORBITAL PRINTING OPTION: NPREO=     1    35     2     1

     -------------------------------
     INTEGRAL TRANSFORMATION OPTIONS
     -------------------------------
     NWORD  =            0
     CUTOFF = 1.0E-09     MPTRAN =       0
     DIRTRF =       F     AOINTS =DUP     

          ----------------------
          INTEGRAL INPUT OPTIONS
          ----------------------
 NOPK  =       1 NORDER=       0 SCHWRZ=       F

     ------------------------------------------
     THE POINT GROUP IS CS , NAXIS= 0, ORDER= 2
     ------------------------------------------

     DIMENSIONS OF THE SYMMETRY SUBSPACES ARE
 A'  =   26     A'' =    9

 ..... DONE SETTING UP THE RUN .....
 STEP CPU TIME =     0.02 TOTAL CPU TIME =        0.0 (    0.0 MIN)
 TOTAL WALL CLOCK TIME=        0.1 SECONDS, CPU UTILIZATION IS  37.50%

                  ------------------------------------
                  MINIMUM ENERGY CROSSING POINT SEARCH
                  ------------------------------------

     MEMORY NEEDED FOR MEX POINT SEARCH =      2738 WORDS

     ---------
     STATE # 1                    MULTIPLICITY OF STATE 1 IS: 1
     ---------

 COORDINATES OF SYMMETRY UNIQUE ATOMS (ANGS)
   ATOM   CHARGE       X              Y              Z
 ------------------------------------------------------------
 N           7.0  -1.1811755449   0.3396407839   0.0000000000
 O           8.0  -0.1382168417  -0.4840755244   0.0000000000
 H           1.0   1.1896457970   0.1696165890   0.0000000000

          ********************
          1 ELECTRON INTEGRALS
          ********************
 ...... END OF ONE-ELECTRON INTEGRALS ......
 STEP CPU TIME =     0.01 TOTAL CPU TIME =        0.0 (    0.0 MIN)
 TOTAL WALL CLOCK TIME=        0.1 SECONDS, CPU UTILIZATION IS  50.00%

          -------------
          GUESS OPTIONS
          -------------
          GUESS =HUCKEL            NORB  =       0          NORDER=       0
          MIX   =       F          PRTMO =       F          PUNMO =       F
          TOLZ  = 1.0E-08          TOLE  = 1.0E-05
          SYMDEN=       F          PURIFY=       F

 INITIAL GUESS ORBITALS GENERATED BY HUCKEL   ROUTINE.
 HUCKEL GUESS REQUIRES     11844 WORDS.

 SYMMETRIES FOR INITIAL GUESS ORBITALS FOLLOW.   BOTH SET(S).
     8 ORBITALS ARE OCCUPIED (    2 CORE ORBITALS).
     3=A'       4=A'       5=A'       6=A''      7=A'       8=A'       9=A'' 
    10=A'      11=A'      12=A'      13=A'      14=A'      15=A'      16=A'  
    17=A'      18=A'  
 ...... END OF INITIAL ORBITAL SELECTION ......
 STEP CPU TIME =     0.00 TOTAL CPU TIME =        0.0 (    0.0 MIN)
 TOTAL WALL CLOCK TIME=        0.1 SECONDS, CPU UTILIZATION IS  44.44%

                    ----------------------
                    AO INTEGRAL TECHNOLOGY
                    ----------------------
     S,P,L SHELL ROTATED AXIS INTEGRALS, REPROGRAMMED BY
        KAZUYA ISHIMURA (IMS) AND JOSE SIERRA (SYNSTAR).
     S,P,D,L SHELL ROTATED AXIS INTEGRALS PROGRAMMED BY
        KAZUYA ISHIMURA (INSTITUTE FOR MOLECULAR SCIENCE).
     S,P,D,F,G SHELL TO TOTAL QUARTET ANGULAR MOMENTUM SUM 5,
        ERIC PROGRAM BY GRAHAM FLETCHER (ELORET AND NASA ADVANCED
        SUPERCOMPUTING DIVISION, AMES RESEARCH CENTER).
     S,P,D,F,G,L SHELL GENERAL RYS QUADRATURE PROGRAMMED BY
        MICHEL DUPUIS (PACIFIC NORTHWEST NATIONAL LABORATORY).

          --------------------
          2 ELECTRON INTEGRALS
          --------------------

 THE -PK- OPTION IS OFF, THE INTEGRALS ARE NOT IN SUPERMATRIX FORM.
 STORING   15000 INTEGRALS/RECORD ON DISK, USING 12 BYTES/INTEGRAL.
 TWO ELECTRON INTEGRAL EVALUATION REQUIRES   90462 WORDS OF MEMORY.
 II,JST,KST,LST =  1  1  1  1 NREC =         1 INTLOC =    1
 II,JST,KST,LST =  2  1  1  1 NREC =         1 INTLOC =    2
 II,JST,KST,LST =  3  1  1  1 NREC =         1 INTLOC =   34
 II,JST,KST,LST =  4  1  1  1 NREC =         1 INTLOC =  214
 II,JST,KST,LST =  5  1  1  1 NREC =         1 INTLOC = 1189
 II,JST,KST,LST =  6  1  1  1 NREC =         1 INTLOC = 2340
 II,JST,KST,LST =  7  1  1  1 NREC =         1 INTLOC = 9225
 II,JST,KST,LST =  8  1  1  1 NREC =         2 INTLOC = 6259
 II,JST,KST,LST =  9  1  1  1 NREC =         4 INTLOC = 6973
 II,JST,KST,LST = 10  1  1  1 NREC =         5 INTLOC =  316
 II,JST,KST,LST = 11  1  1  1 NREC =         5 INTLOC = 9601
 TOTAL NUMBER OF NONZERO TWO-ELECTRON INTEGRALS =               99697
          7 INTEGRAL RECORDS WERE STORED ON DISK FILE  8.
  ...... END OF TWO-ELECTRON INTEGRALS .....
 STEP CPU TIME =     0.03 TOTAL CPU TIME =        0.1 (    0.0 MIN)
 TOTAL WALL CLOCK TIME=        0.2 SECONDS, CPU UTILIZATION IS  36.84%

          --------------------------
              R-PBE0 SCF CALCULATION
          --------------------------

     NUCLEAR ENERGY =        26.7164786045
     MAXIT =   30     NPUNCH=    2
     EXTRAP=T  DAMP=F  SHIFT=F  RSTRCT=F  DIIS=T  DEM=F  SOSCF=F
         DENSITY MATRIX CONVERGENCE THRESHOLD=  1.00E-05
     COARSE -> FINE DFT GRID SWITCH THRESHOLD=  3.00E-04 (SWITCH IN $DFT)
                   HF -> DFT SWITCH THRESHOLD=  5.00E-03 (SWOFF IN $DFT)
     MEMORY REQUIRED FOR RHF ITERS=    173898 WORDS.

 DFT CODE IS SWITCHING FROM THE FINE GRID NRAD= 96,  NLEB=  302
                      TO THE COARSE GRID NRAD0= 24, NLEB0=  110

     EXCHANGE FUNCTIONAL   =PBE&HFX   
     CORRELATION FUNCTIONAL=PBE       
     DFT THRESHOLD         =.460E-07
     GRID CHANGE THRESHOLD =.300E-03
 FOR AN EULER-MACLAURIN QUADRATURE USING  96 RADIAL POINTS:
 SMALLEST GAUSSIAN PRIMITIVE EXPONENT=        0.1612777588 OF TYPE -S-
 ON ATOM NUMBER   3 HAS RADIAL NORMALIZATION=  1.000000
  LARGEST GAUSSIAN PRIMITIVE EXPONENT=     5484.6716600000 OF TYPE -S-
 ON ATOM NUMBER   2 HAS RADIAL NORMALIZATION=  1.000000
 DFT IS SWITCHED OFF, PERFORMING PURE SCF UNTIL SWOFF THRESHOLD IS REACHED.

 ITER EX DEM     TOTAL ENERGY        E CHANGE  DENSITY CHANGE    DIIS ERROR
   1  0  0     -129.0073167196  -129.0073167196   0.544276881   0.759931518
          * * *   INITIATING DIIS PROCEDURE   * * *
   2  1  0     -129.3462746958    -0.3389579762   0.478667813   0.303101441
   3  2  0     -129.2437254841     0.1025492117   0.271117091   0.547968432
   4  3  0     -129.6231636838    -0.3794381997   0.028593073   0.021910205
   5  4  0     -129.6275406347    -0.0043769510   0.023668065   0.017474372
   6  5  0     -129.6290733968    -0.0015327621   0.017360025   0.008257955
   7  6  0     -129.6293919705    -0.0003185737   0.002805783   0.001328293
 CONVERGED TO SWOFF, SO DFT CALCULATION IS NOW SWITCHED ON.
          * * *   INITIATING DIIS PROCEDURE   * * *
   8  7  0     -130.1785177672    -0.5491257966   0.105076249   0.082705462
   9  8  0     -130.1987619324    -0.0202441652   0.069799241   0.044179930
  10  9  0     -130.1917887647     0.0069731677   0.061078624   0.086786575
  11 10  0     -130.2027407177    -0.0109519530   0.029564226   0.013714029
  12 11  0     -130.2028627692    -0.0001220515   0.010701034   0.008956711
  13 12  0     -130.2031364011    -0.0002736319   0.001314540   0.001326745
  14 13  0     -130.2031438163    -0.0000074152   0.000340423   0.000200442
  15 14  0     -130.2031440128    -0.0000001965   0.000033866   0.000029364
 DFT CODE IS SWITCHING BACK TO THE FINE GRID
          * * *   INITIATING DIIS PROCEDURE   * * *
  16 15  0     -130.2024693708     0.0006746420   0.000806233   0.000942037
  17 16  0     -130.2024718308    -0.0000024599   0.001393977   0.000428491
  18 17  0     -130.2024713182     0.0000005125   0.000942554   0.000468707
  19 18  0     -130.2024722901    -0.0000009719   0.000137277   0.000064967
  20 19  0     -130.2024723089    -0.0000000188   0.000018059   0.000017624
  21 20  0     -130.2024723091    -0.0000000002   0.000010055   0.000016480
  22 21  0     -130.2024723094    -0.0000000003   0.000002462   0.000002421

          -----------------
          DENSITY CONVERGED
          -----------------
     TIME TO FORM FOCK OPERATORS=       1.9 SECONDS (       0.1 SEC/ITER)
     TIME TO SOLVE SCF EQUATIONS=       0.0 SECONDS (       0.0 SEC/ITER)

 FINAL R-PBE0 ENERGY IS     -130.2024723094 AFTER  22 ITERATIONS
 DFT EXCHANGE + CORRELATION ENERGY =       -11.6537182057
 TOTAL ELECTRON NUMBER             =        16.0000003925

          ------------
          EIGENVECTORS
          ------------

                      1          2          3          4          5
                  -19.3965   -14.5237    -1.1538    -0.7254    -0.4969
                     A'         A'         A'         A'         A'  
    1  N  1  S    0.000052   0.993317  -0.101461  -0.172090  -0.062826
    2  N  1  S    0.000393   0.032310   0.224457   0.398708   0.137448
    3  N  1  X    0.000266   0.001324   0.122654   0.014845  -0.016314
    4  N  1  Y   -0.000236  -0.001005  -0.093393  -0.023014   0.297838
    5  N  1  Z    0.000000   0.000000  -0.000000  -0.000000   0.000000
    6  N  1  S   -0.001541   0.002715   0.107797   0.421771   0.241065
    7  N  1  X   -0.000633  -0.000059   0.008876   0.010310   0.011586
    8  N  1  Y    0.000558   0.000016  -0.007764  -0.006795   0.143620
    9  N  1  Z    0.000000   0.000000  -0.000000  -0.000000   0.000000
   10  N  1 XX    0.000028  -0.006803   0.014511  -0.004161   0.006642
   11  N  1 YY    0.000089  -0.006886   0.003960  -0.004915  -0.026832
   12  N  1 ZZ    0.000129  -0.007163  -0.005808  -0.000264   0.003898
   13  N  1 XY    0.000073  -0.000258  -0.021980  -0.004311   0.018208
   14  N  1 XZ    0.000000   0.000000  -0.000000  -0.000000   0.000000
   15  N  1 YZ    0.000000   0.000000  -0.000000  -0.000000   0.000000
   16  O  2  S    0.993259  -0.000018  -0.192497   0.121850   0.022434
   17  O  2  S    0.025219   0.000397   0.446679  -0.282571  -0.066531
   18  O  2  X   -0.000318  -0.000119  -0.093813  -0.260443   0.418272
   19  O  2  Y    0.000933   0.000083   0.099776   0.143341   0.260538
   20  O  2  Z    0.000000   0.000000  -0.000000  -0.000000   0.000000
   21  O  2  S    0.008897  -0.000788   0.387054  -0.397287  -0.064927
   22  O  2  X   -0.000298   0.000622  -0.036413  -0.121056   0.249352
   23  O  2  Y    0.000145  -0.000404   0.050858   0.053223   0.168056
   24  O  2  Z    0.000000   0.000000  -0.000000  -0.000000   0.000000
   25  O  2 XX   -0.006948  -0.000267   0.013322   0.008998  -0.010817
   26  O  2 YY   -0.006956  -0.000094   0.006941   0.010401   0.018082
   27  O  2 ZZ   -0.006989   0.000215  -0.004186  -0.001307  -0.005772
   28  O  2 XY   -0.000042   0.000462  -0.013696  -0.021716   0.010186
   29  O  2 XZ    0.000000   0.000000  -0.000000  -0.000000   0.000000
   30  O  2 YZ    0.000000   0.000000  -0.000000  -0.000000   0.000000
   31  H  3  S    0.000030  -0.000027   0.023500  -0.062219   0.145306
   32  H  3  S   -0.000410  -0.000091   0.002128  -0.040518   0.150626
   33  H  3  X   -0.000142   0.000038  -0.003205   0.006152  -0.011793
   34  H  3  Y   -0.000061   0.000029  -0.002080   0.004530  -0.003742
   35  H  3  Z    0.000000   0.000000  -0.000000  -0.000000   0.000000

                      6          7          8          9         10
                   -0.4615    -0.4596    -0.2419    -0.1265    -0.0804
                     A''        A'         A'         A''        A'  
    1  N  1  S    0.000000   0.087620  -0.000086  -0.000000  -0.001382
    2  N  1  S    0.000000  -0.183950  -0.004891  -0.000000  -0.001325
    3  N  1  X    0.000000   0.384368   0.295382  -0.000000   0.231159
    4  N  1  Y    0.000000  -0.113462   0.476001  -0.000000   0.154496
    5  N  1  Z    0.298521  -0.000000  -0.000000   0.586785   0.000000
    6  N  1  S    0.000000  -0.385729   0.012164  -0.000000   0.033373
    7  N  1  X    0.000000   0.169338   0.228863  -0.000000   0.220033
    8  N  1  Y    0.000000  -0.024322   0.349630  -0.000000   0.136934
    9  N  1  Z    0.176891  -0.000000  -0.000000   0.492731   0.000000
   10  N  1 XX    0.000000   0.033254   0.008475  -0.000000  -0.009016
   11  N  1 YY    0.000000   0.001221  -0.009822  -0.000000   0.007425
   12  N  1 ZZ    0.000000  -0.006694  -0.000221  -0.000000  -0.002476
   13  N  1 XY    0.000000  -0.016959   0.002796  -0.000000  -0.000090
   14  N  1 XZ    0.026175  -0.000000  -0.000000   0.001302   0.000000
   15  N  1 YZ   -0.019684  -0.000000  -0.000000  -0.000064   0.000000
   16  O  2  S    0.000000   0.022583  -0.035815  -0.000000   0.047507
   17  O  2  S    0.000000  -0.039362   0.081356  -0.000000  -0.100374
   18  O  2  X    0.000000  -0.150774  -0.035518  -0.000000  -0.316927
   19  O  2  Y    0.000000   0.461672  -0.173204  -0.000000  -0.292528
   20  O  2  Z    0.570363  -0.000000  -0.000000  -0.392147   0.000000
   21  O  2  S    0.000000  -0.093646   0.196804  -0.000000  -0.346326
   22  O  2  X    0.000000  -0.083770  -0.026573  -0.000000  -0.283673
   23  O  2  Y    0.000000   0.286741  -0.124641  -0.000000  -0.285875
   24  O  2  Z    0.367142  -0.000000  -0.000000  -0.326757   0.000000
   25  O  2 XX    0.000000  -0.005825  -0.033734  -0.000000   0.017766
   26  O  2 YY    0.000000   0.022803   0.009989  -0.000000   0.007789
   27  O  2 ZZ    0.000000  -0.003852   0.001285  -0.000000   0.007540
   28  O  2 XY    0.000000  -0.010291  -0.011458  -0.000000  -0.000307
   29  O  2 XZ   -0.017973  -0.000000  -0.000000  -0.016429   0.000000
   30  O  2 YZ    0.024915  -0.000000  -0.000000   0.005571   0.000000
   31  H  3  S    0.000000   0.008180  -0.228036  -0.000000   0.265060
   32  H  3  S    0.000000  -0.000242  -0.393906  -0.000000   0.749078
   33  H  3  X    0.000000  -0.001478   0.003028  -0.000000   0.012148
   34  H  3  Y    0.000000   0.003555   0.002138  -0.000000   0.005849
   35  H  3  Z    0.005295  -0.000000  -0.000000  -0.005722   0.000000

                     11         12         13         14         15
                    0.1972     0.6309     0.6667     0.6948     0.6953
                     A'         A'         A'         A''        A'  
    1  N  1  S    0.083144  -0.010535   0.010775   0.000000   0.004052
    2  N  1  S   -0.210700  -0.615422  -0.441799   0.000000  -0.673491
    3  N  1  X   -0.416357  -0.492457   0.198754   0.000000   0.647656
    4  N  1  Y    0.326392   0.233080  -0.681744   0.000000   0.366936
    5  N  1  Z    0.000000  -0.000000  -0.000000  -0.938106  -0.000000
    6  N  1  S   -0.899943   1.517552   0.221839   0.000000   0.932229
    7  N  1  X   -0.808639   1.127613  -0.509870   0.000000  -0.727625
    8  N  1  Y    0.652207  -0.689666   1.017809   0.000000  -0.443570
    9  N  1  Z    0.000000  -0.000000  -0.000000   1.056610  -0.000000
   10  N  1 XX    0.005942  -0.064826  -0.145862   0.000000  -0.136231
   11  N  1 YY    0.005960  -0.112450  -0.129336   0.000000  -0.166421
   12  N  1 ZZ   -0.017447  -0.113324  -0.094665   0.000000  -0.132713
   13  N  1 XY   -0.018222  -0.023275   0.061178   0.000000   0.025967
   14  N  1 XZ    0.000000  -0.000000  -0.000000  -0.034312  -0.000000
   15  N  1 YZ    0.000000  -0.000000  -0.000000   0.027645  -0.000000
   16  O  2  S   -0.084967   0.007687   0.000254   0.000000  -0.005323
   17  O  2  S    0.196271  -0.157212   0.002471   0.000000  -0.368795
   18  O  2  X   -0.406523   0.010978   0.211275   0.000000   0.023842
   19  O  2  Y    0.259116   0.275619  -0.053711   0.000000   0.112897
   20  O  2  Z    0.000000  -0.000000  -0.000000  -0.244711  -0.000000
   21  O  2  S    0.957015  -0.809409   0.349537   0.000000   0.652384
   22  O  2  X   -0.678359   0.255540  -0.556734   0.000000   0.102995
   23  O  2  Y    0.486300  -0.566946   0.101065   0.000000   0.036162
   24  O  2  Z    0.000000  -0.000000  -0.000000   0.049789  -0.000000
   25  O  2 XX   -0.016403  -0.203040   0.038626   0.000000  -0.136607
   26  O  2 YY   -0.005617  -0.079670   0.020916   0.000000  -0.083627
   27  O  2 ZZ   -0.002703   0.042747   0.004859   0.000000  -0.114059
   28  O  2 XY    0.015313   0.111446  -0.108063   0.000000   0.013689
   29  O  2 XZ    0.000000  -0.000000  -0.000000   0.047530  -0.000000
   30  O  2 YZ    0.000000  -0.000000  -0.000000  -0.034025  -0.000000
   31  H  3  S    0.046558  -0.536610  -0.533102   0.000000   0.190520
   32  H  3  S    0.159672   0.448103   0.653314   0.000000  -0.273546
   33  H  3  X    0.001824  -0.018320   0.001882   0.000000   0.005083
   34  H  3  Y    0.010722   0.023810   0.008510   0.000000  -0.011234
   35  H  3  Z    0.000000  -0.000000  -0.000000   0.014766  -0.000000

                     16         17         18         19         20
                    0.7550     0.8538     0.8908     1.0704     1.2653
                     A'         A'         A''        A'         A'  
    1  N  1  S    0.011010   0.020528   0.000000   0.002617   0.020370
    2  N  1  S    0.563714   0.191231   0.000000  -0.146141   0.646700
    3  N  1  X    0.308307   0.023365   0.000000   0.064205  -0.010111
    4  N  1  Y    0.329688  -0.282674   0.000000   0.022895  -0.002024
    5  N  1  Z   -0.000000   0.000000   0.220179   0.000000   0.000000
    6  N  1  S   -0.954328  -0.043079   0.000000   0.807891  -2.854778
    7  N  1  X   -0.536801   0.109147   0.000000   0.076365  -1.357361
    8  N  1  Y   -0.235016   0.378005   0.000000  -0.612142   0.948054
    9  N  1  Z   -0.000000   0.000000  -0.579171   0.000000   0.000000
   10  N  1 XX    0.181219   0.124450   0.000000   0.111822   0.135412
   11  N  1 YY    0.079967   0.090081   0.000000  -0.092939  -0.035540
   12  N  1 ZZ    0.089517  -0.002189   0.000000  -0.025471   0.107212
   13  N  1 XY   -0.019480  -0.132879   0.000000  -0.056079   0.065503
   14  N  1 XZ   -0.000000   0.000000   0.008287   0.000000   0.000000
   15  N  1 YZ   -0.000000   0.000000  -0.003489   0.000000   0.000000
   16  O  2  S    0.009178  -0.001126   0.000000   0.014057  -0.080721
   17  O  2  S    0.335887  -0.540035   0.000000   0.050105  -1.467724
   18  O  2  X    0.172315  -0.352194   0.000000  -0.752789   0.161698
   19  O  2  Y    0.278099   0.623701   0.000000  -0.411392  -0.303548
   20  O  2  Z   -0.000000   0.000000  -0.893471   0.000000   0.000000
   21  O  2  S   -0.489730   0.980949   0.000000  -0.571009   4.285935
   22  O  2  X   -0.323411   0.593271   0.000000   1.428412  -1.222741
   23  O  2  Y   -0.241146  -0.882836   0.000000   0.360172   1.216018
   24  O  2  Z   -0.000000   0.000000   1.184816   0.000000   0.000000
   25  O  2 XX    0.045467  -0.156977   0.000000  -0.064152  -0.576959
   26  O  2 YY    0.134580  -0.193955   0.000000   0.000974  -0.324854
   27  O  2 ZZ    0.102285  -0.203243   0.000000   0.086461  -0.287148
   28  O  2 XY   -0.123081  -0.034363   0.000000  -0.105003   0.041297
   29  O  2 XZ   -0.000000   0.000000   0.039194   0.000000   0.000000
   30  O  2 YZ   -0.000000   0.000000  -0.006067   0.000000   0.000000
   31  H  3  S   -0.753477   0.107308   0.000000  -0.516379  -0.264411
   32  H  3  S    1.086727  -0.341051   0.000000  -0.022941   0.048889
   33  H  3  X    0.058973   0.021989   0.000000   0.011553  -0.084938
   34  H  3  Y   -0.019131  -0.066355   0.000000  -0.030641   0.104476
   35  H  3  Z   -0.000000   0.000000   0.080875   0.000000   0.000000

                     21         22         23         24         25
                    1.4381     1.4586     1.5463     1.5488     1.8099
                     A''        A'         A''        A'         A'' 
    1  N  1  S   -0.000000   0.002987  -0.000000   0.004931  -0.000000
    2  N  1  S   -0.000000   0.103718  -0.000000  -0.014231  -0.000000
    3  N  1  X   -0.000000   0.089413  -0.000000  -0.012042  -0.000000
    4  N  1  Y   -0.000000   0.127311  -0.000000   0.002258  -0.000000
    5  N  1  Z    0.146580   0.000000  -0.025260  -0.000000   0.014590
    6  N  1  S   -0.000000  -0.433087  -0.000000  -0.129388  -0.000000
    7  N  1  X   -0.000000  -0.242288  -0.000000  -0.042709  -0.000000
    8  N  1  Y   -0.000000   0.098046  -0.000000   0.067514  -0.000000
    9  N  1  Z   -0.001879   0.000000   0.029987  -0.000000  -0.041409
   10  N  1 XX   -0.000000  -0.439678  -0.000000  -0.269197  -0.000000
   11  N  1 YY   -0.000000   0.447321  -0.000000  -0.256598  -0.000000
   12  N  1 ZZ   -0.000000   0.008570  -0.000000   0.553741  -0.000000
   13  N  1 XY   -0.000000  -0.118640  -0.000000  -0.299452  -0.000000
   14  N  1 XZ   -0.449075   0.000000   0.461011  -0.000000   0.429360
   15  N  1 YZ    0.415929   0.000000   0.421906  -0.000000   0.637275
   16  O  2  S   -0.000000   0.002783  -0.000000  -0.017786  -0.000000
   17  O  2  S   -0.000000  -0.249012  -0.000000  -0.036535  -0.000000
   18  O  2  X   -0.000000  -0.012637  -0.000000   0.063486  -0.000000
   19  O  2  Y   -0.000000  -0.053892  -0.000000   0.013908  -0.000000
   20  O  2  Z    0.096308   0.000000   0.027528  -0.000000  -0.051136
   21  O  2  S   -0.000000   0.545167  -0.000000   0.277186  -0.000000
   22  O  2  X   -0.000000  -0.093366  -0.000000  -0.083679  -0.000000
   23  O  2  Y   -0.000000   0.321332  -0.000000   0.080692  -0.000000
   24  O  2  Z    0.045120   0.000000  -0.094685  -0.000000   0.125159
   25  O  2 XX   -0.000000   0.461116  -0.000000  -0.223191  -0.000000
   26  O  2 YY   -0.000000  -0.539593  -0.000000  -0.433617  -0.000000
   27  O  2 ZZ   -0.000000  -0.000731  -0.000000   0.532408  -0.000000
   28  O  2 XY   -0.000000   0.147614  -0.000000  -0.303197  -0.000000
   29  O  2 XZ    0.540537   0.000000   0.351039  -0.000000  -0.294611
   30  O  2 YZ   -0.285500   0.000000   0.596551  -0.000000  -0.461529
   31  H  3  S   -0.000000  -0.350100  -0.000000   0.187978  -0.000000
   32  H  3  S   -0.000000   0.196206  -0.000000  -0.127359  -0.000000
   33  H  3  X   -0.000000  -0.178338  -0.000000   0.240468  -0.000000
   34  H  3  Y   -0.000000  -0.178860  -0.000000   0.014896  -0.000000
   35  H  3  Z    0.129369   0.000000   0.199156  -0.000000  -0.386261

                     26         27         28         29         30
                    1.8204     2.0555     2.1506     2.1589     2.4092
                     A'         A'         A''        A'         A'' 
    1  N  1  S    0.000647  -0.013441  -0.000000   0.029280   0.000000
    2  N  1  S    0.007902  -0.048741  -0.000000   0.393642   0.000000
    3  N  1  X    0.028542   0.023775  -0.000000   0.271816   0.000000
    4  N  1  Y   -0.010254   0.033234  -0.000000  -0.206363   0.000000
    5  N  1  Z   -0.000000   0.000000  -0.017924  -0.000000   0.034047
    6  N  1  S    0.130628   0.515143  -0.000000  -0.528001   0.000000
    7  N  1  X    0.054097   0.127084  -0.000000  -0.394161   0.000000
    8  N  1  Y   -0.040262  -0.322177  -0.000000   0.284984   0.000000
    9  N  1  Z   -0.000000   0.000000   0.075870  -0.000000   0.348781
   10  N  1 XX   -0.206097  -0.330865  -0.000000  -0.271132   0.000000
   11  N  1 YY   -0.482997   0.350703  -0.000000   0.092291   0.000000
   12  N  1 ZZ    0.690285  -0.124921  -0.000000   0.468274   0.000000
   13  N  1 XY   -0.344413  -0.170951  -0.000000   0.710374   0.000000
   14  N  1 XZ   -0.000000   0.000000   0.173095  -0.000000   0.720976
   15  N  1 YZ   -0.000000   0.000000   0.107093  -0.000000  -0.571146
   16  O  2  S    0.021762  -0.005089  -0.000000  -0.000958   0.000000
   17  O  2  S    0.138482   0.103672  -0.000000   0.371540   0.000000
   18  O  2  X   -0.036238  -0.084308  -0.000000  -0.347467   0.000000
   19  O  2  Y    0.038411   0.056361  -0.000000   0.282528   0.000000
   20  O  2  Z   -0.000000   0.000000   0.104922  -0.000000   0.058279
   21  O  2  S   -0.468194  -0.362321  -0.000000  -0.119139   0.000000
   22  O  2  X    0.004550   0.526150  -0.000000   0.182366   0.000000
   23  O  2  Y   -0.172842  -0.140627  -0.000000  -0.176360   0.000000
   24  O  2  Z   -0.000000   0.000000  -0.230025  -0.000000  -0.418864
   25  O  2 XX    0.211873  -0.147089  -0.000000  -0.172980   0.000000
   26  O  2 YY    0.402833   0.093982  -0.000000   0.056555   0.000000
   27  O  2 ZZ   -0.412308  -0.027071  -0.000000   0.412020   0.000000
   28  O  2 XY    0.261122  -0.206279  -0.000000   0.360051   0.000000
   29  O  2 XZ   -0.000000   0.000000  -0.346096  -0.000000   0.718643
   30  O  2 YZ   -0.000000   0.000000  -0.339612  -0.000000  -0.569347
   31  H  3  S   -0.147974   0.009544  -0.000000  -0.054698   0.000000
   32  H  3  S    0.203126  -0.118509  -0.000000   0.086613   0.000000
   33  H  3  X   -0.309131  -0.260718  -0.000000  -0.108725   0.000000
   34  H  3  Y    0.012169   0.861981  -0.000000   0.089190   0.000000
   35  H  3  Z   -0.000000   0.000000   0.899229  -0.000000  -0.001181

                     31         32         33         34         35
                    2.4467     2.7339     2.9070     3.3062     3.5839
                     A'         A'         A'         A'         A'  
    1  N  1  S   -0.013020   0.091855  -0.024169  -0.343774   0.206983
    2  N  1  S   -0.000331  -0.154198   0.145943   1.310837  -0.549200
    3  N  1  X    0.038173  -0.473624   0.233179  -0.139331   0.123840
    4  N  1  Y    0.020204   0.388152  -0.155423   0.101549  -0.103523
    5  N  1  Z    0.000000  -0.000000  -0.000000  -0.000000   0.000000
    6  N  1  S    0.315904  -2.373863   0.538689   0.583004  -2.069013
    7  N  1  X    0.351901  -1.198373   0.244329  -0.323731  -0.614148
    8  N  1  Y    0.155265   0.949233  -0.247838   0.241568   0.451772
    9  N  1  Z    0.000000  -0.000000  -0.000000  -0.000000   0.000000
   10  N  1 XX    0.728548  -0.305522   0.207487  -1.272780   0.745791
   11  N  1 YY   -0.724761  -0.076895  -0.104105  -1.165250   0.769645
   12  N  1 ZZ   -0.100544   0.619969  -0.102182  -1.062847   0.698599
   13  N  1 XY    0.183424   0.876169  -0.288911   0.162114  -0.069610
   14  N  1 XZ    0.000000  -0.000000  -0.000000  -0.000000   0.000000
   15  N  1 YZ    0.000000  -0.000000  -0.000000  -0.000000   0.000000
   16  O  2  S    0.012412  -0.071469  -0.043575  -0.225362  -0.430620
   17  O  2  S    0.228562  -0.843708  -0.131080   0.097923   0.066310
   18  O  2  X    0.058254  -0.134235  -0.120947  -0.101025   0.136840
   19  O  2  Y    0.111993   0.064322  -0.104686   0.043899  -0.172117
   20  O  2  Z    0.000000  -0.000000  -0.000000  -0.000000   0.000000
   21  O  2  S   -0.616310   3.229217   0.265830   1.935422   4.063968
   22  O  2  X   -0.246167  -1.256564   0.973617  -0.400883  -0.444682
   23  O  2  Y   -0.580782   1.161060  -0.042746   0.427376   0.537500
   24  O  2  Z    0.000000  -0.000000  -0.000000  -0.000000   0.000000
   25  O  2 XX    0.605846   0.635994   0.137813  -0.480726  -1.452866
   26  O  2 YY   -0.725564  -0.042796  -0.387713  -0.593373  -1.451768
   27  O  2 ZZ    0.217527  -0.756572  -0.315039  -0.859115  -1.491430
   28  O  2 XY    0.026314  -0.800405   0.787752  -0.324627   0.026276
   29  O  2 XZ    0.000000  -0.000000  -0.000000  -0.000000   0.000000
   30  O  2 YZ    0.000000  -0.000000  -0.000000  -0.000000   0.000000
   31  H  3  S    0.084916  -0.088294  -0.187821   0.010334  -0.077340
   32  H  3  S    0.135849  -0.050294  -0.453750  -0.132696  -0.160017
   33  H  3  X   -0.395337   0.330435   0.866918   0.031706   0.003568
   34  H  3  Y    0.241872   0.112709   0.463117  -0.072692  -0.039369
   35  H  3  Z    0.000000  -0.000000  -0.000000  -0.000000   0.000000
 ...... END OF RHF CALCULATION ......
 STEP CPU TIME =     1.91 TOTAL CPU TIME =        2.0 (    0.0 MIN)
 TOTAL WALL CLOCK TIME=        3.2 SECONDS, CPU UTILIZATION IS  61.11%

     ---------------------------------------------------------------------
     PROPERTIES FOR THE PBE0     DFT FUNCTIONAL (RHF  TYPE) DENSITY MATRIX
     ---------------------------------------------------------------------

          -----------------
          ENERGY COMPONENTS
          -----------------

         WAVEFUNCTION NORMALIZATION =       1.0000000000

                ONE ELECTRON ENERGY =    -230.5934019677
                TWO ELECTRON ENERGY =      73.6744510538
           NUCLEAR REPULSION ENERGY =      26.7164786045
                                      ------------------
                       TOTAL ENERGY =    -130.2024723094

 ELECTRON-ELECTRON POTENTIAL ENERGY =      73.6744510538
  NUCLEUS-ELECTRON POTENTIAL ENERGY =    -359.2184130520
   NUCLEUS-NUCLEUS POTENTIAL ENERGY =      26.7164786045
                                      ------------------
             TOTAL POTENTIAL ENERGY =    -258.8274833938
               TOTAL KINETIC ENERGY =     128.6250110843
                 VIRIAL RATIO (V/T) =       2.0122640318

          ---------------------------------------
          MULLIKEN AND LOWDIN POPULATION ANALYSES
          ---------------------------------------

     ATOMIC MULLIKEN POPULATION IN EACH MOLECULAR ORBITAL

                      1          2          3          4          5

                  2.000000   2.000000   2.000000   2.000000   2.000000

    1            -0.000270   2.000278   0.488439   0.992436   0.613579
    2             2.000299  -0.000276   1.504511   0.958678   1.138852
    3            -0.000029  -0.000001   0.007050   0.048886   0.247569

                      6          7          8

                  2.000000   2.000000   2.000000

    1             0.504731   1.037991   1.307312
    2             1.494718   0.961394   0.138037
    3             0.000552   0.000615   0.554650

               ----- POPULATIONS IN EACH AO -----
                             MULLIKEN      LOWDIN
              1  N  1  S      1.99359     1.97975
              2  N  1  S      0.93013     0.63696
              3  N  1  X      0.75787     0.71931
              4  N  1  Y      0.96043     0.92495
              5  N  1  Z      0.28538     0.25882
              6  N  1  S      0.98830     0.58388
              7  N  1  X      0.30872     0.45352
              8  N  1  Y      0.48998     0.57540
              9  N  1  Z      0.20681     0.25184
             10  N  1 XX      0.00269     0.20260
             11  N  1 YY     -0.00731     0.19812
             12  N  1 ZZ      0.00009     0.20909
             13  N  1 XY      0.01528     0.02953
             14  N  1 XZ      0.00791     0.01252
             15  N  1 YZ      0.00463     0.00746
             16  O  2  S      1.99354     1.97722
             17  O  2  S      0.98245     0.78109
             18  O  2  X      0.80658     0.74192
             19  O  2  Y      0.95902     0.90682
             20  O  2  Z      0.90484     0.85749
             21  O  2  S      0.93918     0.49264
             22  O  2  X      0.44369     0.52275
             23  O  2  Y      0.53823     0.59995
             24  O  2  Z      0.58264     0.60310
             25  O  2 XX      0.02363     0.19368
             26  O  2 YY      0.00527     0.19111
             27  O  2 ZZ     -0.00332     0.17879
             28  O  2 XY      0.01321     0.02119
             29  O  2 XZ      0.00319     0.00366
             30  O  2 YZ      0.00405     0.00395
             31  H  3  S      0.35574     0.37718
             32  H  3  S      0.49739     0.48921
             33  H  3  X      0.00433     0.01019
             34  H  3  Y      0.00128     0.00311
             35  H  3  Z      0.00055     0.00116

          ----- MULLIKEN ATOMIC OVERLAP POPULATIONS -----
          (OFF-DIAGONAL ELEMENTS NEED TO BE MULTIPLIED BY 2)

             1           2           3

    1    6.7842975
    2    0.2184925   7.8758206
    3   -0.0582954   0.1018999   0.8156881

          TOTAL MULLIKEN AND LOWDIN ATOMIC POPULATIONS
       ATOM         MULL.POP.    CHARGE          LOW.POP.     CHARGE
    1 N             6.944495    0.055505         7.043752   -0.043752
    2 O             8.196213   -0.196213         8.075388   -0.075388
    3 H             0.859293    0.140707         0.880860    0.119140

          -------------------------------
          BOND ORDER AND VALENCE ANALYSIS     BOND ORDER THRESHOLD=0.050
          -------------------------------

                   BOND                       BOND                       BOND
  ATOM PAIR DIST  ORDER      ATOM PAIR DIST  ORDER      ATOM PAIR DIST  ORDER
    1   2  1.329  1.728        1   3  2.377  0.327        2   3  1.480  0.637

                       TOTAL       BONDED        FREE
      ATOM            VALENCE     VALENCE     VALENCE
    1 N                 2.056       2.056       0.000
    2 O                 2.366       2.366      -0.000
    3 H                 0.964       0.964      -0.000

          ---------------------
          ELECTROSTATIC MOMENTS
          ---------------------

 POINT   1           X           Y           Z (BOHR)    CHARGE
                -1.069744   -0.171615    0.000000       -0.00 (A.U.)
         DX          DY          DZ         /D/  (DEBYE)
     1.115095    0.191438    0.000000    1.131409
 ...... END OF PROPERTY EVALUATION ......
 STEP CPU TIME =     0.00 TOTAL CPU TIME =        2.0 (    0.0 MIN)
 TOTAL WALL CLOCK TIME=        3.2 SECONDS, CPU UTILIZATION IS  61.11%

 BEGINNING ONE ELECTRON GRADIENT...
 ..... END OF 1-ELECTRON GRADIENT ......
 STEP CPU TIME =     0.00 TOTAL CPU TIME =        2.0 (    0.0 MIN)
 TOTAL WALL CLOCK TIME=        3.2 SECONDS, CPU UTILIZATION IS  61.11%

          ----------------------
          GRADIENT OF THE ENERGY
          ----------------------
 MEMORY FOR GRID POINT CONTRIBUTIONS TO THE DFT GRADIENT=    139971 WORDS.
 STEP CPU TIME =     0.31 TOTAL CPU TIME =        2.3 (    0.0 MIN)
 TOTAL WALL CLOCK TIME=        3.7 SECONDS, CPU UTILIZATION IS  62.57%

 THE MINIMUM MEMORY REQUIRED FOR THIS RUN IS      74534 WORDS.
 USING     989084 WORDS FOR 2E- DERIVATIVE INTEGRAL CONTRIBUTIONS.
 THE COARSE/FINE SCHWARZ SCREENINGS SKIPPED            0/           0 BLOCKS.
 THE NUMBER OF GRADIENT INTEGRAL BLOCKS COMPUTED WAS      2080
 ...... END OF 2-ELECTRON GRADIENT ......
 STEP CPU TIME =     0.04 TOTAL CPU TIME =        2.3 (    0.0 MIN)
 TOTAL WALL CLOCK TIME=        3.7 SECONDS, CPU UTILIZATION IS  63.14%

                  ---------------------------------------
                  GRADIENT OF  FIRST STATE (HARTREE/BOHR)
                  ---------------------------------------
        ATOM     ZNUC       DE/DX         DE/DY         DE/DZ
 --------------------------------------------------------------
  1  N            7.0    -0.1254511     0.0996022     0.0000000
  2  O            8.0     0.0750415    -0.1248287     0.0000000
  3  H            1.0     0.0504096     0.0252265     0.0000000

     ---------
     STATE # 2                    MULTIPLICITY OF STATE 2 IS: 3
     ---------


          -------------
          GUESS OPTIONS
          -------------
          GUESS =HUCKEL            NORB  =       0          NORDER=       0
          MIX   =       F          PRTMO =       F          PUNMO =       F
          TOLZ  = 1.0E-08          TOLE  = 1.0E-05
          SYMDEN=       F          PURIFY=       F

 INITIAL GUESS ORBITALS GENERATED BY HUCKEL   ROUTINE.
 HUCKEL GUESS REQUIRES     11844 WORDS.

 SYMMETRIES FOR INITIAL GUESS ORBITALS FOLLOW.  ALPHA SET(S).
     9 ORBITALS ARE OCCUPIED (    2 CORE ORBITALS).
     3=A'       4=A'       5=A'       6=A''      7=A'       8=A'       9=A'' 
    10=A'      11=A'      12=A'      13=A'      14=A'      15=A'      16=A'  
    17=A'      18=A'      19=A'  

 SYMMETRIES FOR INITIAL GUESS ORBITALS FOLLOW.   BETA SET(S).
     7 ORBITALS ARE OCCUPIED (    2 CORE ORBITALS).
     3=A'       4=A'       5=A'       6=A''      7=A'       8=A'       9=A'' 
    10=A'      11=A'      12=A'      13=A'      14=A'      15=A'      16=A'  
    17=A'  
 ...... END OF INITIAL ORBITAL SELECTION ......
 STEP CPU TIME =     0.00 TOTAL CPU TIME =        2.3 (    0.0 MIN)
 TOTAL WALL CLOCK TIME=        3.7 SECONDS, CPU UTILIZATION IS  63.14%

          ---------------------------
               U-PBE0 SCF CALCULATION
          ---------------------------

     NUCLEAR ENERGY =        26.7164786045
     MAXIT = 30     NPUNCH=  2     MULT=  3
     EXTRAP=T  DAMP=F  SHIFT=F  RSTRCT=F  DIIS=T  SOSCF=F
         DENSITY MATRIX CONVERGENCE THRESHOLD=  1.00E-05
     COARSE -> FINE DFT GRID SWITCH THRESHOLD=  3.00E-04 (SWITCH IN $DFT)
                   HF -> DFT SWITCH THRESHOLD=  5.00E-03 (SWOFF IN $DFT)
     MEMORY REQUIRED FOR UHF/ROHF ITERS=    178273 WORDS.

 DFT CODE IS SWITCHING FROM THE FINE GRID NRAD= 96,  NLEB=  302
                      TO THE COARSE GRID NRAD0= 24, NLEB0=  110
 DFT IS SWITCHED OFF, PERFORMING PURE SCF UNTIL SWOFF THRESHOLD IS REACHED.

 ITER EX      TOTAL ENERGY        E CHANGE  DENSITY CHANGE    DIIS ERROR
   1  0     -129.0967275953  -129.0967275953   0.520260669   0.762277153
          * * *   INITIATING DIIS PROCEDURE   * * *
   2  1     -129.5104049062    -0.4136773109   0.338434745   0.234867950
   3  2     -129.5554748020    -0.0450698958   0.154448996   0.260848913
   4  3     -129.6896119324    -0.1341371304   0.046753472   0.036365132
   5  4     -129.6989160969    -0.0093041645   0.045887884   0.024042390
   6  5     -129.7047337886    -0.0058176916   0.054806309   0.016263454
   7  6     -129.7097031991    -0.0049694106   0.063628866   0.012056461
   8  7     -129.7135151326    -0.0038119334   0.048702788   0.007285485
   9  8     -129.7146633530    -0.0011482204   0.004613306   0.002246918
 CONVERGED TO SWOFF, SO DFT CALCULATION IS NOW SWITCHED ON.
          * * *   INITIATING DIIS PROCEDURE   * * *
  10  9     -130.1974898112    -0.4828264583   0.097548490   0.082512511
  11 10     -130.2209630498    -0.0234732386   0.051963444   0.022130359
  12 11     -130.2245935111    -0.0036304613   0.027108002   0.026847673
  13 12     -130.2265749406    -0.0019814295   0.014568293   0.010994557
  14 13     -130.2271361999    -0.0005612594   0.014567907   0.007422144
  15 14     -130.2275389080    -0.0004027081   0.003844132   0.001254827
  16 15     -130.2275558653    -0.0000169573   0.001517873   0.000517517
  17 16     -130.2275584658    -0.0000026006   0.000384291   0.000223633
  18 17     -130.2275588076    -0.0000003417   0.000211414   0.000052571
 DFT CODE IS SWITCHING BACK TO THE FINE GRID
          * * *   INITIATING DIIS PROCEDURE   * * *
  19 18     -130.2270842090     0.0004745986   0.000902528   0.000934409
  20 19     -130.2270868351    -0.0000026262   0.000745928   0.000392793
  21 20     -130.2270868603    -0.0000000251   0.000366181   0.000383475
  22 21     -130.2270872515    -0.0000003912   0.000130561   0.000152352
  23 22     -130.2270873083    -0.0000000568   0.000089212   0.000043176
  24 23     -130.2270873208    -0.0000000125   0.000052432   0.000017877
  25 24     -130.2270873240    -0.0000000032   0.000014204   0.000003991
  26 25     -130.2270873243    -0.0000000002   0.000003962   0.000001351
  27 26     -130.2270873243    -0.0000000000   0.000001395   0.000000466

          -----------------
          DENSITY CONVERGED
          -----------------
     TIME TO FORM FOCK OPERATORS=       3.4 SECONDS (       0.1 SEC/ITER)
     TIME TO SOLVE SCF EQUATIONS=       0.0 SECONDS (       0.0 SEC/ITER)

 FINAL U-PBE0 ENERGY IS     -130.2270873243 AFTER  27 ITERATIONS
 DFT EXCHANGE + CORRELATION ENERGY =       -11.7119904771
 TOTAL ELECTRON NUMBER             =        16.0000003303

          --------------------
          SPIN SZ   =    1.000
          S-SQUARED =    2.064
          --------------------

  ----- ALPHA SET ----- 

          ------------
          EIGENVECTORS
          ------------

                      1          2          3          4          5
                  -19.3415   -14.5142    -1.1373    -0.7394    -0.5004
                     A'         A'         A'         A'         A'  
    1  N  1  S    0.000050   0.992865  -0.114925  -0.176140  -0.061558
    2  N  1  S    0.000397   0.034263   0.260682   0.414751   0.134010
    3  N  1  X    0.000272   0.001357   0.125137  -0.009377  -0.021344
    4  N  1  Y   -0.000241  -0.001015  -0.097193  -0.001721   0.362021
    5  N  1  Z    0.000000   0.000000  -0.000000  -0.000000  -0.000000
    6  N  1  S   -0.001566   0.003204   0.140174   0.448844   0.250742
    7  N  1  X   -0.000648  -0.000172   0.013122   0.009732   0.016315
    8  N  1  Y    0.000552   0.000089  -0.011050  -0.004186   0.174301
    9  N  1  Z    0.000000   0.000000  -0.000000  -0.000000  -0.000000
   10  N  1 XX    0.000036  -0.007741   0.012750  -0.009988   0.002288
   11  N  1 YY    0.000107  -0.007627   0.006990  -0.001771  -0.025928
   12  N  1 ZZ    0.000113  -0.007624  -0.007022   0.000782   0.005163
   13  N  1 XY    0.000072  -0.000024  -0.016616   0.008708   0.025410
   14  N  1 XZ    0.000000   0.000000  -0.000000  -0.000000  -0.000000
   15  N  1 YZ    0.000000   0.000000  -0.000000  -0.000000  -0.000000
   16  O  2  S    0.993222  -0.000008  -0.183621   0.131121   0.020192
   17  O  2  S    0.025340   0.000427   0.422039  -0.297929  -0.060145
   18  O  2  X   -0.000364  -0.000183  -0.096024  -0.208304   0.379718
   19  O  2  Y    0.000819   0.000135   0.095226   0.118242   0.147933
   20  O  2  Z    0.000000   0.000000  -0.000000  -0.000000  -0.000000
   21  O  2  S    0.008975  -0.000763   0.360224  -0.425604  -0.063021
   22  O  2  X   -0.000268   0.000552  -0.033369  -0.093092   0.225574
   23  O  2  Y    0.000187  -0.000326   0.047114   0.036193   0.101326
   24  O  2  Z    0.000000   0.000000  -0.000000  -0.000000  -0.000000
   25  O  2 XX   -0.007063  -0.000199   0.013824   0.009811  -0.008610
   26  O  2 YY   -0.007048  -0.000030   0.007928   0.010602   0.015540
   27  O  2 ZZ   -0.006930   0.000196  -0.004751  -0.001107  -0.003296
   28  O  2 XY   -0.000086   0.000395  -0.014127  -0.018392   0.011110
   29  O  2 XZ    0.000000   0.000000  -0.000000  -0.000000  -0.000000
   30  O  2 YZ    0.000000   0.000000  -0.000000  -0.000000  -0.000000
   31  H  3  S    0.000032  -0.000020   0.027875  -0.075885   0.196475
   32  H  3  S   -0.000420  -0.000099   0.005231  -0.050201   0.209124
   33  H  3  X   -0.000151   0.000043  -0.003662   0.006118  -0.010556
   34  H  3  Y   -0.000066   0.000023  -0.001962   0.004542  -0.003164
   35  H  3  Z    0.000000   0.000000  -0.000000  -0.000000  -0.000000

                      6          7          8          9         10
                   -0.4713    -0.4521    -0.2990    -0.2546    -0.0959
                     A''        A'         A'         A''        A'  
    1  N  1  S    0.000000   0.067919   0.001184  -0.000000   0.000502
    2  N  1  S    0.000000  -0.140673   0.006328  -0.000000  -0.003185
    3  N  1  X    0.000000   0.427831  -0.237067  -0.000000   0.251150
    4  N  1  Y    0.000000  -0.033644  -0.461402  -0.000000   0.187514
    5  N  1  Z    0.406938   0.000000   0.000000   0.574623   0.000000
    6  N  1  S    0.000000  -0.325015  -0.028938  -0.000000   0.015959
    7  N  1  X    0.000000   0.197376  -0.177713  -0.000000   0.222063
    8  N  1  Y    0.000000   0.023319  -0.306104  -0.000000   0.158685
    9  N  1  Z    0.225016   0.000000   0.000000   0.411964   0.000000
   10  N  1 XX    0.000000   0.037659  -0.007380  -0.000000  -0.011180
   11  N  1 YY    0.000000  -0.006314   0.011012  -0.000000   0.012107
   12  N  1 ZZ    0.000000  -0.007177   0.000441  -0.000000  -0.002314
   13  N  1 XY    0.000000  -0.019554  -0.003722  -0.000000  -0.001649
   14  N  1 XZ    0.024048   0.000000   0.000000  -0.002261   0.000000
   15  N  1 YZ   -0.017788   0.000000   0.000000   0.003146   0.000000
   16  O  2  S    0.000000   0.029435   0.047963  -0.000000   0.040970
   17  O  2  S    0.000000  -0.059821  -0.105814  -0.000000  -0.075046
   18  O  2  X    0.000000  -0.138603  -0.011658  -0.000000  -0.361360
   19  O  2  Y    0.000000   0.449338   0.167693  -0.000000  -0.354405
   20  O  2  Z    0.509577   0.000000   0.000000  -0.472814   0.000000
   21  O  2  S    0.000000  -0.116073  -0.252230  -0.000000  -0.313954
   22  O  2  X    0.000000  -0.079903  -0.014228  -0.000000  -0.339902
   23  O  2  Y    0.000000   0.286345   0.119122  -0.000000  -0.345666
   24  O  2  Z    0.313870   0.000000   0.000000  -0.368187   0.000000
   25  O  2 XX    0.000000  -0.007292   0.032028  -0.000000   0.017068
   26  O  2 YY    0.000000   0.023936  -0.003699  -0.000000   0.005861
   27  O  2 ZZ    0.000000  -0.005592  -0.000869  -0.000000   0.009787
   28  O  2 XY    0.000000  -0.010351   0.009117  -0.000000  -0.003302
   29  O  2 XZ   -0.014204   0.000000   0.000000  -0.011752   0.000000
   30  O  2 YZ    0.020201   0.000000   0.000000   0.000854   0.000000
   31  H  3  S    0.000000   0.018224   0.297299  -0.000000   0.233911
   32  H  3  S    0.000000   0.014099   0.461585  -0.000000   0.647736
   33  H  3  X    0.000000  -0.001862   0.000377  -0.000000   0.019389
   34  H  3  Y    0.000000   0.004759   0.000898  -0.000000   0.008732
   35  H  3  Z    0.005919   0.000000   0.000000  -0.007222   0.000000

                     11         12         13         14         15
                    0.2009     0.6076     0.6502     0.6744     0.6817
                     A'         A'         A'         A''        A'  
    1  N  1  S    0.079330  -0.003307   0.012703   0.000000  -0.006909
    2  N  1  S   -0.212409  -0.563299   0.164237   0.000000   0.727431
    3  N  1  X   -0.409925  -0.394415   0.203176   0.000000  -0.712109
    4  N  1  Y    0.319336  -0.137113  -0.791255   0.000000  -0.128022
    5  N  1  Z    0.000000   0.000000  -0.000000  -0.917799  -0.000000
    6  N  1  S   -0.890683   1.155077  -0.867039   0.000000  -0.875865
    7  N  1  X   -0.817704   0.781862  -0.736095   0.000000   0.916664
    8  N  1  Y    0.650594  -0.088223   1.336507   0.000000   0.105667
    9  N  1  Z    0.000000   0.000000  -0.000000   1.108916  -0.000000
   10  N  1 XX    0.004819  -0.077186  -0.044580   0.000000   0.158190
   11  N  1 YY    0.002265  -0.118676   0.003932   0.000000   0.194682
   12  N  1 ZZ   -0.016432  -0.109027   0.021558   0.000000   0.145031
   13  N  1 XY   -0.024632   0.002727   0.047356   0.000000  -0.042722
   14  N  1 XZ    0.000000   0.000000  -0.000000  -0.032675  -0.000000
   15  N  1 YZ    0.000000   0.000000  -0.000000   0.026836  -0.000000
   16  O  2  S   -0.085529   0.010631  -0.002512   0.000000   0.001727
   17  O  2  S    0.191510  -0.020673   0.157539   0.000000   0.278018
   18  O  2  X   -0.407007   0.106312   0.143796   0.000000  -0.115189
   19  O  2  Y    0.263368   0.196493  -0.207265   0.000000  -0.080597
   20  O  2  Z    0.000000   0.000000  -0.000000  -0.204259  -0.000000
   21  O  2  S    0.968323  -0.745774   0.559222   0.000000  -0.606118
   22  O  2  X   -0.697357  -0.063907  -0.584269   0.000000   0.106756
   23  O  2  Y    0.498935  -0.434039   0.331606   0.000000  -0.079610
   24  O  2  Z    0.000000   0.000000  -0.000000  -0.021964  -0.000000
   25  O  2 XX   -0.014573  -0.114654   0.164251   0.000000   0.093409
   26  O  2 YY   -0.005155  -0.022361   0.070435   0.000000   0.046819
   27  O  2 ZZ   -0.002818   0.070382   0.008518   0.000000   0.086471
   28  O  2 XY    0.011212   0.030575  -0.142636   0.000000   0.038538
   29  O  2 XZ    0.000000   0.000000  -0.000000   0.041634  -0.000000
   30  O  2 YZ    0.000000   0.000000  -0.000000  -0.029929  -0.000000
   31  H  3  S    0.046132  -0.849466  -0.192233   0.000000   0.078830
   32  H  3  S    0.148152   0.903496   0.344626   0.000000  -0.076606
   33  H  3  X    0.002731  -0.012726   0.009557   0.000000  -0.010873
   34  H  3  Y    0.013238   0.024191  -0.002598   0.000000   0.009890
   35  H  3  Z    0.000000   0.000000  -0.000000   0.012046  -0.000000

                     16         17         18         19         20
                    0.7262     0.8656     0.9030     1.0821     1.2692
                     A'         A'         A''        A'         A'  
    1  N  1  S   -0.010371   0.020508   0.000000   0.002420   0.018124
    2  N  1  S   -0.710550   0.199053   0.000000  -0.123651   0.634569
    3  N  1  X   -0.291768   0.049661   0.000000   0.057366  -0.008692
    4  N  1  Y   -0.330170  -0.228655   0.000000   0.013657   0.000572
    5  N  1  Z   -0.000000   0.000000   0.164587   0.000000  -0.000000
    6  N  1  S    1.248829  -0.049526   0.000000   0.731540  -2.818636
    7  N  1  X    0.615164   0.080832   0.000000   0.059036  -1.346750
    8  N  1  Y    0.211768   0.316366   0.000000  -0.571096   0.952056
    9  N  1  Z   -0.000000   0.000000  -0.523564   0.000000  -0.000000
   10  N  1 XX   -0.197049   0.131199   0.000000   0.117388   0.122938
   11  N  1 YY   -0.106010   0.088394   0.000000  -0.094801  -0.037041
   12  N  1 ZZ   -0.120662  -0.001010   0.000000  -0.018830   0.095021
   13  N  1 XY    0.012237  -0.141419   0.000000  -0.057416   0.073115
   14  N  1 XZ   -0.000000   0.000000   0.008751   0.000000  -0.000000
   15  N  1 YZ   -0.000000   0.000000  -0.003869   0.000000  -0.000000
   16  O  2  S   -0.007237  -0.000372   0.000000   0.013070  -0.080590
   17  O  2  S   -0.380587  -0.535972   0.000000   0.013189  -1.473464
   18  O  2  X   -0.152644  -0.341602   0.000000  -0.773493   0.169284
   19  O  2  Y   -0.178474   0.656177   0.000000  -0.444096  -0.298559
   20  O  2  Z   -0.000000   0.000000  -0.899998   0.000000  -0.000000
   21  O  2  S    0.443375   0.948352   0.000000  -0.462541   4.289924
   22  O  2  X    0.329782   0.577961   0.000000   1.399885  -1.240125
   23  O  2  Y    0.067918  -0.902448   0.000000   0.395776   1.196736
   24  O  2  Z   -0.000000   0.000000   1.183878   0.000000  -0.000000
   25  O  2 XX   -0.081638  -0.166208   0.000000  -0.062287  -0.563221
   26  O  2 YY   -0.148741  -0.196236   0.000000  -0.008683  -0.322032
   27  O  2 ZZ   -0.114376  -0.196369   0.000000   0.065831  -0.321048
   28  O  2 XY    0.124435  -0.035971   0.000000  -0.089826   0.059626
   29  O  2 XZ   -0.000000   0.000000   0.044374   0.000000  -0.000000
   30  O  2 YZ   -0.000000   0.000000  -0.005008   0.000000  -0.000000
   31  H  3  S    0.687039   0.046500   0.000000  -0.463082  -0.249134
   32  H  3  S   -1.025189  -0.259910   0.000000  -0.068121   0.044377
   33  H  3  X   -0.060711   0.027603   0.000000  -0.003804  -0.113110
   34  H  3  Y    0.019555  -0.078339   0.000000  -0.038659   0.117783
   35  H  3  Z   -0.000000   0.000000   0.094923   0.000000  -0.000000

                     21         22         23         24         25
                    1.4438     1.4484     1.5374     1.5385     1.7813
                     A'         A''        A'         A''        A'' 
    1  N  1  S    0.002884  -0.000000   0.000880  -0.000000  -0.000000
    2  N  1  S    0.090393  -0.000000   0.015312  -0.000000  -0.000000
    3  N  1  X    0.088660  -0.000000  -0.006094  -0.000000  -0.000000
    4  N  1  Y    0.123190  -0.000000   0.014604  -0.000000  -0.000000
    5  N  1  Z    0.000000   0.133659   0.000000  -0.030863   0.018071
    6  N  1  S   -0.383596  -0.000000  -0.195440  -0.000000  -0.000000
    7  N  1  X   -0.223915  -0.000000  -0.081739  -0.000000  -0.000000
    8  N  1  Y    0.077365  -0.000000   0.078012  -0.000000  -0.000000
    9  N  1  Z    0.000000  -0.003653   0.000000   0.030603  -0.055080
   10  N  1 XX   -0.435741  -0.000000  -0.329189  -0.000000  -0.000000
   11  N  1 YY    0.483409  -0.000000  -0.272157  -0.000000  -0.000000
   12  N  1 ZZ   -0.036551  -0.000000   0.606542  -0.000000  -0.000000
   13  N  1 XY   -0.096727  -0.000000  -0.356565  -0.000000  -0.000000
   14  N  1 XZ    0.000000  -0.428370   0.000000   0.533540   0.364328
   15  N  1 YZ    0.000000   0.453681   0.000000   0.460894   0.587104
   16  O  2  S    0.006041  -0.000000  -0.018605  -0.000000  -0.000000
   17  O  2  S   -0.216297  -0.000000  -0.099402  -0.000000  -0.000000
   18  O  2  X   -0.014666  -0.000000   0.064768  -0.000000  -0.000000
   19  O  2  Y   -0.055070  -0.000000  -0.010390  -0.000000  -0.000000
   20  O  2  Z    0.000000   0.095671   0.000000   0.027554  -0.070023
   21  O  2  S    0.446389  -0.000000   0.406131  -0.000000  -0.000000
   22  O  2  X   -0.082184  -0.000000  -0.104691  -0.000000  -0.000000
   23  O  2  Y    0.304924  -0.000000   0.142708  -0.000000  -0.000000
   24  O  2  Z    0.000000   0.038962   0.000000  -0.100751   0.164615
   25  O  2 XX    0.470995  -0.000000  -0.179852  -0.000000  -0.000000
   26  O  2 YY   -0.472508  -0.000000  -0.445941  -0.000000  -0.000000
   27  O  2 ZZ   -0.043400  -0.000000   0.462272  -0.000000  -0.000000
   28  O  2 XY    0.170527  -0.000000  -0.253865  -0.000000  -0.000000
   29  O  2 XZ    0.000000   0.539947   0.000000   0.273766  -0.297500
   30  O  2 YZ    0.000000  -0.250674   0.000000   0.549504  -0.485388
   31  H  3  S   -0.336191  -0.000000   0.117457  -0.000000  -0.000000
   32  H  3  S    0.202382  -0.000000  -0.094086  -0.000000  -0.000000
   33  H  3  X   -0.210833  -0.000000   0.208175  -0.000000  -0.000000
   34  H  3  Y   -0.190290  -0.000000  -0.000841  -0.000000  -0.000000
   35  H  3  Z    0.000000   0.157859   0.000000   0.188670  -0.474349

                     26         27         28         29         30
                    1.7957     1.9969     2.1055     2.1578     2.4214
                     A'         A'         A''        A'         A'' 
    1  N  1  S    0.005643  -0.011656  -0.000000   0.034265  -0.000000
    2  N  1  S   -0.000292  -0.042034  -0.000000   0.376265  -0.000000
    3  N  1  X   -0.025732   0.042852  -0.000000   0.260404  -0.000000
    4  N  1  Y    0.008356   0.021725  -0.000000  -0.198648  -0.000000
    5  N  1  Z    0.000000  -0.000000  -0.017850  -0.000000   0.032789
    6  N  1  S   -0.264371   0.550591  -0.000000  -0.584828  -0.000000
    7  N  1  X   -0.124912   0.143766  -0.000000  -0.414784  -0.000000
    8  N  1  Y    0.083889  -0.326632  -0.000000   0.320219  -0.000000
    9  N  1  Z    0.000000  -0.000000   0.074043  -0.000000   0.349761
   10  N  1 XX    0.168157  -0.310178  -0.000000  -0.259417  -0.000000
   11  N  1 YY    0.470793   0.345381  -0.000000   0.050184  -0.000000
   12  N  1 ZZ   -0.602064  -0.118393  -0.000000   0.506625  -0.000000
   13  N  1 XY    0.332086  -0.136387  -0.000000   0.724605  -0.000000
   14  N  1 XZ    0.000000  -0.000000   0.190330  -0.000000   0.715120
   15  N  1 YZ    0.000000  -0.000000   0.127580  -0.000000  -0.561856
   16  O  2  S   -0.028158  -0.003077  -0.000000  -0.002356  -0.000000
   17  O  2  S   -0.193213   0.140299  -0.000000   0.364756  -0.000000
   18  O  2  X    0.027918  -0.108267  -0.000000  -0.348380  -0.000000
   19  O  2  Y   -0.048640   0.077305  -0.000000   0.290175  -0.000000
   20  O  2  Z    0.000000  -0.000000   0.104801  -0.000000   0.059851
   21  O  2  S    0.674144  -0.446065  -0.000000  -0.066990  -0.000000
   22  O  2  X   -0.032217   0.576291  -0.000000   0.123831  -0.000000
   23  O  2  Y    0.247121  -0.187667  -0.000000  -0.166060  -0.000000
   24  O  2  Z    0.000000  -0.000000  -0.226541  -0.000000  -0.420289
   25  O  2 XX   -0.248532  -0.134227  -0.000000  -0.148027  -0.000000
   26  O  2 YY   -0.456697   0.064155  -0.000000   0.044406  -0.000000
   27  O  2 ZZ    0.444023   0.020451  -0.000000   0.403481  -0.000000
   28  O  2 XY   -0.272680  -0.192860  -0.000000   0.347426  -0.000000
   29  O  2 XZ    0.000000  -0.000000  -0.395708  -0.000000   0.726084
   30  O  2 YZ    0.000000  -0.000000  -0.397944  -0.000000  -0.575889
   31  H  3  S    0.133760   0.010414  -0.000000  -0.051060  -0.000000
   32  H  3  S   -0.215458  -0.122772  -0.000000   0.099262  -0.000000
   33  H  3  X    0.355629  -0.255804  -0.000000  -0.111468  -0.000000
   34  H  3  Y   -0.029969   0.873206  -0.000000   0.052526  -0.000000
   35  H  3  Z    0.000000  -0.000000   0.852213  -0.000000  -0.000073

                     31         32         33         34         35
                    2.4286     2.7363     2.8805     3.2981     3.6011
                     A'         A'         A'         A'         A'  
    1  N  1  S    0.013985   0.092625  -0.036718  -0.354824   0.185609
    2  N  1  S    0.006587  -0.160483   0.176910   1.332060  -0.468112
    3  N  1  X   -0.032449  -0.445070   0.284345  -0.152368   0.118457
    4  N  1  Y   -0.022414   0.368720  -0.195433   0.112470  -0.099136
    5  N  1  Z   -0.000000  -0.000000  -0.000000   0.000000  -0.000000
    6  N  1  S   -0.329735  -2.296358   0.807243   0.698405  -2.013570
    7  N  1  X   -0.366346  -1.152668   0.376655  -0.292799  -0.623932
    8  N  1  Y   -0.152768   0.912365  -0.344401   0.219090   0.459226
    9  N  1  Z   -0.000000  -0.000000  -0.000000   0.000000  -0.000000
   10  N  1 XX   -0.732618  -0.259190   0.238605  -1.318334   0.671338
   11  N  1 YY    0.715877  -0.086070  -0.117095  -1.206892   0.693901
   12  N  1 ZZ    0.117238   0.615918  -0.173364  -1.103184   0.632735
   13  N  1 XY   -0.172739   0.823507  -0.366620   0.178190  -0.067551
   14  N  1 XZ   -0.000000  -0.000000  -0.000000   0.000000  -0.000000
   15  N  1 YZ   -0.000000  -0.000000  -0.000000   0.000000  -0.000000
   16  O  2  S   -0.014935  -0.073658  -0.030758  -0.199687  -0.443692
   17  O  2  S   -0.234523  -0.858928  -0.036354   0.091591   0.079556
   18  O  2  X   -0.073780  -0.143762  -0.112880  -0.111945   0.131391
   19  O  2  Y   -0.110316   0.048982  -0.106443   0.056920  -0.169503
   20  O  2  Z   -0.000000  -0.000000  -0.000000   0.000000  -0.000000
   21  O  2  S    0.658596   3.220753  -0.128539   1.702584   4.153551
   22  O  2  X    0.270050  -1.139472   1.104398  -0.381419  -0.455134
   23  O  2  Y    0.588800   1.141028  -0.180156   0.401057   0.554756
   24  O  2  Z   -0.000000  -0.000000  -0.000000   0.000000  -0.000000
   25  O  2 XX   -0.612733   0.666041   0.105932  -0.383828  -1.476108
   26  O  2 YY    0.738620  -0.089668  -0.376963  -0.503104  -1.486375
   27  O  2 ZZ   -0.244259  -0.791331  -0.221437  -0.775030  -1.542338
   28  O  2 XY   -0.011696  -0.707869   0.885868  -0.335336   0.016555
   29  O  2 XZ   -0.000000  -0.000000  -0.000000   0.000000  -0.000000
   30  O  2 YZ   -0.000000  -0.000000  -0.000000   0.000000  -0.000000
   31  H  3  S   -0.092765  -0.109864  -0.181596   0.014303  -0.078064
   32  H  3  S   -0.147513  -0.097687  -0.438899  -0.122958  -0.170264
   33  H  3  X    0.399630   0.411465   0.809014   0.033028   0.012460
   34  H  3  Y   -0.199987   0.162771   0.442600  -0.066359  -0.037525
   35  H  3  Z   -0.000000  -0.000000  -0.000000   0.000000  -0.000000

  ----- BETA SET ----- 

          ------------
          EIGENVECTORS
          ------------

                      1          2          3          4          5
                  -19.3397   -14.4799    -1.1153    -0.6669    -0.4653
                     A'         A'         A'         A'         A'  
    1  N  1  S    0.000053   0.993676  -0.094670  -0.165443  -0.060072
    2  N  1  S    0.000395   0.030753   0.202256   0.372913   0.127593
    3  N  1  X    0.000268   0.001352   0.123248   0.029133  -0.010760
    4  N  1  Y   -0.000225  -0.001016  -0.091891  -0.033778   0.220468
    5  N  1  Z    0.000000   0.000000  -0.000000  -0.000000   0.000000
    6  N  1  S   -0.001589   0.002408   0.094216   0.398588   0.221455
    7  N  1  X   -0.000662   0.000070   0.008007   0.005392   0.009754
    8  N  1  Y    0.000570  -0.000081  -0.006528  -0.001671   0.116354
    9  N  1  Z    0.000000   0.000000  -0.000000  -0.000000   0.000000
   10  N  1 XX    0.000030  -0.006027   0.018120   0.004467   0.012502
   11  N  1 YY    0.000086  -0.006367   0.005456  -0.000496  -0.025209
   12  N  1 ZZ    0.000134  -0.006762  -0.011287  -0.011185  -0.002452
   13  N  1 XY    0.000077  -0.000570  -0.023901  -0.010429   0.013816
   14  N  1 XZ    0.000000   0.000000  -0.000000  -0.000000   0.000000
   15  N  1 YZ    0.000000   0.000000  -0.000000  -0.000000   0.000000
   16  O  2  S    0.993218  -0.000018  -0.195078   0.115073   0.029513
   17  O  2  S    0.025303   0.000385   0.445512  -0.262430  -0.082719
   18  O  2  X   -0.000381  -0.000056  -0.094112  -0.295894   0.404701
   19  O  2  Y    0.000895   0.000025   0.103235   0.142682   0.346038
   20  O  2  Z    0.000000   0.000000  -0.000000  -0.000000   0.000000
   21  O  2  S    0.009091  -0.000921   0.406145  -0.381120  -0.086288
   22  O  2  X   -0.000276   0.000744  -0.038697  -0.153594   0.255025
   23  O  2  Y    0.000205  -0.000513   0.055278   0.060734   0.233192
   24  O  2  Z    0.000000   0.000000  -0.000000  -0.000000   0.000000
   25  O  2 XX   -0.006953  -0.000333   0.017836   0.006024  -0.014829
   26  O  2 YY   -0.006995  -0.000145   0.010281   0.008466   0.021788
   27  O  2 ZZ   -0.007139   0.000231  -0.011888   0.002870  -0.006442
   28  O  2 XY    0.000000   0.000550  -0.010144  -0.025613   0.007497
   29  O  2 XZ    0.000000   0.000000  -0.000000  -0.000000   0.000000
   30  O  2 YZ    0.000000   0.000000  -0.000000  -0.000000   0.000000
   31  H  3  S    0.000005  -0.000025   0.022738  -0.063431   0.125102
   32  H  3  S   -0.000441  -0.000084   0.003387  -0.042896   0.131420
   33  H  3  X   -0.000115   0.000031  -0.003383   0.007602  -0.013540
   34  H  3  Y   -0.000053   0.000039  -0.002063   0.005322  -0.003183
   35  H  3  Z    0.000000   0.000000  -0.000000  -0.000000   0.000000

                      6          7          8          9         10
                   -0.4198    -0.4001    -0.0956    -0.0399    -0.0272
                     A'         A''        A'         A''        A'  
    1  N  1  S   -0.100247   0.000000   0.001170   0.000000  -0.003800
    2  N  1  S    0.203670   0.000000  -0.000128   0.000000  -0.004123
    3  N  1  X   -0.369760   0.000000  -0.218332   0.000000   0.287204
    4  N  1  Y    0.163404   0.000000  -0.398059   0.000000   0.250319
    5  N  1  Z   -0.000000   0.250688   0.000000   0.565824  -0.000000
    6  N  1  S    0.430880   0.000000  -0.008652   0.000000   0.068454
    7  N  1  X   -0.176002   0.000000  -0.197529   0.000000   0.317546
    8  N  1  Y    0.058508   0.000000  -0.348178   0.000000   0.247815
    9  N  1  Z   -0.000000   0.161841   0.000000   0.545768  -0.000000
   10  N  1 XX   -0.026774   0.000000  -0.009659   0.000000  -0.007024
   11  N  1 YY   -0.002796   0.000000   0.010571   0.000000   0.001597
   12  N  1 ZZ   -0.001868   0.000000  -0.000650   0.000000  -0.004848
   13  N  1 XY    0.015089   0.000000  -0.002604   0.000000   0.001862
   14  N  1 XZ   -0.000000   0.025035   0.000000   0.002127  -0.000000
   15  N  1 YZ   -0.000000  -0.018815   0.000000  -0.000656  -0.000000
   16  O  2  S   -0.019003   0.000000   0.045158   0.000000   0.040367
   17  O  2  S    0.022383   0.000000  -0.096304   0.000000  -0.086922
   18  O  2  X    0.176060   0.000000  -0.063009   0.000000  -0.277783
   19  O  2  Y   -0.418310   0.000000   0.078343   0.000000  -0.295246
   20  O  2  Z   -0.000000   0.576426   0.000000  -0.355367  -0.000000
   21  O  2  S    0.096923   0.000000  -0.282585   0.000000  -0.314531
   22  O  2  X    0.098062   0.000000  -0.057420   0.000000  -0.255199
   23  O  2  Y   -0.269243   0.000000   0.044432   0.000000  -0.300469
   24  O  2  Z   -0.000000   0.398872   0.000000  -0.322353  -0.000000
   25  O  2 XX    0.004303   0.000000   0.039085   0.000000   0.005505
   26  O  2 YY   -0.023860   0.000000  -0.010978   0.000000   0.010660
   27  O  2 ZZ    0.000204   0.000000   0.003467   0.000000   0.007564
   28  O  2 XY    0.012017   0.000000   0.010652   0.000000  -0.002872
   29  O  2 XZ   -0.000000  -0.018535   0.000000  -0.018982  -0.000000
   30  O  2 YZ   -0.000000   0.026559   0.000000   0.007414  -0.000000
   31  H  3  S    0.008692   0.000000   0.258661   0.000000   0.186279
   32  H  3  S    0.023343   0.000000   0.584169   0.000000   0.661432
   33  H  3  X    0.000133   0.000000  -0.001920   0.000000   0.007427
   34  H  3  Y   -0.004005   0.000000  -0.002041   0.000000   0.005668
   35  H  3  Z   -0.000000   0.006022   0.000000  -0.005949  -0.000000

                     11         12         13         14         15
                    0.2372     0.6572     0.6983     0.7348     0.7575
                     A'         A'         A'         A'         A'' 
    1  N  1  S    0.088984  -0.011190   0.010513   0.002075   0.000000
    2  N  1  S   -0.209207  -0.542196  -0.631142  -0.585436   0.000000
    3  N  1  X   -0.397082  -0.545681   0.289954   0.569916   0.000000
    4  N  1  Y    0.316552   0.303060  -0.545843   0.499962   0.000000
    5  N  1  Z    0.000000   0.000000   0.000000   0.000000  -0.955892
    6  N  1  S   -0.970984   1.428567   0.561251   0.886393   0.000000
[...]
 TOTAL WALL CLOCK TIME=       50.0 SECONDS, CPU UTILIZATION IS  84.01%
 TOTAL NUMBER OF NONZERO TWO-ELECTRON INTEGRALS =              100472
          7 INTEGRAL RECORDS WERE STORED ON DISK FILE  8.
  ...... END OF TWO-ELECTRON INTEGRALS .....
 STEP CPU TIME =     0.01 TOTAL CPU TIME =       42.0 (    0.7 MIN)
 TOTAL WALL CLOCK TIME=       50.0 SECONDS, CPU UTILIZATION IS  83.93%

          --------------------------
              R-PBE0 SCF CALCULATION
          --------------------------
         DENSITY MATRIX CONVERGENCE THRESHOLD=  1.00E-05
     COARSE -> FINE DFT GRID SWITCH THRESHOLD=  3.00E-04 (SWITCH IN $DFT)
                   HF -> DFT SWITCH THRESHOLD=  5.00E-03 (SWOFF IN $DFT)

 DFT CODE IS SWITCHING FROM THE FINE GRID NRAD= 96,  NLEB=  302
                      TO THE COARSE GRID NRAD0= 24, NLEB0=  110

 ITER EX DEM     TOTAL ENERGY        E CHANGE  DENSITY CHANGE    DIIS ERROR
          * * *   INITIATING DIIS PROCEDURE   * * *
   1  0  0     -130.2425048526  -130.2425048526   0.005054170   0.002438081
   2  1  0     -130.2425271627    -0.0000223101   0.001069845   0.000591880
   3  2  0     -130.2425262714     0.0000008913   0.000826398   0.000872056
   4  3  0     -130.2425283468    -0.0000020754   0.000384287   0.000149485
   5  4  0     -130.2425283560    -0.0000000092   0.000167569   0.000105701
 DFT CODE IS SWITCHING BACK TO THE FINE GRID
          * * *   INITIATING DIIS PROCEDURE   * * *
   6  5  0     -130.2423913756     0.0001369804   0.001249518   0.000938056
   7  6  0     -130.2423927390    -0.0000013634   0.001383659   0.000577019
   8  7  0     -130.2423928823    -0.0000001433   0.000678549   0.000448103
   9  8  0     -130.2423933783    -0.0000004961   0.000042424   0.000027350
  10  9  0     -130.2423933812    -0.0000000028   0.000006872   0.000003178
  11 10  0     -130.2423933812     0.0000000000   0.000004693   0.000003752

          -----------------
          DENSITY CONVERGED
          -----------------
     TIME TO FORM FOCK OPERATORS=       1.3 SECONDS (       0.1 SEC/ITER)
     TIME TO SOLVE SCF EQUATIONS=       0.0 SECONDS (       0.0 SEC/ITER)

 FINAL R-PBE0 ENERGY IS     -130.2423933812 AFTER  11 ITERATIONS
 DFT EXCHANGE + CORRELATION ENERGY =       -11.8048853629
 TOTAL ELECTRON NUMBER             =        15.9999987868
 ...... END OF RHF CALCULATION ......
 STEP CPU TIME =     1.30 TOTAL CPU TIME =       43.3 (    0.7 MIN)
 TOTAL WALL CLOCK TIME=       51.6 SECONDS, CPU UTILIZATION IS  83.92%
 ..... END OF 1-ELECTRON GRADIENT ......
 STEP CPU TIME =     0.00 TOTAL CPU TIME =       43.3 (    0.7 MIN)
 TOTAL WALL CLOCK TIME=       51.6 SECONDS, CPU UTILIZATION IS  83.92%
 MEMORY FOR GRID POINT CONTRIBUTIONS TO THE DFT GRADIENT=    139971 WORDS.
 STEP CPU TIME =     0.27 TOTAL CPU TIME =       43.5 (    0.7 MIN)
 TOTAL WALL CLOCK TIME=       51.8 SECONDS, CPU UTILIZATION IS  83.99%
 ...... END OF 2-ELECTRON GRADIENT ......
 STEP CPU TIME =     0.03 TOTAL CPU TIME =       43.6 (    0.7 MIN)
 TOTAL WALL CLOCK TIME=       51.9 SECONDS, CPU UTILIZATION IS  84.00%

                  ---------------------------------------
                  GRADIENT OF  FIRST STATE (HARTREE/BOHR)
                  ---------------------------------------
        ATOM     ZNUC       DE/DX         DE/DY         DE/DZ
 --------------------------------------------------------------
  1  N            7.0     0.0786587    -0.0588082     0.0000000
  2  O            8.0    -0.0961046     0.0508309     0.0000000
  3  H            1.0     0.0174458     0.0079773     0.0000000

     ---------
     STATE # 2                    MULTIPLICITY OF STATE 2 IS: 3
     ---------


     COPIED ORBITALS FOR STATE #2 TO RECORDS   15 AND   19

          ---------------------------
               U-PBE0 SCF CALCULATION
          ---------------------------
         DENSITY MATRIX CONVERGENCE THRESHOLD=  1.00E-05
     COARSE -> FINE DFT GRID SWITCH THRESHOLD=  3.00E-04 (SWITCH IN $DFT)
                   HF -> DFT SWITCH THRESHOLD=  5.00E-03 (SWOFF IN $DFT)

 DFT CODE IS SWITCHING FROM THE FINE GRID NRAD= 96,  NLEB=  302
                      TO THE COARSE GRID NRAD0= 24, NLEB0=  110

 ITER EX      TOTAL ENERGY        E CHANGE  DENSITY CHANGE    DIIS ERROR
          * * *   INITIATING DIIS PROCEDURE   * * *
   1  0     -130.2425868023  -130.2425868023   0.005147753   0.002366591
   2  1     -130.2426163823    -0.0000295800   0.002048175   0.000586340
   3  2     -130.2426192937    -0.0000029114   0.000791202   0.000615310
   4  3     -130.2426204803    -0.0000011866   0.000969079   0.000202575
   5  4     -130.2426209093    -0.0000004289   0.000162975   0.000128208
 DFT CODE IS SWITCHING BACK TO THE FINE GRID
          * * *   INITIATING DIIS PROCEDURE   * * *
   6  5     -130.2424533222     0.0001675870   0.001254244   0.001040067
   7  6     -130.2424549552    -0.0000016329   0.000643450   0.000521324
   8  7     -130.2424551802    -0.0000002250   0.000308655   0.000316548
   9  8     -130.2424554654    -0.0000002852   0.000137556   0.000078904
  10  9     -130.2424554872    -0.0000000218   0.000018104   0.000029314
  11 10     -130.2424554902    -0.0000000030   0.000028869   0.000006706
  12 11     -130.2424554907    -0.0000000005   0.000008147   0.000002116
  13 12     -130.2424554908    -0.0000000000   0.000002357   0.000000525

          -----------------
          DENSITY CONVERGED
          -----------------
     TIME TO FORM FOCK OPERATORS=       2.5 SECONDS (       0.2 SEC/ITER)
     TIME TO SOLVE SCF EQUATIONS=       0.0 SECONDS (       0.0 SEC/ITER)

 FINAL U-PBE0 ENERGY IS     -130.2424554908 AFTER  13 ITERATIONS
 DFT EXCHANGE + CORRELATION ENERGY =       -11.8527310006
 TOTAL ELECTRON NUMBER             =        15.9999990003

          --------------------
          SPIN SZ   =    1.000
          S-SQUARED =    2.020
          --------------------
 ...... END OF UHF CALCULATION ......
 STEP CPU TIME =     2.48 TOTAL CPU TIME =       46.1 (    0.8 MIN)
 TOTAL WALL CLOCK TIME=       54.4 SECONDS, CPU UTILIZATION IS  84.62%
 ..... END OF 1-ELECTRON GRADIENT ......
 STEP CPU TIME =     0.00 TOTAL CPU TIME =       46.1 (    0.8 MIN)
 TOTAL WALL CLOCK TIME=       54.4 SECONDS, CPU UTILIZATION IS  84.61%
 MEMORY FOR GRID POINT CONTRIBUTIONS TO THE DFT GRADIENT=    139971 WORDS.
 STEP CPU TIME =     0.40 TOTAL CPU TIME =       46.5 (    0.8 MIN)
 TOTAL WALL CLOCK TIME=       54.8 SECONDS, CPU UTILIZATION IS  84.70%
 ...... END OF 2-ELECTRON GRADIENT ......
 STEP CPU TIME =     0.03 TOTAL CPU TIME =       46.5 (    0.8 MIN)
 TOTAL WALL CLOCK TIME=       54.9 SECONDS, CPU UTILIZATION IS  84.71%

                  ---------------------------------------
                  GRADIENT OF SECOND STATE (HARTREE/BOHR)
                  ---------------------------------------
        ATOM     ZNUC       DE/DX         DE/DY         DE/DZ
 --------------------------------------------------------------
  1  N            7.0     0.1518756    -0.1135552     0.0000000
  2  O            8.0    -0.1857306     0.0980790     0.0000000
  3  H            1.0     0.0338551     0.0154762     0.0000000

                  -------------------
                  EFFECTIVE GRADIENTS
                  -------------------
 NSERCH =   8

   ATOM   CHARGE       X              Y              Z
 ------------------------------------------------------------
     OVERALL EFFECTIVE GRADIENT:
 N           7.0  -0.0000704281   0.0000605626   0.0000000000
 O           8.0   0.0002692694   0.0000255578   0.0000000000
 H           1.0  -0.0001988413  -0.0000861204   0.0000000000
 
     DIFFERENCE GRADIENT: (RMS * DE:   0.000084)
 N           7.0   0.0000659959  -0.0000414468   0.0000000000
 O           8.0   0.0001022703   0.0001135946   0.0000000000
 H           1.0  -0.0001682661  -0.0000721478   0.0000000000
 
     PARALLEL GRADIENT: (RMS:   0.045885)
 N           7.0  -0.0732168170   0.0547469911   0.0000000000
 O           8.0   0.0896260679  -0.0472481192   0.0000000000
 H           1.0  -0.0164092509  -0.0074988719   0.0000000000

  NSERCH=  8        ACTUAL                 THRESHOLD  
     ------------------------------------  ----------
     ENERGY OF FIRST STATE  = -130.242393
     ENERGY OF SECOND STATE = -130.242455
     ENERGY DIFFERENCE =         0.000062    0.000010
     MAX EFFECTIVE GRADIENT =    0.000269    0.000500
     RMS EFFECTIVE GRADIENT =    0.000120    0.000300
     MAX CHANGE OF X =           0.001077    0.002000
     RMS CHANGE OF X =           0.000453    0.001500
 
     CONVERGENCE NOT ACHIEVED YET
     ============================

     ---------
     STATE # 1                    MULTIPLICITY OF STATE 1 IS: 1
     ---------

 COORDINATES OF SYMMETRY UNIQUE ATOMS (ANGS)
   ATOM   CHARGE       X              Y              Z
 ------------------------------------------------------------
 N           7.0  -1.0322950892   0.2840450512   0.0000000000
 O           8.0  -0.1206948584  -0.3955247729   0.0000000000
 H           1.0   1.0232433579   0.1366615702   0.0000000000

     COPIED ORBITALS FOR STATE #1 TO RECORD   15
 ...... END OF ONE-ELECTRON INTEGRALS ......
 STEP CPU TIME =     0.00 TOTAL CPU TIME =       46.5 (    0.8 MIN)
 TOTAL WALL CLOCK TIME=       54.9 SECONDS, CPU UTILIZATION IS  84.71%
 TOTAL NUMBER OF NONZERO TWO-ELECTRON INTEGRALS =              100471
          7 INTEGRAL RECORDS WERE STORED ON DISK FILE  8.
  ...... END OF TWO-ELECTRON INTEGRALS .....
 STEP CPU TIME =     0.01 TOTAL CPU TIME =       46.5 (    0.8 MIN)
 TOTAL WALL CLOCK TIME=       54.9 SECONDS, CPU UTILIZATION IS  84.71%

          --------------------------
              R-PBE0 SCF CALCULATION
          --------------------------
         DENSITY MATRIX CONVERGENCE THRESHOLD=  1.00E-05
     COARSE -> FINE DFT GRID SWITCH THRESHOLD=  3.00E-04 (SWITCH IN $DFT)
                   HF -> DFT SWITCH THRESHOLD=  5.00E-03 (SWOFF IN $DFT)

 DFT CODE IS SWITCHING FROM THE FINE GRID NRAD= 96,  NLEB=  302
                      TO THE COARSE GRID NRAD0= 24, NLEB0=  110

 ITER EX DEM     TOTAL ENERGY        E CHANGE  DENSITY CHANGE    DIIS ERROR
          * * *   INITIATING DIIS PROCEDURE   * * *
   1  0  0     -130.2424800068  -130.2424800068   0.001722563   0.000925055
   2  1  0     -130.2424814353    -0.0000014284   0.001543242   0.000701070
   3  2  0     -130.2424818588    -0.0000004235   0.000741300   0.000461597
   4  3  0     -130.2424824111    -0.0000005523   0.000028954   0.000031541
 DFT CODE IS SWITCHING BACK TO THE FINE GRID
          * * *   INITIATING DIIS PROCEDURE   * * *
   5  4  0     -130.2423314999     0.0001509113   0.001254640   0.000941990
   6  5  0     -130.2423328282    -0.0000013284   0.001459230   0.000590705
   7  6  0     -130.2423329981    -0.0000001699   0.000721711   0.000450102
   8  7  0     -130.2423335122    -0.0000005141   0.000071086   0.000026318
   9  8  0     -130.2423335149    -0.0000000027   0.000024204   0.000018650
  10  9  0     -130.2423335156    -0.0000000006   0.000005678   0.000004809
  11 10  0     -130.2423335156    -0.0000000001   0.000000234   0.000000315

          -----------------
          DENSITY CONVERGED
          -----------------
     TIME TO FORM FOCK OPERATORS=       1.4 SECONDS (       0.1 SEC/ITER)
     TIME TO SOLVE SCF EQUATIONS=       0.0 SECONDS (       0.0 SEC/ITER)

 FINAL R-PBE0 ENERGY IS     -130.2423335156 AFTER  11 ITERATIONS
 DFT EXCHANGE + CORRELATION ENERGY =       -11.8047488548
 TOTAL ELECTRON NUMBER             =        15.9999987877
 ...... END OF RHF CALCULATION ......
 STEP CPU TIME =     1.46 TOTAL CPU TIME =       48.0 (    0.8 MIN)
 TOTAL WALL CLOCK TIME=       56.4 SECONDS, CPU UTILIZATION IS  85.07%
 ..... END OF 1-ELECTRON GRADIENT ......
 STEP CPU TIME =     0.00 TOTAL CPU TIME =       48.0 (    0.8 MIN)
 TOTAL WALL CLOCK TIME=       56.4 SECONDS, CPU UTILIZATION IS  85.07%
 MEMORY FOR GRID POINT CONTRIBUTIONS TO THE DFT GRADIENT=    139971 WORDS.
 STEP CPU TIME =     0.26 TOTAL CPU TIME =       48.2 (    0.8 MIN)
 TOTAL WALL CLOCK TIME=       56.7 SECONDS, CPU UTILIZATION IS  85.10%
 ...... END OF 2-ELECTRON GRADIENT ......
 STEP CPU TIME =     0.04 TOTAL CPU TIME =       48.3 (    0.8 MIN)
 TOTAL WALL CLOCK TIME=       56.7 SECONDS, CPU UTILIZATION IS  85.11%

                  ---------------------------------------
                  GRADIENT OF  FIRST STATE (HARTREE/BOHR)
                  ---------------------------------------
        ATOM     ZNUC       DE/DX         DE/DY         DE/DZ
 --------------------------------------------------------------
  1  N            7.0     0.0786873    -0.0588347     0.0000000
  2  O            8.0    -0.0961165     0.0508663     0.0000000
  3  H            1.0     0.0174291     0.0079684     0.0000000

     ---------
     STATE # 2                    MULTIPLICITY OF STATE 2 IS: 3
     ---------


     COPIED ORBITALS FOR STATE #2 TO RECORDS   15 AND   19

          ---------------------------
               U-PBE0 SCF CALCULATION
          ---------------------------
         DENSITY MATRIX CONVERGENCE THRESHOLD=  1.00E-05
     COARSE -> FINE DFT GRID SWITCH THRESHOLD=  3.00E-04 (SWITCH IN $DFT)
                   HF -> DFT SWITCH THRESHOLD=  5.00E-03 (SWOFF IN $DFT)

 DFT CODE IS SWITCHING FROM THE FINE GRID NRAD= 96,  NLEB=  302
                      TO THE COARSE GRID NRAD0= 24, NLEB0=  110

 ITER EX      TOTAL ENERGY        E CHANGE  DENSITY CHANGE    DIIS ERROR
          * * *   INITIATING DIIS PROCEDURE   * * *
   1  0     -130.2425157279  -130.2425157279   0.001708945   0.000982662
   2  1     -130.2425179217    -0.0000021938   0.000690510   0.000594767
   3  2     -130.2425183390    -0.0000004174   0.000362363   0.000354821
   4  3     -130.2425186929    -0.0000003539   0.000222173   0.000089640
 DFT CODE IS SWITCHING BACK TO THE FINE GRID
          * * *   INITIATING DIIS PROCEDURE   * * *
   5  4     -130.2423376676     0.0001810253   0.001221243   0.001033560
   6  5     -130.2423392469    -0.0000015793   0.000704701   0.000524204
   7  6     -130.2423394807    -0.0000002337   0.000292535   0.000310411
   8  7     -130.2423397366    -0.0000002559   0.000117043   0.000079820
   9  8     -130.2423397559    -0.0000000194   0.000015301   0.000024705
  10  9     -130.2423397577    -0.0000000018   0.000016545   0.000004395
  11 10     -130.2423397579    -0.0000000002   0.000005583   0.000001748
  12 11     -130.2423397580    -0.0000000000   0.000002107   0.000000511

          -----------------
          DENSITY CONVERGED
          -----------------
     TIME TO FORM FOCK OPERATORS=       2.4 SECONDS (       0.2 SEC/ITER)
     TIME TO SOLVE SCF EQUATIONS=       0.0 SECONDS (       0.0 SEC/ITER)

 FINAL U-PBE0 ENERGY IS     -130.2423397580 AFTER  12 ITERATIONS
 DFT EXCHANGE + CORRELATION ENERGY =       -11.8526094313
 TOTAL ELECTRON NUMBER             =        15.9999990025

          --------------------
          SPIN SZ   =    1.000
          S-SQUARED =    2.020
          --------------------
 ...... END OF UHF CALCULATION ......
 STEP CPU TIME =     2.44 TOTAL CPU TIME =       50.7 (    0.8 MIN)
 TOTAL WALL CLOCK TIME=       59.2 SECONDS, CPU UTILIZATION IS  85.70%
 ..... END OF 1-ELECTRON GRADIENT ......
 STEP CPU TIME =     0.00 TOTAL CPU TIME =       50.7 (    0.8 MIN)
 TOTAL WALL CLOCK TIME=       59.2 SECONDS, CPU UTILIZATION IS  85.70%
 MEMORY FOR GRID POINT CONTRIBUTIONS TO THE DFT GRADIENT=    139971 WORDS.
 STEP CPU TIME =     0.38 TOTAL CPU TIME =       51.1 (    0.9 MIN)
 TOTAL WALL CLOCK TIME=       59.6 SECONDS, CPU UTILIZATION IS  85.76%
 ...... END OF 2-ELECTRON GRADIENT ......
 STEP CPU TIME =     0.04 TOTAL CPU TIME =       51.1 (    0.9 MIN)
 TOTAL WALL CLOCK TIME=       59.6 SECONDS, CPU UTILIZATION IS  85.79%

                  ---------------------------------------
                  GRADIENT OF SECOND STATE (HARTREE/BOHR)
                  ---------------------------------------
        ATOM     ZNUC       DE/DX         DE/DY         DE/DZ
 --------------------------------------------------------------
  1  N            7.0     0.1518121    -0.1135125     0.0000000
  2  O            8.0    -0.1854675     0.0981272     0.0000000
  3  H            1.0     0.0336554     0.0153853     0.0000000

                  -------------------
                  EFFECTIVE GRADIENTS
                  -------------------
 NSERCH =   9

   ATOM   CHARGE       X              Y              Z
 ------------------------------------------------------------
     OVERALL EFFECTIVE GRADIENT:
 N           7.0  -0.0000018515   0.0000037816   0.0000000000
 O           8.0   0.0000336947   0.0000091189   0.0000000000
 H           1.0  -0.0000318432  -0.0000129006   0.0000000000
 
     DIFFERENCE GRADIENT: (RMS * DE:   0.000014)
 N           7.0   0.0000118426  -0.0000064579   0.0000000000
 O           8.0   0.0000169620   0.0000179695   0.0000000000
 H           1.0  -0.0000288046  -0.0000115116   0.0000000000
 
     PARALLEL GRADIENT: (RMS:   0.045792)
 N           7.0  -0.0731248104   0.0546778166   0.0000000000
 O           8.0   0.0893510743  -0.0472608947   0.0000000000
 H           1.0  -0.0162262639  -0.0074169219   0.0000000000

  NSERCH=  9        ACTUAL                 THRESHOLD  
     ------------------------------------  ----------
     ENERGY OF FIRST STATE  = -130.242334
     ENERGY OF SECOND STATE = -130.242340
     ENERGY DIFFERENCE =         0.000006    0.000010
     MAX EFFECTIVE GRADIENT =    0.000034    0.000500
     RMS EFFECTIVE GRADIENT =    0.000016    0.000300
     MAX CHANGE OF X =           0.000209    0.002000
     RMS CHANGE OF X =           0.000087    0.001500
 
     MEX OPTIMIZATION HAS CONVERGED.
     BYE, BYE, BUH-BYE.  THANK YOU, AND FLY WITH US AGAIN.

  ==================================
  CONVERGENCE ACHIEVED IN    9 STEPS
  ==================================
  CONVERGED GEOMETRY IN ANGS.

   ATOM   CHARGE       X              Y              Z
 ------------------------------------------------------------
 N           7.0  -1.0323425362   0.2840378192   0.0000000000
 O           8.0  -0.1207582351  -0.3955355869   0.0000000000
 H           1.0   1.0233541817   0.1366796161   0.0000000000

          INTERNUCLEAR DISTANCES (ANGS.)
          ------------------------------

                1 N          2 O          3 H     

   1 N       0.0000000    1.1370162 *  2.0609715 *
   2 O       1.1370162 *  0.0000000    1.2618424 *
   3 H       2.0609715 *  1.2618424 *  0.0000000  

  * ... LESS THAN  3.000

 THE ORBITALS $VEC1 AND $VEC2 AT THE LAST GEOMETRY WERE PUNCHED.

 IT IS A GOOD IDEA TO USE THEM IN RUNTYP=ENERGY JOBS, AT THE MEX POINT,
 TO BE SURE THE ELECTRONIC STATES REMAIN AS YOU WANTED THEM TO BE,
 TO DOUBLE CHECK ENERGIES, AND TO SEE THE PROPERTIES OF EACH SURFACE.

 .... DONE WITH MINIMUM ENERGY CROSSING POINT SEARCH ....
 STEP CPU TIME =     0.00 TOTAL CPU TIME =       51.1 (    0.9 MIN)
 TOTAL WALL CLOCK TIME=       59.6 SECONDS, CPU UTILIZATION IS  85.79%
               992488  WORDS OF DYNAMIC MEMORY USED
 EXECUTION OF GAMESS TERMINATED NORMALLY Mon Nov 28 22:15:04 2016
 DDI: 263640 bytes (0.3 MB / 0 MWords) used by master data server.

 ----------------------------------------
 CPU timing information for all processes
 ========================================
 0: 50.710 + 0.413 = 51.124
 ----------------------------------------
 ddikick.x: exited gracefully.
unset echo
----- accounting info -----
Files used on the master node compute-3-0 were:
-rw-rw-r-- 1 sarom sarom  612128 Nov 29  2016 .//mex-hon.dat
-rw-rw-r-- 1 sarom sarom    2461 Nov 29  2016 .//mex-hon.F05
-rw-rw-r-- 1 sarom sarom 1260112 Nov 29  2016 .//mex-hon.F08
-rw-rw-r-- 1 sarom sarom 2028640 Nov 29  2016 .//mex-hon.F10
-rw-rw-r-- 1 sarom sarom 1068312 Nov 29  2016 .//mex-hon.F22
-rw-rw-r-- 1 sarom sarom    2461 Nov 28 17:27 .//mex-hon.inp
-rw-rw-r-- 1 sarom sarom  188882 Nov 29  2016 .//mex-hon.log
Mon Nov 28 22:15:07 CST 2016
0.192u 0.515s 1:03.38 1.1%	0+0k 0+136io 0pf+0w
