-catch_rsh /opt/gridengine/default/spool/compute-0-2/active_jobs/23687.1/pe_hostfile
compute-0-2
The primary node assigned by SGE to this run is compute-0-2
Warning: no access to tty (Bad file descriptor).
Thus no job control in this shell.
Deleting shmid=3964928.
Deleting shmid=3997697.
Deleting shmid=4227074.
source /home/sarom/gamess.github.2017-05-31.14.06/install.info
setenv GMS_PATH /home/sarom/gamess.github.2017-05-31.14.06
setenv GMS_BUILD_DIR /home/sarom/gamess.github.2017-05-31.14.06
setenv GMS_TARGET linux64
setenv GMS_FORTRAN gfortran
setenv GMS_GFORTRAN_VERNO 4.4
setenv GMS_MATHLIB mkl-so
setenv GMS_MATHLIB_PATH /share/apps/intel/compilers_and_libraries_2017.1.132/linux/mkl/lib/intel64
setenv GMS_MKL_VERNO 12
setenv GMS_DDI_COMM sockets
setenv GMS_LIBCCHEM false
setenv GMS_EIGEN_PATH
setenv GMS_PHI false
setenv GMS_SHMTYPE sysv
setenv GMS_OPENMP false
unset echo
opt-n8
tests/pes
----- GAMESS execution script 'rungms' -----
This job is running on host compute-0-2.local
under operating system Linux at Fri Jun 2 02:08:57 CDT 2017
Available scratch disk space (Kbyte units) at beginning of the job is
Filesystem           1K-blocks      Used Available Use% Mounted on
/dev/sda1             16126920   3867312  11440408  26% /
GAMESS temporary binary files will be written to /scratch
GAMESS supplementary output files will be written to /home/sarom/restart
Copying input file opt-n8.inp to your run's scratch directory...
cp tests/pes/opt-n8.inp /scratch/opt-n8.F05
unset echo
The generated host list is
compute-0-2.local
/home/sarom/gamess.github.2017-05-31.14.06/ddikick.x /home/sarom/gamess.github.2017-05-31.14.06/gamess.00.x opt-n8 -ddi 1 1 compute-0-2.local -scr /scratch

 Distributed Data Interface kickoff program.
 Initiating 1 compute processes on 1 nodes to run the following command:
 /home/sarom/gamess.github.2017-05-31.14.06/gamess.00.x opt-n8 

          ******************************************************
          *         GAMESS VERSION = 20 APR 2017 (R1)          *
          *             FROM IOWA STATE UNIVERSITY             *
          * M.W.SCHMIDT, K.K.BALDRIDGE, J.A.BOATZ, S.T.ELBERT, *
          *   M.S.GORDON, J.H.JENSEN, S.KOSEKI, N.MATSUNAGA,   *
          *          K.A.NGUYEN, S.J.SU, T.L.WINDUS,           *
          *       TOGETHER WITH M.DUPUIS, J.A.MONTGOMERY       *
          *         J.COMPUT.CHEM.  14, 1347-1363(1993)        *
          **************** 64 BIT LINUX VERSION ****************

  SINCE 1993, STUDENTS AND POSTDOCS WORKING AT IOWA STATE UNIVERSITY
  AND ALSO IN THEIR VARIOUS JOBS AFTER LEAVING ISU HAVE MADE IMPORTANT
  CONTRIBUTIONS TO THE CODE:
     IVANA ADAMOVIC, CHRISTINE AIKENS, YURI ALEXEEV, POOJA ARORA,
     ANDREY ASADCHEV, ROB BELL, PRADIPTA BANDYOPADHYAY, JONATHAN BENTZ,
     BRETT BODE, KURT BRORSEN, CALEB CARLIN, GALINA CHABAN, WEI CHEN,
     CHEOL HO CHOI, PAUL DAY, ALBERT DEFUSCO, NUWAN DESILVA, TIM DUDLEY,
     DMITRI FEDOROV, GRAHAM FLETCHER, MARK FREITAG, KURT GLAESEMANN,
     DAN KEMP, GRANT MERRILL, NORIYUKI MINEZAWA, JONATHAN MULLIN,
     TAKESHI NAGATA, SEAN NEDD, HEATHER NETZLOFF, BOSILJKA NJEGIC, RYAN OLSON,
     MIKE PAK, SPENCER PRUITT, LUKE ROSKOP, JIM SHOEMAKER, LYUDMILA SLIPCHENKO,
     TONY SMITH, SAROM SOK LEANG, JIE SONG, TETSUYA TAKETSUGU, SIMON WEBB,
     PENG XU, SOOHAENG YOO, FEDERICO ZAHARIEV

  ADDITIONAL CODE HAS BEEN PROVIDED BY COLLABORATORS IN OTHER GROUPS:
     IOWA STATE UNIVERSITY:
          JOE IVANIC, AARON WEST, LAIMUTIS BYTAUTAS, KLAUS RUEDENBERG
     UNIVERSITY OF TOKYO: KIMIHIKO HIRAO, TAKAHITO NAKAJIMA,
          TAKAO TSUNEDA, MUNEAKI KAMIYA, SUSUMU YANAGISAWA,
          KIYOSHI YAGI, MAHITO CHIBA, SEIKEN TOKURA, NAOAKI KAWAKAMI
     UNIVERSITY OF AARHUS: FRANK JENSEN
     UNIVERSITY OF IOWA: VISVALDAS KAIRYS, HUI LI
     NATIONAL INST. OF STANDARDS AND TECHNOLOGY: WALT STEVENS, DAVID GARMER
     UNIVERSITY OF PISA: BENEDETTA MENNUCCI, JACOPO TOMASI
     UNIVERSITY OF MEMPHIS: HENRY KURTZ, PRAKASHAN KORAMBATH
     UNIVERSITY OF ALBERTA: TOBY ZENG, MARIUSZ KLOBUKOWSKI
     UNIVERSITY OF NEW ENGLAND: MARK SPACKMAN
     MIE UNIVERSITY: HIROAKI UMEDA
     NAT. INST. OF ADVANCED INDUSTRIAL SCIENCE AND TECHNOLOGY: KAZUO KITAURA
     MICHIGAN STATE UNIVERSITY:
          KAROL KOWALSKI, MARTA WLOCH, JEFFREY GOUR, JESSE LUTZ,
          WEI LI, PIOTR PIECUCH
     UNIVERSITY OF SILESIA: MONIKA MUSIAL, STANISLAW KUCHARSKI
     FACULTES UNIVERSITAIRES NOTRE-DAME DE LA PAIX:
          OLIVIER QUINET, BENOIT CHAMPAGNE
     UNIVERSITY OF CALIFORNIA - SANTA BARBARA: BERNARD KIRTMAN
     INSTITUTE FOR MOLECULAR SCIENCE:
          KAZUYA ISHIMURA, MICHIO KATOUDA, AND SHIGERU NAGASE
     UNIVERSITY OF NOTRE DAME: ANNA POMOGAEVA, DAN CHIPMAN
     KYUSHU UNIVERSITY:
          HARUYUKI NAKANO,
          FENG LONG GU, JACEK KORCHOWIEC, MARCIN MAKOWSKI, AND YURIKO AOKI,
          HIROTOSHI MORI AND EISAKU MIYOSHI
     PENNSYLVANIA STATE UNIVERSITY:
          TZVETELIN IORDANOV, CHET SWALINA, JONATHAN SKONE,
          SHARON HAMMES-SCHIFFER
     WASEDA UNIVERSITY:
          MASATO KOBAYASHI, TOMOKO AKAMA, TSUGUKI TOUMA,
          TAKESHI YOSHIKAWA, YASUHIRO IKABATA, JUNJI SEINO,
          YUYA NAKAJIMA, HIROMI NAKAI
     NANJING UNIVERSITY: SHUHUA LI
     UNIVERSITY OF NEBRASKA:
          PEIFENG SU, DEJUN SI, NANDUN THELLAMUREGE, YALI WANG, HUI LI
     UNIVERSITY OF ZURICH: ROBERTO PEVERATI, KIM BALDRIDGE
     N. COPERNICUS UNIVERSITY AND JACKSON STATE UNIVERSITY:
          MARIA BARYSZ
     UNIVERSITY OF COPENHAGEN: Jimmy Kromann, CASPER STEINMANN
     TOKYO INSTITUTE OF TECHNOLOGY: HIROYA NAKATA
     NAGOYA UNIVERSITY: YOSHIO NISHIMOTO, STEPHAN IRLE
     MOSCOW STATE UNIVERSITY: VLADIMIR MIRONOV

 EXECUTION OF GAMESS BEGUN Fri Jun  2 02:08:57 2017

            ECHO OF THE FIRST FEW INPUT CARDS -
 INPUT CARD>!  An example showing a constraint applied in an optimization.                  
 INPUT CARD>!  SCF convergence is difficult due to the long bond constraint,                
 INPUT CARD>!  so damping is turned on.                                                     
 INPUT CARD>!                                                                               
 INPUT CARD>!  See "cubic fuels"                                                            
 INPUT CARD>!  M.W.Schmidt, M.S.Gordon Int.J.Quantum Chem. 76, 434(2000)                    
 INPUT CARD>!  and "an ab initio study of potential surface for N8 isomers"                 
 INPUT CARD>!  G.Chung, M.W.Schmidt, M.S.Gordon  J.Phys.Chem.A 104, 5647(2000)              
 INPUT CARD>!                                                                               
 INPUT CARD>!     NSERCH:   0  E=      -47.2530320460  R.M.S.=  0.0072888                   
 INPUT CARD>!     NSERCH:   1  E=      -47.2541762011  R.M.S.=  0.0028672                   
 INPUT CARD>!     NSERCH:   2  E=      -47.2544253809  R.M.S.=  0.0006111                   
 INPUT CARD>!         ...snipped...                                                         
 INPUT CARD>!     NSERCH:  57  E=      -47.4339282853  R.M.S.=  0.0000579                   
 INPUT CARD>!     NSERCH:  58  E=      -47.4339284421  R.M.S.=  0.0000245                   
 INPUT CARD>!                                                                               
 INPUT CARD>!  This run takes a second on almost anything ( 9 Nov 2005)                     
 INPUT CARD>!  results scarcely changed since 2005.                                         
 INPUT CARD>!                                                                               
 INPUT CARD> $contrl scftyp=rhf runtyp=optimize nzvar=18 $end                               
 INPUT CARD> $basis  gbasis=pm3 $end                                                        
 INPUT CARD> $guess  guess=huckel $end                                                      
 INPUT CARD> $scf    damp=.t. $end                                                          
 INPUT CARD> $zmat   dlc=.t. auto=.t. ifzmat(1)=1,3,4 fvalue(1)=2.5 nonvdw(1)=3,4 $end      
 INPUT CARD> $statpt nstep=200 $end                                                         
 INPUT CARD> $data                                                                          
 INPUT CARD>on PES for ring opening of azidopentazole towards diazidodiimide                
 INPUT CARD>C1                                                                              
 INPUT CARD>N           7.0  -1.8781488374  -0.0000204354  -0.0000013764                    
 INPUT CARD>N           7.0   1.8781486678  -0.0000204481   0.0000013769                    
 INPUT CARD>N           7.0  -0.0000000792  -1.1499811621   0.0000000000                    
 INPUT CARD>N           7.0  -0.0000000703   1.1500188379  -0.0000000001                    
 INPUT CARD>N           7.0   1.2589965060  -1.1581244039   0.0000111309                    
 INPUT CARD>N           7.0  -1.2589834253   1.1581259764   0.0000131845                    
 INPUT CARD>N           7.0  -1.2589963551  -1.1581243664  -0.0000111309                    
 INPUT CARD>N           7.0   1.2589835934   1.1581260016  -0.0000131848                    
 INPUT CARD> $end                                                                           
 INPUT CARD>                                                                                
    1000000 WORDS OF MEMORY AVAILABLE

     BASIS OPTIONS
     -------------
     GBASIS=PM3          IGAUSS=       0      POLAR=NONE    
     NDFUNC=       0     NFFUNC=       0     DIFFSP=       F
     NPFUNC=       0      DIFFS=       F     BASNAM=        


     RUN TITLE
     ---------
 on PES for ring opening of azidopentazole towards diazidodiimide                

 THE POINT GROUP OF THE MOLECULE IS C1      
 THE ORDER OF THE PRINCIPAL AXIS IS     0

 ATOM      ATOMIC                      COORDINATES (BOHR)
           CHARGE         X                   Y                   Z
 N           7.0    -3.5491866668       -0.0000386173       -0.0000026010
 N           7.0     3.5491863463       -0.0000386413        0.0000026020
 N           7.0    -0.0000001497       -2.1731492874        0.0000000000
 N           7.0    -0.0000001328        2.1732204843       -0.0000000002
 N           7.0     2.3791584158       -2.1885377831        0.0000210344
 N           7.0    -2.3791336969        2.1885407547        0.0000249151
 N           7.0    -2.3791581307       -2.1885377122       -0.0000210344
 N           7.0     2.3791340146        2.1885408023       -0.0000249157

          INTERNUCLEAR DISTANCES (ANGS.)
          ------------------------------

                1 N          2 N          3 N          4 N          5 N     

   1 N       0.0000000    3.7562975    2.2022381 *  2.2022791 *  3.3440822  
   2 N       3.7562975    0.0000000    2.2022380 *  2.2022791 *  1.3132228 *
   3 N       2.2022381 *  2.2022380 *  0.0000000    2.3000000 *  1.2590229 *
   4 N       2.2022791 *  2.2022791 *  2.3000000 *  0.0000000    2.6291819 *
   5 N       3.3440822    1.3132228 *  1.2590229 *  2.6291819 *  0.0000000  
   6 N       1.3132665 *  3.3440845    2.6291439 *  1.2590095 *  3.4212920  
   7 N       1.3132229 *  3.3440819    1.2590226 *  2.6291818 *  2.5179929 *
   8 N       3.3440848    1.3132664 *  2.6291441 *  1.2590098 *  2.3162504 *

                6 N          7 N          8 N     

   1 N       1.3132665 *  1.3132229 *  3.3440848  
   2 N       3.3440845    3.3440819    1.3132664 *
   3 N       2.6291439 *  1.2590226 *  2.6291441 *
   4 N       1.2590095 *  2.6291818 *  1.2590098 *
   5 N       3.4212920    2.5179929 *  2.3162504 *
   6 N       0.0000000    2.3162503 *  2.5179670 *
   7 N       2.3162503 *  0.0000000    3.4212920  
   8 N       2.5179670 *  3.4212920    0.0000000  

  * ... LESS THAN  3.000


 TOTAL NUMBER OF BASIS SET SHELLS             =    8
 NUMBER OF CARTESIAN GAUSSIAN BASIS FUNCTIONS =   32
 NUMBER OF ELECTRONS                          =   40
 CHARGE OF MOLECULE                           =    0
 SPIN MULTIPLICITY                            =    1
 NUMBER OF OCCUPIED ORBITALS (ALPHA)          =   20
 NUMBER OF OCCUPIED ORBITALS (BETA )          =   20
 TOTAL NUMBER OF ATOMS                        =    8
 THE NUCLEAR REPULSION ENERGY IS      355.2408326324

 THE PARAMETERS USED IN THIS CALCULATION ARE DESCRIBED IN:

  N: (PM3): J. J. P. STEWART, J. COMP. CHEM.     10, 209 (1989).                

 THERE ARE    8 HEAVY AND    0 LIGHT ATOMS,
 YIELDING A TOTAL OF      2800 MOPAC 2E- INTEGRALS.

     $CONTRL OPTIONS
     ---------------
 SCFTYP=RHF          RUNTYP=OPTIMIZE     EXETYP=RUN     
 MPLEVL=       0     CITYP =NONE         CCTYP =NONE         VBTYP =NONE    
 DFTTYP=NONE         TDDFT =NONE    
 MULT  =       1     ICHARG=       0     NZVAR =      18     COORD =UNIQUE  
 PP    =NONE         RELWFN=NONE         LOCAL =NONE         NUMGRD=       F
 ISPHER=      -1     NOSYM =       0     MAXIT =      30     UNITS =ANGS    
 PLTORB=       F     MOLPLT=       F     AIMPAC=       F     FRIEND=        
 NPRINT=       7     IREST =       0     GEOM  =INPUT   
 NORMF =       0     NORMP =       0     ITOL  =      20     ICUT  =       9
 INTTYP=BEST         GRDTYP=BEST         QMTTOL= 1.0E-06

     $SYSTEM OPTIONS
     ---------------
  REPLICATED MEMORY=     1000000 WORDS (ON EVERY NODE).
 DISTRIBUTED MEMDDI=           0 MILLION WORDS IN AGGREGATE,
 MEMDDI DISTRIBUTED OVER   1 PROCESSORS IS           0 WORDS/PROCESSOR.
 TOTAL MEMORY REQUESTED ON EACH PROCESSOR=     1000000 WORDS.
 TIMLIM=      525600.00 MINUTES, OR     365.0 DAYS.
 PARALL= F  BALTYP=  DLB     KDIAG=    0  COREFL= F
 MXSEQ2=     300 MXSEQ3=     150  mem10=         0

          ----------------
          PROPERTIES INPUT
          ----------------

     MOMENTS            FIELD           POTENTIAL          DENSITY
 IEMOM =       1   IEFLD =       0   IEPOT =       0   IEDEN =       0
 WHERE =COMASS     WHERE =NUCLEI     WHERE =NUCLEI     WHERE =NUCLEI  
 OUTPUT=BOTH       OUTPUT=BOTH       OUTPUT=BOTH       OUTPUT=BOTH    
 IEMINT=       0   IEFINT=       0                     IEDINT=       0
                                                       MORB  =       0
          EXTRAPOLATION IN EFFECT
          DAMPING IN EFFECT
 ORBITAL PRINTING OPTION: NPREO=     1    32     2     1

     -------------------------------
     INTEGRAL TRANSFORMATION OPTIONS
     -------------------------------
     NWORD  =            0
     CUTOFF = 1.0E-09     MPTRAN =       0
     DIRTRF =       F     AOINTS =DUP     

          ----------------------
          INTEGRAL INPUT OPTIONS
          ----------------------
 NOPK  =       1 NORDER=       0 SCHWRZ=       T


 -----------------------------------------------
  STATISTICS ON AUTOMATIC COORDINATE GENERATION 
 -----------------------------------------------
  NUMBER OF USER SPECIFIED BONDS                             1
  NUMBER OF BONDS                                            9
  NUMBER OF ANGLES                                          12
  NUMBER OF TORSIONS                                        16
  NUMBER OF EXTRA COORD.                                     0
  NUMBER OF EXTRA COORD. FOR CONSTRAINTS                     0
  NUMBER OF CONSTRAINED COORD.                               1

  TOTAL NUMBER OF PRIMITIVES                                37
 -----------------------------------------------

   --- ENCODED Z MATRIX ---
 COORD  TYPE   I   J   K   L   M   N
    1      1    3   4
    2      1    1   7
    3      1    1   6
    4      1    2   5
    5      1    2   8
    6      1    3   7
    7      1    3   5
    8      1    4   8
    9      1    4   6
   10      2    1   6   4
   11      2    1   7   3
   12      2    2   5   3
   13      2    2   8   4
   14      2    3   4   8
   15      2    3   4   6
   16      2    4   3   5
   17      2    4   3   7
   18      2    5   3   7
   19      2    5   2   8
   20      2    6   4   8
   21      2    6   1   7
   22      3    1   6   4   8
   23      3    1   7   3   4
   24      3    1   7   3   5
   25      3    1   6   4   3
   26      3    2   8   4   6
   27      3    2   8   4   3
   28      3    2   5   3   4
   29      3    2   5   3   7
   30      3    3   5   2   8
   31      3    3   7   1   6
   32      3    4   6   1   7
   33      3    4   8   2   5
   34      3    5   3   4   8
   35      3    5   3   4   6
   36      3    6   4   3   7
   37      3    7   3   4   8

          INDEP./SYM. INTERNAL COORDINATES
          --------------------------------
 CRD  1=   1.0000 (  1)
 CRD  2=  -0.1644 (  2)  0.1644 (  3)  0.1644 (  4) -0.1644 (  5)  0.3245 ( 10)
          -0.3245 ( 11)  0.3245 ( 12) -0.3245 ( 13)  0.3394 ( 14) -0.3394 ( 15)
          -0.3394 ( 16)  0.3394 ( 17)
 CRD  3=   0.1734 (  2) -0.1734 (  3)  0.1734 (  4) -0.1734 (  5)  0.3880 (  6)
           0.3880 (  7) -0.3880 (  8) -0.3880 (  9)  0.1468 ( 14)  0.1468 ( 15)
          -0.1468 ( 16) -0.1468 ( 17)  0.2935 ( 18) -0.2935 ( 20)
 CRD  4=  -0.2802 (  2) -0.2802 (  3) -0.2802 (  4) -0.2802 (  5) -0.1583 (  6)
          -0.1583 (  7) -0.1583 (  8) -0.1583 (  9)  0.2458 ( 10)  0.2458 ( 11)
           0.2458 ( 12)  0.2458 ( 13) -0.1504 ( 14) -0.1504 ( 15) -0.1504 ( 16)
          -0.1504 ( 17)  0.3007 ( 18) -0.1909 ( 19)  0.3007 ( 20) -0.1909 ( 21)
 CRD  5=  -0.1003 (  2) -0.1004 (  3)  0.1003 (  4)  0.1004 (  5)  0.1311 (  6)
          -0.1311 (  7) -0.1311 (  8)  0.1311 (  9)  0.3446 ( 10)  0.3446 ( 11)
          -0.3446 ( 12) -0.3446 ( 13)  0.1388 ( 14) -0.1388 ( 15)  0.1388 ( 16)
          -0.1388 ( 17)  0.4117 ( 19) -0.4117 ( 21)
 CRD  6=   0.4319 (  2)  0.4319 (  3) -0.4319 (  4) -0.4319 (  5)  0.1780 (  6)
          -0.1780 (  7) -0.1780 (  8)  0.1780 (  9) -0.1115 ( 14)  0.1115 ( 15)
          -0.1115 ( 16)  0.1115 ( 17)  0.1955 ( 19) -0.1955 ( 21)
 CRD  7=  -0.2651 (  2)  0.2651 (  3) -0.2651 (  4)  0.2651 (  5)  0.2546 (  6)
           0.2546 (  7) -0.2546 (  8) -0.2546 (  9)  0.2112 ( 10) -0.2112 ( 11)
          -0.2112 ( 12)  0.2112 ( 13) -0.1531 ( 14) -0.1531 ( 15)  0.1531 ( 16)
           0.1531 ( 17) -0.3061 ( 18)  0.3061 ( 20)
 CRD  8=   0.2496 ( 22)  0.2496 ( 23)  0.2496 ( 24)  0.2496 ( 25)  0.2496 ( 26)
           0.2496 ( 27)  0.2496 ( 28)  0.2496 ( 29) -0.1733 ( 30) -0.1733 ( 31)
          -0.1733 ( 32) -0.1733 ( 33) -0.3089 ( 34) -0.3089 ( 35) -0.3089 ( 36)
          -0.3089 ( 37)
 CRD  9=  -0.3225 (  2) -0.3224 (  3) -0.3225 (  4) -0.3224 (  5)  0.2544 (  6)
           0.2544 (  7)  0.2544 (  8)  0.2544 (  9) -0.1360 ( 10) -0.1360 ( 11)
          -0.1360 ( 12) -0.1360 ( 13)  0.3435 ( 19)  0.3435 ( 21)
 CRD 10=   0.3958 (  2) -0.3958 (  3) -0.3958 (  4)  0.3958 (  5)  0.2458 (  6)
          -0.2458 (  7)  0.2458 (  8) -0.2458 (  9)  0.1806 ( 10) -0.1806 ( 11)
           0.1806 ( 12) -0.1806 ( 13)
 CRD 11=   0.2132 ( 23) -0.2132 ( 25)  0.2132 ( 27) -0.2132 ( 28)  0.4522 ( 30)
          -0.4522 ( 31)  0.4522 ( 32) -0.4522 ( 33)
 CRD 12=   0.1415 (  2)  0.1415 (  3) -0.1415 (  4) -0.1415 (  5) -0.4485 (  6)
           0.4485 (  7)  0.4485 (  8) -0.4485 (  9)  0.1991 ( 19) -0.1991 ( 21)
 CRD 13=  -0.3773 (  2)  0.3773 (  3) -0.3773 (  4)  0.3773 (  5) -0.2068 ( 10)
           0.2069 ( 11)  0.2069 ( 12) -0.2068 ( 13)  0.1452 ( 14)  0.1452 ( 15)
          -0.1452 ( 16) -0.1452 ( 17)  0.2903 ( 18) -0.2903 ( 20)
 CRD 14=   0.2472 (  2) -0.2472 (  3) -0.2472 (  4)  0.2472 (  5) -0.4047 (  6)
           0.4047 (  7) -0.4047 (  8)  0.4047 (  9)  0.1567 ( 14) -0.1567 ( 15)
          -0.1567 ( 16)  0.1567 ( 17)
 CRD 15=  -0.4003 (  6) -0.4003 (  7) -0.4003 (  8) -0.4003 (  9) -0.1837 ( 10)
          -0.1838 ( 11) -0.1838 ( 12) -0.1837 ( 13)  0.2922 ( 19)  0.2922 ( 21)
 CRD 16=   0.1961 ( 22) -0.1961 ( 23) -0.1961 ( 24)  0.1961 ( 25)  0.1961 ( 26)
           0.1961 ( 27) -0.1961 ( 28) -0.1961 ( 29)  0.4160 ( 30)  0.4160 ( 31)
          -0.4160 ( 32) -0.4160 ( 33)
 CRD 17=  -0.7070 ( 24)  0.7070 ( 29)
 CRD 18=   0.7070 ( 22) -0.7070 ( 26)

 THE DETERMINANT OF THE G MATRIX IS 10**(    -9)


                     --------------------
                     INTERNAL COORDINATES
                     --------------------

                 - - ATOMS - -         COORDINATE      COORDINATE
 NO.   TYPE    I  J  K  L  M  N        (BOHR,RAD)       (ANG,DEG)
 ----------------------------------------------------------------
   1 STRETCH   3  4                     4.3463698       2.3000000
   2 STRETCH   1  7                     2.4816315       1.3132229
   3 STRETCH   1  6                     2.4817138       1.3132665
   4 STRETCH   2  5                     2.4816313       1.3132228
   5 STRETCH   2  8                     2.4817136       1.3132664
   6 STRETCH   3  7                     2.3792077       1.2590226
   7 STRETCH   3  5                     2.3792083       1.2590229
   8 STRETCH   4  8                     2.3791835       1.2590098
   9 STRETCH   4  6                     2.3791829       1.2590095
  10 BEND      1  6  4                  2.0553136     117.7607954
  11 BEND      1  7  3                  2.0552916     117.7595342
  12 BEND      2  5  3                  2.0552913     117.7595198
  13 BEND      2  8  4                  2.0553133     117.7607805
  14 BEND      3  4  8                  1.5772357      90.3689485
  15 BEND      3  4  6                  1.5772357      90.3689470
  16 BEND      4  3  5                  1.5772643      90.3705861
  17 BEND      4  3  7                  1.5772643      90.3705849
  18 BEND      5  3  7                  3.1286568     179.2588290
  19 BEND      5  2  8                  2.1596733     123.7401651
  20 BEND      6  4  8                  3.1287139     179.2621045
  21 BEND      6  1  7                  2.1596728     123.7401385
  22 TORSION   1  6  4  8               3.1415745     179.9989621
  23 TORSION   1  7  3  4              -0.0000131      -0.0007508
  24 TORSION   1  7  3  5               3.1415795     179.9992438
  25 TORSION   1  6  4  3              -0.0000181      -0.0010376
  26 TORSION   2  8  4  6               3.1415745     179.9989627
  27 TORSION   2  8  4  3              -0.0000181      -0.0010376
  28 TORSION   2  5  3  4              -0.0000131      -0.0007508
  29 TORSION   2  5  3  7               3.1415795     179.9992438
  30 TORSION   3  5  2  8               0.0000055       0.0003167
  31 TORSION   3  7  1  6               0.0000055       0.0003168
  32 TORSION   4  6  1  7               0.0000161       0.0009250
  33 TORSION   4  8  2  5               0.0000161       0.0009250
  34 TORSION   5  3  4  8               0.0000193       0.0011066
  35 TORSION   5  3  4  6              -3.1415733    -179.9988934
  36 TORSION   6  4  3  7               0.0000193       0.0011066
  37 TORSION   7  3  4  8              -3.1415733    -179.9988934

     ------------------------------------------
     THE POINT GROUP IS C1 , NAXIS= 0, ORDER= 1
     ------------------------------------------

     DIMENSIONS OF THE SYMMETRY SUBSPACES ARE
 A   =   32

 ..... DONE SETTING UP THE RUN .....
 STEP CPU TIME =     0.00 TOTAL CPU TIME =        0.0 (    0.0 MIN)
 TOTAL WALL CLOCK TIME=        0.0 SECONDS, CPU UTILIZATION IS   0.00%


          -----------------------------
          STATIONARY POINT LOCATION RUN
          -----------------------------


           ** GEOMETRY CONSTRAINTS ARE BEING APPLIED. **

          TRANSFORMING DISPLACEMENT FROM INTERNALS TO CARTESIANS
          THE ROOT MEAN SQUARE ERROR IN ITERATION   1 IS   0.08963884
          THE ROOT MEAN SQUARE ERROR IN ITERATION   2 IS   0.00177703
          THE ROOT MEAN SQUARE ERROR IN ITERATION   3 IS   0.00000013
          THE ROOT MEAN SQUARE ERROR IN ITERATION   4 IS   0.00000000
 WARNING! THE RADIUS IN CARTESIANS IS    0.28375
 OBTAINING INITIAL HESSIAN, HESS=GUESS   
 DIAGONAL GUESS HESSIAN IN INTERNAL COORDS IS
     1  0.0424     2  0.4258     3  0.4258     4  0.4258     5  0.4258
     6  0.4736     7  0.4736     8  0.4737     9  0.4737    10  0.2503
    11  0.2503    12  0.2503    13  0.2503    14  0.1847    15  0.1847
    16  0.1847    17  0.1847    18  0.2542    19  0.2464    20  0.2542
    21  0.2464    22  0.2500    23  0.2500    24  0.2500    25  0.2500
    26  0.2500    27  0.2500    28  0.2500    29  0.2500    30  0.2500
    31  0.2500    32  0.2500    33  0.2500    34  0.2500    35  0.2500
    36  0.2500    37  0.2500
 TRANSFORMING HESSIAN TO SYMMETRY COORDINATES

          PARAMETERS CONTROLLING GEOMETRY SEARCH ARE
          METHOD =QA                  UPHESS =BFGS    
          NNEG   =         0          NFRZ   =         0
          NSTEP  =       200          IFOLOW =         1
          HESS   =GUESS               RESTAR =         F
          IHREP  =         0          HSSEND =         F
          NPRT   =         0          NPUN   =         0
          OPTTOL = 1.000E-04          RMIN   = 1.500E-03
          RMAX   = 1.000E-01          RLIM   = 7.000E-02
          DXMAX  = 3.000E-01          PURIFY =         F
          MOVIE  =         F          TRUPD  =         T
          TRMAX  = 5.000E-01          TRMIN  = 5.000E-02
          ITBMAT =         5          STPT   =         F
          STSTEP = 1.000E-02          PROJCT=          T

 BEGINNING GEOMETRY SEARCH POINT NSERCH=   0 ...

 COORDINATES OF ALL ATOMS ARE (ANGS)
   ATOM   CHARGE       X              Y              Z
 ------------------------------------------------------------
 N           7.0  -1.8491106459   0.0001439586  -0.0000013174
 N           7.0   1.8491104794   0.0001439461   0.0000013182
 N           7.0  -0.0000000807  -1.2503461621  -0.0000000001
 N           7.0  -0.0000000711   1.2496538379  -0.0000000005
 N           7.0   1.2566849348  -1.1724927414   0.0000110868
 N           7.0  -1.2565759263   1.1726949318   0.0000130803
 N           7.0  -1.2566847846  -1.1724927160  -0.0000110869
 N           7.0   1.2565760943   1.1726949451  -0.0000130804


                     --------------------
                     INTERNAL COORDINATES
                     --------------------

                 - - ATOMS - -         COORDINATE      COORDINATE
 NO.   TYPE    I  J  K  L  M  N        (BOHR,RAD)       (ANG,DEG)
 ----------------------------------------------------------------
   1 STRETCH   3  4                     4.7243150       2.5000000
   2 STRETCH   1  7                     2.4827038       1.3137904
   3 STRETCH   1  6                     2.4826521       1.3137630
   4 STRETCH   2  5                     2.4827036       1.3137903
   5 STRETCH   2  8                     2.4826518       1.3137629
   6 STRETCH   3  7                     2.3793426       1.2590940
   7 STRETCH   3  5                     2.3793432       1.2590943
   8 STRETCH   4  8                     2.3790339       1.2589306
   9 STRETCH   4  6                     2.3790333       1.2589303
  10 BEND      1  6  4                  2.0998738     120.3139090
  11 BEND      1  7  3                  2.1004743     120.3483138
  12 BEND      2  5  3                  2.1004741     120.3482992
  13 BEND      2  8  4                  2.0998736     120.3138940
  14 BEND      3  4  8                  1.5096278      86.4953030
  15 BEND      3  4  6                  1.5096278      86.4953011
  16 BEND      4  3  5                  1.5089240      86.4549755
  17 BEND      4  3  7                  1.5089239      86.4549739
  18 BEND      5  3  7                  3.0178479     172.9099494
  19 BEND      5  2  8                  2.2058785     126.3875283
  20 BEND      6  4  8                  3.0192556     172.9906041
  21 BEND      6  1  7                  2.2058780     126.3875022
  22 TORSION   1  6  4  8              -0.0000181      -0.0010393
  23 TORSION   1  7  3  4              -0.0000132      -0.0007578
  24 TORSION   1  7  3  5              -0.0000132      -0.0007578
  25 TORSION   1  6  4  3              -0.0000181      -0.0010390
  26 TORSION   2  8  4  6              -0.0000181      -0.0010387
  27 TORSION   2  8  4  3              -0.0000181      -0.0010390
  28 TORSION   2  5  3  4              -0.0000132      -0.0007578
  29 TORSION   2  5  3  7              -0.0000132      -0.0007578
  30 TORSION   3  5  2  8               0.0000064       0.0003680
  31 TORSION   3  7  1  6               0.0000064       0.0003681
  32 TORSION   4  6  1  7               0.0000173       0.0009902
  33 TORSION   4  8  2  5               0.0000173       0.0009903
  34 TORSION   5  3  4  8               0.0000192       0.0011019
  35 TORSION   5  3  4  6              -3.1415734    -179.9988981
  36 TORSION   6  4  3  7               0.0000192       0.0011019
  37 TORSION   7  3  4  8              -3.1415734    -179.9988981

          ********************
          1 ELECTRON INTEGRALS
          ********************

          **************************
          1 AND 2 ELECTRON INTEGRALS
          **************************

 MOPAC ONE- AND TWO-ELECTRON INTEGRALS REQUIRE      3856 WORDS.
 ...... END OF ONE- AND TWO-ELECTRON INTEGRALS......
 STEP CPU TIME =     0.00 TOTAL CPU TIME =        0.0 (    0.0 MIN)
 TOTAL WALL CLOCK TIME=        0.0 SECONDS, CPU UTILIZATION IS   0.00%
 ...... END OF ONE-ELECTRON INTEGRALS ......
 STEP CPU TIME =     0.00 TOTAL CPU TIME =        0.0 (    0.0 MIN)
 TOTAL WALL CLOCK TIME=        0.0 SECONDS, CPU UTILIZATION IS   0.00%

          -------------
          GUESS OPTIONS
          -------------
          GUESS =HUCKEL            NORB  =       0          NORDER=       0
          MIX   =       F          PRTMO =       F          PUNMO =       F
          TOLZ  = 1.0E-08          TOLE  = 1.0E-05
          SYMDEN=       F          PURIFY=       F

 INITIAL GUESS ORBITALS GENERATED BY HUCKEL   ROUTINE.

 SYMMETRIES FOR INITIAL GUESS ORBITALS FOLLOW.   BOTH SET(S).
    20 ORBITALS ARE OCCUPIED (    0 CORE ORBITALS).
     1=A        2=A        3=A        4=A        5=A        6=A        7=A   
     8=A        9=A       10=A       11=A       12=A       13=A       14=A   
    15=A       16=A       17=A       18=A       19=A       20=A       21=A   
    22=A       23=A       24=A       25=A       26=A       27=A       28=A   
    29=A       30=A   
 ...... END OF INITIAL ORBITAL SELECTION ......
 STEP CPU TIME =     0.01 TOTAL CPU TIME =        0.0 (    0.0 MIN)
 TOTAL WALL CLOCK TIME=        0.0 SECONDS, CPU UTILIZATION IS  50.00%

          --------------------------
               R-PM3 SCF CALCULATION
          --------------------------

     NUCLEAR ENERGY =       151.9637508636
     MAXIT =   30     NPUNCH=    2
     EXTRAP=T  DAMP=T  SHIFT=F  RSTRCT=F  DIIS=F  DEM=F  SOSCF=F
     DENSITY MATRIX CONV=  1.00E-05
     MEMORY REQUIRED FOR RHF ITERS=     10544 WORDS.

 ITER EX DEM     TOTAL ENERGY        E CHANGE  DENSITY CHANGE    DIIS ERROR      VIR. SHIFT       DAMPING
   1  0  0      -46.7706348185   -46.7706348185   0.312251625   0.000000000     0.000000000     1.000000000
   2  1  0      -47.2024107971    -0.4317759785   0.038753579   0.000000000     0.000000000     1.000000000
   3  2  0      -47.2286108626    -0.0262000656   0.044303396   0.000000000     0.000000000     0.062500000
   4  3  0      -47.2476127903    -0.0190019277   0.020300179   0.000000000     0.000000000     0.062500000
   5  0  0      -47.2517392449    -0.0041264546   0.021041921   0.000000000     0.000000000     0.003906250
   6  1  0      -47.2530134055    -0.0012741605   0.001113647   0.000000000     0.000000000     0.003906250
   7  2  0      -47.2530283304    -0.0000149250   0.000542933   0.000000000     0.000000000     0.000000000
   8  3  0      -47.2530312748    -0.0000029444   0.000268332   0.000000000     0.000000000     0.000000000
   9  0  0      -47.2530318774    -0.0000006026   0.000231797   0.000000000     0.000000000     0.000000000
  10  1  0      -47.2530320412    -0.0000001638   0.000022712   0.000000000     0.000000000     0.000000000
  11  2  0      -47.2530320436    -0.0000000024   0.000022016   0.000000000     0.000000000     0.000000000
  12  3  0      -47.2530320448    -0.0000000012   0.000019033   0.000000000     0.000000000     0.000000000
  13  4  0      -47.2530320455    -0.0000000007   0.000019113   0.000000000     0.000000000     0.000000000
  14  5  0      -47.2530320460    -0.0000000005   0.000016573   0.000000000     0.000000000     0.000000000

          ----------------
          ENERGY CONVERGED
          ----------------
     TIME TO FORM FOCK OPERATORS=       0.0 SECONDS (       0.0 SEC/ITER)
     TIME TO SOLVE SCF EQUATIONS=       0.0 SECONDS (       0.0 SEC/ITER)

 FINAL R-PM3 ENERGY IS      -47.2530320460 AFTER  14 ITERATIONS

 HEAT OF FORMATION IS       329.25377 KCAL/MOL


          ------------
          EIGENVECTORS
          ------------

                      1          2          3          4          5
                   -1.3182    -1.2112    -1.1854    -1.0576    -1.0017
                     A          A          A          A          A   
    1  N  1  S    0.277133  -0.380592   0.000374  -0.000576   0.426190
    2  N  1  X    0.140486  -0.167405   0.000156  -0.000176   0.102847
    3  N  1  Y    0.000116  -0.000169  -0.117389   0.201047   0.000147
    4  N  1  Z    0.000000  -0.000000  -0.000001   0.000001   0.000001
    5  N  2  S    0.277133   0.380593   0.000374   0.000576   0.426189
    6  N  2  X   -0.140486  -0.167405  -0.000156  -0.000176  -0.102847
    7  N  2  Y    0.000116   0.000169  -0.117389  -0.201047   0.000147
    8  N  2  Z   -0.000000  -0.000000   0.000001   0.000001  -0.000001
    9  N  3  S    0.409973   0.000000   0.512069   0.000000  -0.376032
   10  N  3  X   -0.000000   0.256157  -0.000000   0.383695   0.000000
   11  N  3  Y    0.078220   0.000000   0.024811   0.000000   0.056945
   12  N  3  Z    0.000000   0.000002  -0.000000   0.000003   0.000000
   13  N  4  S    0.411067   0.000000  -0.511402  -0.000000  -0.375881
   14  N  4  X   -0.000000   0.257042   0.000000  -0.383612   0.000000
   15  N  4  Y   -0.078092  -0.000000   0.024272   0.000000  -0.057336
   16  N  4  Z    0.000000  -0.000002  -0.000000   0.000003  -0.000000
   17  N  5  S    0.303579   0.329361   0.296753   0.371293   0.034723
   18  N  5  X   -0.103602  -0.055056  -0.153307  -0.127339   0.211743
   19  N  5  Y    0.106312   0.137362   0.022632   0.048455   0.188392
   20  N  5  Z   -0.000002  -0.000002  -0.000002  -0.000002  -0.000000
   21  N  6  S    0.304165  -0.330053  -0.296139   0.370671   0.034950
   22  N  6  X    0.103885  -0.055324  -0.153191   0.127499  -0.211860
   23  N  6  Y   -0.106402   0.137505   0.022363  -0.048119  -0.188515
   24  N  6  Z   -0.000002   0.000003   0.000002  -0.000003  -0.000000
   25  N  7  S    0.303580  -0.329361   0.296754  -0.371292   0.034723
   26  N  7  X    0.103602  -0.055056   0.153307  -0.127339  -0.211744
   27  N  7  Y    0.106312  -0.137362   0.022632  -0.048455   0.188392
   28  N  7  Z    0.000002  -0.000002   0.000002  -0.000002   0.000000
   29  N  8  S    0.304165   0.330053  -0.296138  -0.370672   0.034950
   30  N  8  X   -0.103885  -0.055324   0.153191   0.127499   0.211860
   31  N  8  Y   -0.106402  -0.137506   0.022363   0.048119  -0.188514
   32  N  8  Z    0.000002   0.000003  -0.000002  -0.000003   0.000000

                      6          7          8          9         10
                   -0.9074    -0.8640    -0.8209    -0.6435    -0.6204
                     A          A          A          A          A   
    1  N  1  S    0.366612  -0.000150  -0.000102  -0.000000   0.123472
    2  N  1  X    0.041446  -0.000031  -0.000038  -0.000000  -0.223058
    3  N  1  Y    0.000240   0.425148   0.405531  -0.000003  -0.000053
    4  N  1  Z    0.000000   0.000005   0.000005   0.296891  -0.000001
    5  N  2  S   -0.366613  -0.000150   0.000102   0.000000   0.123472
    6  N  2  X    0.041446   0.000031  -0.000038  -0.000000   0.223058
    7  N  2  Y   -0.000240   0.425148  -0.405531   0.000003  -0.000053
    8  N  2  Z    0.000000  -0.000005   0.000005   0.296891   0.000001
    9  N  3  S    0.000000   0.227499  -0.000000   0.000000  -0.039386
   10  N  3  X    0.384014   0.000000  -0.274333  -0.000005   0.000000
   11  N  3  Y   -0.000000  -0.089206  -0.000000  -0.000000  -0.401525
   12  N  3  Z    0.000005  -0.000000  -0.000004   0.406247  -0.000000
   13  N  4  S    0.000000  -0.227177   0.000000  -0.000000  -0.040263
   14  N  4  X    0.383835  -0.000000   0.274014   0.000006   0.000000
   15  N  4  Y   -0.000000  -0.089382  -0.000000   0.000000   0.403321
   16  N  4  Z   -0.000005  -0.000000  -0.000006   0.408442  -0.000000
   17  N  5  S    0.095016  -0.207164   0.107375   0.000002   0.214640
   18  N  5  X   -0.270407  -0.219948   0.290353  -0.000001   0.145649
   19  N  5  Y   -0.161512  -0.196335   0.185470   0.000002  -0.260521
   20  N  5  Z   -0.000000   0.000000   0.000000   0.349954   0.000002
   21  N  6  S   -0.094539   0.207125   0.107570   0.000003   0.215567
   22  N  6  X   -0.270568  -0.219907  -0.290279   0.000001  -0.146037
   23  N  6  Y   -0.161556  -0.196194  -0.185221  -0.000003   0.261760
   24  N  6  Z    0.000000  -0.000001  -0.000001   0.351365   0.000001
   25  N  7  S   -0.095016  -0.207164  -0.107376  -0.000002   0.214640
   26  N  7  X   -0.270407   0.219948   0.290353  -0.000001  -0.145649
   27  N  7  Y    0.161511  -0.196335  -0.185470  -0.000002  -0.260521
   28  N  7  Z   -0.000000  -0.000000   0.000000   0.349954  -0.000002
   29  N  8  S    0.094539   0.207125  -0.107569  -0.000003   0.215567
   30  N  8  X   -0.270568   0.219907  -0.290278   0.000001   0.146036
   31  N  8  Y    0.161557  -0.196195   0.185221   0.000003   0.261759
   32  N  8  Z    0.000000   0.000001  -0.000001   0.351365  -0.000001

                     11         12         13         14         15
                   -0.5872    -0.5667    -0.5509    -0.5364    -0.4540
                     A          A          A          A          A   
    1  N  1  S   -0.000001  -0.000337   0.000001  -0.111120  -0.361430
    2  N  1  X    0.000002   0.000672   0.000001   0.405937   0.468746
    3  N  1  Y   -0.000000  -0.026922   0.000008   0.000118  -0.000029
    4  N  1  Z    0.000816  -0.000008  -0.480366   0.000001  -0.000001
    5  N  2  S    0.000001  -0.000337   0.000001   0.111120  -0.361430
    6  N  2  X    0.000002  -0.000672  -0.000001   0.405937  -0.468746
    7  N  2  Y    0.000000  -0.026922   0.000008  -0.000118  -0.000029
    8  N  2  Z    0.000816   0.000008   0.480366   0.000001   0.000001
    9  N  3  S    0.000000   0.094595  -0.000001  -0.000000  -0.204216
   10  N  3  X   -0.000006   0.000000   0.000000  -0.034686   0.000000
   11  N  3  Y   -0.000000   0.439996  -0.000006   0.000000  -0.098194
   12  N  3  Z    0.508457   0.000000  -0.000000  -0.000003   0.000000
   13  N  4  S    0.000000  -0.095061   0.000003  -0.000000  -0.204328
   14  N  4  X   -0.000008   0.000000   0.000000  -0.034824   0.000000
   15  N  4  Y   -0.000000   0.438386  -0.000005  -0.000000   0.097730
   16  N  4  Z   -0.507144  -0.000000  -0.000000   0.000004   0.000000
   17  N  5  S    0.000002  -0.201457   0.000004   0.204976   0.218113
   18  N  5  X   -0.000001  -0.142100  -0.000001   0.178884   0.039654
   19  N  5  Y    0.000001   0.297467  -0.000002  -0.294202   0.006959
   20  N  5  Z    0.348716   0.000003   0.366713  -0.000000   0.000008
   21  N  6  S   -0.000004   0.200823  -0.000007  -0.205331   0.217988
   22  N  6  X    0.000000  -0.141288   0.000001   0.178908  -0.039451
   23  N  6  Y    0.000001   0.296373  -0.000003  -0.294823  -0.007273
   24  N  6  Z   -0.347181  -0.000004  -0.367110  -0.000000   0.000006
   25  N  7  S   -0.000002  -0.201457   0.000004  -0.204976   0.218113
   26  N  7  X   -0.000001   0.142100   0.000001   0.178884  -0.039654
   27  N  7  Y   -0.000001   0.297467  -0.000002   0.294202   0.006959
   28  N  7  Z    0.348716  -0.000003  -0.366713  -0.000000  -0.000008
   29  N  8  S    0.000004   0.200823  -0.000007   0.205331   0.217988
   30  N  8  X    0.000000   0.141288  -0.000001   0.178909   0.039451
   31  N  8  Y   -0.000001   0.296373  -0.000003   0.294824  -0.007273
   32  N  8  Z   -0.347181   0.000004   0.367111  -0.000000  -0.000006

                     16         17         18         19         20
                   -0.4391    -0.4153    -0.3947    -0.3899    -0.3674
                     A          A          A          A          A   
    1  N  1  S    0.000970  -0.357565  -0.000002   0.000003  -0.150041
    2  N  1  X   -0.001311   0.390135  -0.000020  -0.000005  -0.256562
    3  N  1  Y    0.129151   0.000294  -0.000002  -0.000008   0.000238
    4  N  1  Z    0.000004   0.000005  -0.000323   0.522741  -0.000003
    5  N  2  S   -0.000970   0.357565  -0.000002  -0.000003  -0.150041
    6  N  2  X   -0.001311   0.390136   0.000020  -0.000005   0.256562
    7  N  2  Y   -0.129151  -0.000294  -0.000002   0.000008   0.000238
    8  N  2  Z    0.000004   0.000005   0.000323   0.522740   0.000003
    9  N  3  S    0.000000   0.000000  -0.000001  -0.000000  -0.110411
   10  N  3  X    0.114554   0.189278  -0.000000   0.000003   0.000000
   11  N  3  Y   -0.000000  -0.000000   0.000022  -0.000000   0.526705
   12  N  3  Z   -0.000000   0.000000  -0.000000  -0.470466  -0.000000
   13  N  4  S   -0.000000   0.000000  -0.000005   0.000000  -0.109279
   14  N  4  X   -0.115566   0.188715  -0.000000  -0.000008   0.000000
   15  N  4  Y   -0.000000   0.000000  -0.000030   0.000000  -0.525954
   16  N  4  Z    0.000003  -0.000010  -0.000000  -0.470471  -0.000000
   17  N  5  S   -0.213613  -0.233193   0.000006   0.000003   0.203575
   18  N  5  X   -0.202176  -0.189315   0.000001   0.000002   0.099876
   19  N  5  Y    0.385016   0.049421  -0.000001  -0.000001  -0.099815
   20  N  5  Z   -0.000003  -0.000002   0.500060   0.051681  -0.000024
   21  N  6  S   -0.214626   0.232139   0.000011  -0.000001   0.203027
   22  N  6  X    0.202627  -0.188197  -0.000001   0.000002  -0.100232
   23  N  6  Y   -0.384984   0.047470   0.000003  -0.000000   0.099636
   24  N  6  Z   -0.000003   0.000002   0.499940   0.052252  -0.000024
   25  N  7  S    0.213613   0.233192   0.000006  -0.000003   0.203575
   26  N  7  X   -0.202176  -0.189315  -0.000001   0.000002  -0.099876
   27  N  7  Y   -0.385016  -0.049421  -0.000001   0.000001  -0.099815
   28  N  7  Z   -0.000003  -0.000002  -0.500059   0.051681   0.000024
   29  N  8  S    0.214627  -0.232140   0.000011   0.000001   0.203027
   30  N  8  X    0.202627  -0.188197   0.000001   0.000002   0.100232
   31  N  8  Y    0.384985  -0.047470   0.000003   0.000000   0.099635
   32  N  8  Z   -0.000003   0.000002  -0.499941   0.052253   0.000024

                     21         22         23         24         25
                   -0.1471    -0.0582    -0.0542    -0.0098     0.0153
                     A          A          A          A          A   
    1  N  1  S    0.000206   0.000001   0.000000  -0.000120  -0.053886
    2  N  1  X    0.000201   0.000002   0.000005   0.000702   0.176290
    3  N  1  Y    0.242967   0.000008   0.000001   0.090703  -0.000233
    4  N  1  Z    0.000012  -0.518891   0.000542  -0.000004  -0.000001
    5  N  2  S    0.000206   0.000001  -0.000000  -0.000120  -0.053886
    6  N  2  X   -0.000201  -0.000002   0.000005  -0.000702  -0.176290
    7  N  2  Y    0.242967   0.000008  -0.000001   0.090703  -0.000233
    8  N  2  Z   -0.000012   0.518892   0.000542   0.000004   0.000001
    9  N  3  S   -0.211560  -0.000000   0.000000  -0.349019   0.360535
   10  N  3  X    0.000000  -0.000000   0.000005  -0.000000   0.000000
   11  N  3  Y    0.488254   0.000007   0.000000  -0.225446   0.071710
   12  N  3  Z    0.000000  -0.000000  -0.491984  -0.000000  -0.000000
   13  N  4  S    0.211139  -0.000002  -0.000000   0.351367   0.358648
   14  N  4  X   -0.000000   0.000000   0.000005   0.000000   0.000000
   15  N  4  Y    0.489548   0.000010   0.000000  -0.224969  -0.069461
   16  N  4  Z    0.000000  -0.000000   0.492165   0.000000  -0.000000
   17  N  5  S    0.215123   0.000000   0.000000   0.144646  -0.118638
   18  N  5  X   -0.016922   0.000003  -0.000003  -0.331373   0.387276
   19  N  5  Y   -0.178878  -0.000007   0.000003   0.165937  -0.051973
   20  N  5  Z    0.000008  -0.339797   0.358739  -0.000007   0.000003
   21  N  6  S   -0.215376  -0.000001  -0.000001  -0.145430  -0.117855
   22  N  6  X   -0.016432   0.000006  -0.000003  -0.333636  -0.385326
   23  N  6  Y   -0.179041  -0.000006   0.000006   0.166401   0.051010
   24  N  6  Z    0.000001   0.339543  -0.359400   0.000007   0.000005
   25  N  7  S    0.215123   0.000000  -0.000000   0.144646  -0.118638
   26  N  7  X    0.016922  -0.000003  -0.000003   0.331372  -0.387276
   27  N  7  Y   -0.178879  -0.000007  -0.000003   0.165937  -0.051973
   28  N  7  Z   -0.000008   0.339797   0.358740   0.000007  -0.000003
   29  N  8  S   -0.215376  -0.000001   0.000001  -0.145430  -0.117854
   30  N  8  X    0.016432  -0.000006  -0.000003   0.333636   0.385327
   31  N  8  Y   -0.179040  -0.000006  -0.000006   0.166401   0.051010
   32  N  8  Z   -0.000001  -0.339543  -0.359400  -0.000007  -0.000005

                     26         27         28         29         30
                    0.0205     0.0705     0.1060     0.1376     0.2213
                     A          A          A          A          A   
    1  N  1  S   -0.000001   0.272594  -0.265079   0.000088  -0.000051
    2  N  1  X   -0.000001   0.391300  -0.321412   0.000181  -0.000003
    3  N  1  Y    0.000000  -0.000105  -0.000034   0.422432   0.487323
    4  N  1  Z    0.372286   0.000002  -0.000002   0.000002   0.000006
    5  N  2  S    0.000001  -0.272594  -0.265079  -0.000088  -0.000051
    6  N  2  X   -0.000001   0.391300   0.321412   0.000181   0.000003
    7  N  2  Y   -0.000000   0.000105  -0.000034  -0.422432   0.487324
    8  N  2  Z    0.372286   0.000002   0.000002   0.000002  -0.000006
    9  N  3  S    0.000000  -0.000000   0.073788   0.000000   0.100774
   10  N  3  X    0.000000  -0.068008   0.000000   0.336477  -0.000000
   11  N  3  Y    0.000000   0.000000  -0.192487  -0.000000  -0.093682
   12  N  3  Z    0.336227   0.000003  -0.000000   0.000000  -0.000000
   13  N  4  S    0.000000  -0.000000   0.073768  -0.000000  -0.100686
   14  N  4  X   -0.000000  -0.067564   0.000000  -0.336502   0.000000
   15  N  4  Y   -0.000000  -0.000000   0.192635  -0.000000  -0.093838
   16  N  4  Z    0.335276  -0.000002   0.000000  -0.000000  -0.000000
   17  N  5  S   -0.000003   0.146483   0.085559  -0.233074   0.106713
   18  N  5  X    0.000003   0.017650   0.110826   0.082558   0.217343
   19  N  5  Y   -0.000005   0.335116   0.349768  -0.207200   0.251408
   20  N  5  Z   -0.352937  -0.000005  -0.000003   0.000006  -0.000001
   21  N  6  S   -0.000003  -0.146273   0.085542  -0.233149  -0.106687
   22  N  6  X   -0.000003   0.017982  -0.110999  -0.082534   0.217311
   23  N  6  Y    0.000005   0.334949  -0.349751   0.207569   0.251277
   24  N  6  Z   -0.352292   0.000005  -0.000002   0.000008   0.000002
   25  N  7  S    0.000003  -0.146483   0.085559   0.233074   0.106713
   26  N  7  X    0.000003   0.017650  -0.110826   0.082558  -0.217343
   27  N  7  Y    0.000005  -0.335116   0.349768   0.207201   0.251408
   28  N  7  Z   -0.352937  -0.000005   0.000003   0.000006   0.000001
   29  N  8  S    0.000003   0.146273   0.085542   0.233149  -0.106687
   30  N  8  X   -0.000003   0.017982   0.110999  -0.082534  -0.217311
   31  N  8  Y   -0.000005  -0.334949  -0.349751  -0.207569   0.251277
   32  N  8  Z   -0.352292   0.000005   0.000002   0.000008  -0.000002

                     31         32
                    0.2384     0.2793
                     A          A   
    1  N  1  S    0.078962   0.000188
    2  N  1  X   -0.012233   0.000025
    3  N  1  Y    0.000615  -0.316220
    4  N  1  Z    0.000001  -0.000004
    5  N  2  S   -0.078962  -0.000188
    6  N  2  X   -0.012233   0.000025
    7  N  2  Y   -0.000615   0.316220
    8  N  2  Z    0.000001  -0.000004
    9  N  3  S   -0.000000  -0.000000
   10  N  3  X    0.494537   0.389713
   11  N  3  Y   -0.000000  -0.000000
   12  N  3  Z    0.000005   0.000004
   13  N  4  S   -0.000000   0.000000
   14  N  4  X    0.495887  -0.387910
   15  N  4  Y   -0.000000  -0.000000
   16  N  4  Z   -0.000006   0.000005
   17  N  5  S   -0.121066  -0.025368
   18  N  5  X    0.324708   0.319454
   19  N  5  Y    0.060575   0.148861
   20  N  5  Z    0.000002   0.000001
   21  N  6  S    0.121109  -0.024971
   22  N  6  X    0.325953  -0.318355
   23  N  6  Y    0.060867  -0.148330
   24  N  6  Z   -0.000003   0.000000
   25  N  7  S    0.121066   0.025368
   26  N  7  X    0.324708   0.319454
   27  N  7  Y   -0.060575  -0.148861
   28  N  7  Z    0.000002   0.000001
   29  N  8  S   -0.121109   0.024971
   30  N  8  X    0.325953  -0.318355
   31  N  8  Y   -0.060867   0.148330
   32  N  8  Z   -0.000003   0.000000
 ...... END OF RHF CALCULATION ......
 STEP CPU TIME =     0.00 TOTAL CPU TIME =        0.0 (    0.0 MIN)
 TOTAL WALL CLOCK TIME=        0.0 SECONDS, CPU UTILIZATION IS  33.33%

     ----------------------------------------------------------------
     PROPERTY VALUES FOR THE RHF   SELF-CONSISTENT FIELD WAVEFUNCTION
     ----------------------------------------------------------------

                    -------------
                    MOPAC CHARGES
                    -------------
         ATOM NO.   TYPE          CHARGE        ATOM  ELECTRON DENSITY
           1         N             -0.1352          5.1352
           2         N             -0.1352          5.1352
           3         N              0.0434          4.9566
           4         N              0.0441          4.9559
           5         N              0.0457          4.9543
           6         N              0.0457          4.9543
           7         N              0.0457          4.9543
           8         N              0.0457          4.9543

          ---------------------
          ELECTROSTATIC MOMENTS
          ---------------------

 POINT   1           X           Y           Z (ANGS)      CHARGE
                 0.000000    0.000000    0.000000        0.00 (A.U.)
         DX          DY          DZ         /D/  (DEBYE)
    -0.000002    0.009789   -0.000000    0.009789
 ...... END OF PROPERTY EVALUATION ......
 STEP CPU TIME =     0.00 TOTAL CPU TIME =        0.0 (    0.0 MIN)
 TOTAL WALL CLOCK TIME=        0.0 SECONDS, CPU UTILIZATION IS  33.33%

          NSERCH=  0     ENERGY=     -47.2530320

                                 -----------------------
                                 GRADIENT (HARTREE/BOHR)
                                 -----------------------
        ATOM     ZNUC       DE/DX         DE/DY         DE/DZ
 --------------------------------------------------------------
    1  N            7.0     0.0059712    -0.0000534     0.0000004
    2  N            7.0    -0.0059712    -0.0000534    -0.0000004
    3  N            7.0     0.0000000    -0.0112171     0.0000000
    4  N            7.0     0.0000000     0.0113045     0.0000000
    5  N            7.0     0.0146523    -0.0093458     0.0000016
    6  N            7.0    -0.0144463     0.0093555     0.0000011
    7  N            7.0    -0.0146523    -0.0093458    -0.0000016
    8  N            7.0     0.0144463     0.0093555    -0.0000011


                     --------------------
                     INTERNAL COORDINATES
                     --------------------

                 - - ATOMS - -         COORDINATE        GRADIENT
 NO.   TYPE    I  J  K  L  M  N         (ANG,DEG)     (H/B,H/RAD)
 ----------------------------------------------------------------
   1 STRETCH   3  4                     2.5000000       0.0000000
   2 SYM.CRD.                           0.0000001       0.0000000
   3 SYM.CRD.                          -0.0000995       0.0007673
   4 SYM.CRD.                          -1.1420137      -0.0327329
   5 SYM.CRD.                           0.0000009      -0.0000000
   6 SYM.CRD.                           0.0000003       0.0000000
   7 SYM.CRD.                           0.0001241      -0.0005644
   8 SYM.CRD.                           1.0268708      -0.0000021
   9 SYM.CRD.                          -0.1016779       0.0117955
  10 SYM.CRD.                           0.0000000       0.0000000
  11 SYM.CRD.                          -0.0000000      -0.0000000
  12 SYM.CRD.                           0.0000006       0.0000000
  13 SYM.CRD.                           0.0000018       0.0007127
  14 SYM.CRD.                          -0.0000000       0.0000000
  15 SYM.CRD.                          -2.7711485      -0.0082487
  16 SYM.CRD.                          -0.0000324       0.0000002
  17 SYM.CRD.                           0.0000000       0.0000000
  18 SYM.CRD.                          -0.0000000      -0.0000000

 NOTE: CARTESIAN GRADIENTS ARE ALWAYS TAKEN TO TEST CONVERGENCE,
       SO THE FOLLOWING GRADIENTS ARE CARTESIAN.

          MAXIMUM GRADIENT = 0.0146523    RMS GRADIENT = 0.0072888

 NSERCH:   0  E=      -47.2530320460  GRAD. MAX=  0.0146523  R.M.S.=  0.0072888

          FORCE CONSTANT MATRIX NOT UPDATED --- TAKING FIRST STEP
          MIN SEARCH, CORRECT HESSIAN, TRYING PURE NR STEP
               NR STEP HAS LENGTH         =   0.096865
          RADIUS OF STEP TAKEN=   0.07860  CURRENT TRUST RADIUS=   0.30000
          TRANSFORMING DISPLACEMENT FROM INTERNALS TO CARTESIANS
          THE ROOT MEAN SQUARE ERROR IN ITERATION   1 IS   0.00068295
          THE ROOT MEAN SQUARE ERROR IN ITERATION   2 IS   0.00000006
          THE ROOT MEAN SQUARE ERROR IN ITERATION   3 IS   0.00000000

 BEGINNING GEOMETRY SEARCH POINT NSERCH=   1 ...

 COORDINATES OF ALL ATOMS ARE (ANGS)
   ATOM   CHARGE       X              Y              Z
 ------------------------------------------------------------
 N           7.0  -1.8505539187   0.0001755909  -0.0000014466
 N           7.0   1.8505537388   0.0001755790   0.0000014473
 N           7.0  -0.0000000759  -1.2504261481  -0.0000000001
 N           7.0  -0.0000000662   1.2495738519  -0.0000000005
 N           7.0   1.2427521108  -1.1567897907   0.0000095344
 N           7.0  -1.2428243715   1.1570403125   0.0000116961
 N           7.0  -1.2427519588  -1.1567897430  -0.0000095345
 N           7.0   1.2428245413   1.1570403476  -0.0000116961


                     --------------------
                     INTERNAL COORDINATES
                     --------------------

                 - - ATOMS - -         COORDINATE      COORDINATE
 NO.   TYPE    I  J  K  L  M  N        (BOHR,RAD)       (ANG,DEG)
 ----------------------------------------------------------------
   1 STRETCH   3  4                     4.7243150       2.5000000
   2 STRETCH   1  7                     2.4696861       1.3069017
   3 STRETCH   1  6                     2.4694541       1.3067789
   4 STRETCH   2  5                     2.4696858       1.3069016
   5 STRETCH   2  8                     2.4694539       1.3067788
   6 STRETCH   3  7                     2.3551172       1.2462745
   7 STRETCH   3  5                     2.3551178       1.2462748
   8 STRETCH   4  8                     2.3550986       1.2462646
   9 STRETCH   4  6                     2.3550980       1.2462643
  10 BEND      1  6  4                  2.1288149     121.9721097
  11 BEND      1  7  3                  2.1297150     122.0236789
  12 BEND      2  5  3                  2.1297147     122.0236620
  13 BEND      2  8  4                  2.1288146     121.9720925
  14 BEND      3  4  8                  1.4964793      85.7419456
  15 BEND      3  4  6                  1.4964792      85.7419425
  16 BEND      4  3  5                  1.4955925      85.6911357
  17 BEND      4  3  7                  1.4955924      85.6911330
  18 BEND      5  3  7                  2.9911849     171.3822687
  19 BEND      5  2  8                  2.1741770     124.5711641
  20 BEND      6  4  8                  2.9929585     171.4838882
  21 BEND      6  1  7                  2.1741765     124.5711359
  22 TORSION   1  6  4  8              -0.0000170      -0.0009752
  23 TORSION   1  7  3  4              -0.0000115      -0.0006594
  24 TORSION   1  7  3  5              -0.0000115      -0.0006594
  25 TORSION   1  6  4  3              -0.0000170      -0.0009749
  26 TORSION   2  8  4  6              -0.0000170      -0.0009746
  27 TORSION   2  8  4  3              -0.0000170      -0.0009749
  28 TORSION   2  5  3  4              -0.0000115      -0.0006593
  29 TORSION   2  5  3  7              -0.0000115      -0.0006594
  30 TORSION   3  5  2  8               0.0000049       0.0002832
  31 TORSION   3  7  1  6               0.0000049       0.0002833
  32 TORSION   4  6  1  7               0.0000168       0.0009601
  33 TORSION   4  8  2  5               0.0000168       0.0009601
  34 TORSION   5  3  4  8               0.0000171       0.0009788
  35 TORSION   5  3  4  6              -3.1415756    -179.9990212
  36 TORSION   6  4  3  7               0.0000171       0.0009788
  37 TORSION   7  3  4  8              -3.1415756    -179.9990212

          INTERNUCLEAR DISTANCES (ANGS.)
          ------------------------------

                1 N          2 N          3 N          4 N          5 N     

   1 N       0.0000000    3.7011077    2.2335072 *  2.2328335 *  3.3025916  
   2 N       3.7011077    0.0000000    2.2335071 *  2.2328335 *  1.3069016 *
   3 N       2.2335072 *  2.2335071 *  0.0000000    2.5000000 *  1.2462748 *
   4 N       2.2328335 *  2.2328335 *  2.5000000 *  0.0000000    2.7083240 *
   5 N       3.3025916    1.3069016 *  1.2462748 *  2.7083240 *  0.0000000  
   6 N       1.3067789 *  3.3026238    2.7093370 *  1.2462643 *  3.3958652  
   7 N       1.3069017 *  3.3025912    1.2462745 *  2.7083238 *  2.4855041 *
   8 N       3.3026242    1.3067788 *  2.7093372 *  1.2462646 *  2.3138301 *

                6 N          7 N          8 N     

   1 N       1.3067789 *  1.3069017 *  3.3026242  
   2 N       3.3026238    3.3025912    1.3067788 *
   3 N       2.7093370 *  1.2462745 *  2.7093372 *
   4 N       1.2462643 *  2.7083238 *  1.2462646 *
   5 N       3.3958652    2.4855041 *  2.3138301 *
   6 N       0.0000000    2.3138301 *  2.4856489 *
   7 N       2.3138301 *  0.0000000    3.3958652  
   8 N       2.4856489 *  3.3958652    0.0000000  

  * ... LESS THAN  3.000


 MOPAC ONE- AND TWO-ELECTRON INTEGRALS REQUIRE      3856 WORDS.
 ...... END OF ONE- AND TWO-ELECTRON INTEGRALS......
 STEP CPU TIME =     0.00 TOTAL CPU TIME =        0.0 (    0.0 MIN)
 TOTAL WALL CLOCK TIME=        0.0 SECONDS, CPU UTILIZATION IS  33.33%
 ...... END OF ONE-ELECTRON INTEGRALS ......
 STEP CPU TIME =     0.00 TOTAL CPU TIME =        0.0 (    0.0 MIN)
 TOTAL WALL CLOCK TIME=        0.0 SECONDS, CPU UTILIZATION IS  33.33%

          --------------------------
               R-PM3 SCF CALCULATION
          --------------------------
     DENSITY MATRIX CONV=  5.00E-05

 ITER EX DEM     TOTAL ENERGY        E CHANGE  DENSITY CHANGE    DIIS ERROR      VIR. SHIFT       DAMPING
   1  0  0      -47.2526372076   -47.2526372076   0.010763461   0.000000000     0.000000000     1.000000000
   2  1  0      -47.2538271252    -0.0011899176   0.003097491   0.000000000     0.000000000     1.000000000
   3  2  0      -47.2539689958    -0.0001418706   0.004586172   0.000000000     0.000000000     0.062500000
   4  3  0      -47.2541069075    -0.0001379117   0.002754866   0.000000000     0.000000000     0.062500000
   5  0  0      -47.2541520734    -0.0000451659   0.005131535   0.000000000     0.000000000     0.000000000
   6  1  0      -47.2541747132    -0.0000226398   0.000405657   0.000000000     0.000000000     0.000000000
   7  2  0      -47.2541757528    -0.0000010395   0.000233807   0.000000000     0.000000000     0.000000000
   8  3  0      -47.2541760629    -0.0000003101   0.000133761   0.000000000     0.000000000     0.000000000
   9  4  0      -47.2541761597    -0.0000000967   0.000077707   0.000000000     0.000000000     0.000000000
  10  5  0      -47.2541761908    -0.0000000312   0.000044528   0.000000000     0.000000000     0.000000000
  11  6  0      -47.2541762011    -0.0000000103   0.000026310   0.000000000     0.000000000     0.000000000

          -----------------
          DENSITY CONVERGED
          -----------------
     TIME TO FORM FOCK OPERATORS=       0.0 SECONDS (       0.0 SEC/ITER)
     TIME TO SOLVE SCF EQUATIONS=       0.0 SECONDS (       0.0 SEC/ITER)

 FINAL R-PM3 ENERGY IS      -47.2541762011 AFTER  11 ITERATIONS

 HEAT OF FORMATION IS       328.53578 KCAL/MOL

 ...... END OF RHF CALCULATION ......
 STEP CPU TIME =     0.01 TOTAL CPU TIME =        0.0 (    0.0 MIN)
 TOTAL WALL CLOCK TIME=        0.0 SECONDS, CPU UTILIZATION IS  66.67%

          NSERCH=  1     ENERGY=     -47.2541762

                                 -----------------------
                                 GRADIENT (HARTREE/BOHR)
                                 -----------------------
        ATOM     ZNUC       DE/DX         DE/DY         DE/DZ
 --------------------------------------------------------------
    1  N            7.0     0.0082977    -0.0001065     0.0000006
    2  N            7.0    -0.0082977    -0.0001065    -0.0000006
    3  N            7.0    -0.0000000    -0.0047296     0.0000000
    4  N            7.0    -0.0000000     0.0049332     0.0000000
    5  N            7.0    -0.0030874     0.0008683     0.0000014
    6  N            7.0     0.0031266    -0.0008636     0.0000005
    7  N            7.0     0.0030874     0.0008683    -0.0000014
    8  N            7.0    -0.0031265    -0.0008636    -0.0000005


                     --------------------
                     INTERNAL COORDINATES
                     --------------------

                 - - ATOMS - -         COORDINATE        GRADIENT
 NO.   TYPE    I  J  K  L  M  N         (ANG,DEG)     (H/B,H/RAD)
 ----------------------------------------------------------------
   1 STRETCH   3  4                     2.5000000       0.0000000
   2 SYM.CRD.                           0.0000001       0.0000000
   3 SYM.CRD.                          -0.0002350       0.0018899
   4 SYM.CRD.                          -1.1088468       0.0062714
   5 SYM.CRD.                           0.0000009      -0.0000000
   6 SYM.CRD.                           0.0000002      -0.0000000
   7 SYM.CRD.                          -0.0000417      -0.0019844
   8 SYM.CRD.                           1.0268752      -0.0000013
   9 SYM.CRD.                          -0.1265971       0.0019669
  10 SYM.CRD.                           0.0000000      -0.0000000
  11 SYM.CRD.                          -0.0000000       0.0000000
  12 SYM.CRD.                           0.0000006       0.0000000
  13 SYM.CRD.                          -0.0000444       0.0020230
  14 SYM.CRD.                          -0.0000000      -0.0000000
  15 SYM.CRD.                          -2.7681677       0.0171259
  16 SYM.CRD.                          -0.0000330       0.0000006
  17 SYM.CRD.                           0.0000000      -0.0000000
  18 SYM.CRD.                          -0.0000000       0.0000000

 NOTE: CARTESIAN GRADIENTS ARE ALWAYS TAKEN TO TEST CONVERGENCE,
       SO THE FOLLOWING GRADIENTS ARE CARTESIAN.

          MAXIMUM GRADIENT = 0.0082977    RMS GRADIENT = 0.0028672

 NSERCH:   1  E=      -47.2541762011  GRAD. MAX=  0.0082977  R.M.S.=  0.0028672

          HESSIAN UPDATED USING THE BFGS FORMULA
             ACTUAL ENERGY CHANGE WAS  -0.0011441552
          PREDICTED ENERGY CHANGE WAS  -0.0013267878 RATIO=  0.862
          MIN SEARCH, CORRECT HESSIAN, TRYING PURE NR STEP
               NR STEP HAS LENGTH         =   0.045905
          RADIUS OF STEP TAKEN=   0.04425  CURRENT TRUST RADIUS=   0.11116
          TRANSFORMING DISPLACEMENT FROM INTERNALS TO CARTESIANS
          THE ROOT MEAN SQUARE ERROR IN ITERATION   1 IS   0.00021548
          THE ROOT MEAN SQUARE ERROR IN ITERATION   2 IS   0.00000001
          THE ROOT MEAN SQUARE ERROR IN ITERATION   3 IS   0.00000000

 BEGINNING GEOMETRY SEARCH POINT NSERCH=   2 ...

 COORDINATES OF ALL ATOMS ARE (ANGS)
   ATOM   CHARGE       X              Y              Z
 ------------------------------------------------------------
 N           7.0  -1.8684572971   0.0002783829  -0.0000016401
 N           7.0   1.8684571012   0.0002783706   0.0000016408
 N           7.0  -0.0000000633  -1.2505789415  -0.0000000000
 N           7.0  -0.0000000547   1.2494210585  -0.0000000005
 N           7.0   1.2467906653  -1.1525895201   0.0000081709
 N           7.0  -1.2468863654   1.1528900212   0.0000106071
 N           7.0  -1.2467905167  -1.1525894494  -0.0000081709
 N           7.0   1.2468865307   1.1528900778  -0.0000106071


                     --------------------
                     INTERNAL COORDINATES
                     --------------------

                 - - ATOMS - -         COORDINATE      COORDINATE
 NO.   TYPE    I  J  K  L  M  N        (BOHR,RAD)       (ANG,DEG)
 ----------------------------------------------------------------
   1 STRETCH   3  4                     4.7243150       2.5000000
   2 STRETCH   1  7                     2.4751615       1.3097992
   3 STRETCH   1  6                     2.4746494       1.3095282
   4 STRETCH   2  5                     2.4751613       1.3097990
   5 STRETCH   2  8                     2.4746492       1.3095281
   6 STRETCH   3  7                     2.3633578       1.2506352
   7 STRETCH   3  5                     2.3633583       1.2506355
   8 STRETCH   4  8                     2.3633246       1.2506176
   9 STRETCH   4  6                     2.3633241       1.2506173
  10 BEND      1  6  4                  2.1426292     122.7636083
  11 BEND      1  7  3                  2.1437693     122.8289357
  12 BEND      2  5  3                  2.1437690     122.8289170
  13 BEND      2  8  4                  2.1426288     122.7635894
  14 BEND      3  4  8                  1.4935328      85.5731279
  15 BEND      3  4  6                  1.4935328      85.5731239
  16 BEND      4  3  5                  1.4923642      85.5061718
  17 BEND      4  3  7                  1.4923642      85.5061680
  18 BEND      5  3  7                  2.9847284     171.0123398
  19 BEND      5  2  8                  2.1524830     123.3281939
  20 BEND      6  4  8                  2.9870656     171.1462518
  21 BEND      6  1  7                  2.1524825     123.3281641
  22 TORSION   1  6  4  8              -0.0000159      -0.0009127
  23 TORSION   1  7  3  4              -0.0000096      -0.0005521
  24 TORSION   1  7  3  5              -0.0000096      -0.0005520
  25 TORSION   1  6  4  3              -0.0000159      -0.0009124
  26 TORSION   2  8  4  6              -0.0000159      -0.0009121
  27 TORSION   2  8  4  3              -0.0000159      -0.0009124
  28 TORSION   2  5  3  4              -0.0000096      -0.0005520
  29 TORSION   2  5  3  7              -0.0000096      -0.0005520
  30 TORSION   3  5  2  8               0.0000031       0.0001763
  31 TORSION   3  7  1  6               0.0000031       0.0001763
  32 TORSION   4  6  1  7               0.0000163       0.0009332
  33 TORSION   4  8  2  5               0.0000163       0.0009332
  34 TORSION   5  3  4  8               0.0000151       0.0008629
  35 TORSION   5  3  4  6              -3.1415776    -179.9991371
  36 TORSION   6  4  3  7               0.0000151       0.0008629
  37 TORSION   7  3  4  8              -3.1415776    -179.9991371

          INTERNUCLEAR DISTANCES (ANGS.)
          ------------------------------

                1 N          2 N          3 N          4 N          5 N     

   1 N       0.0000000    3.7369144    2.2485054 *  2.2475520 *  3.3217276  
   2 N       3.7369144    0.0000000    2.2485053 *  2.2475519 *  1.3097990 *
   3 N       2.2485054 *  2.2485053 *  0.0000000    2.5000000 *  1.2506355 *
   4 N       2.2475520 *  2.2475519 *  2.5000000 *  0.0000000    2.7063152 *
   5 N       3.3217276    1.3097990 *  1.2506355 *  2.7063152 *  0.0000000  
   6 N       1.3095282 *  3.3217282    2.7076537 *  1.2506173 *  3.3961244  
   7 N       1.3097992 *  3.3217273    1.2506352 *  2.7063150 *  2.4935812 *
   8 N       3.3217286    1.3095281 *  2.7076539 *  1.2506176 *  2.3054796 *

                6 N          7 N          8 N     

   1 N       1.3095282 *  1.3097992 *  3.3217286  
   2 N       3.3217282    3.3217273    1.3095281 *
   3 N       2.7076537 *  1.2506352 *  2.7076539 *
   4 N       1.2506173 *  2.7063150 *  1.2506176 *
   5 N       3.3961244    2.4935812 *  2.3054796 *
   6 N       0.0000000    2.3054795 *  2.4937729 *
   7 N       2.3054795 *  0.0000000    3.3961244  
   8 N       2.4937729 *  3.3961244    0.0000000  

  * ... LESS THAN  3.000


 MOPAC ONE- AND TWO-ELECTRON INTEGRALS REQUIRE      3856 WORDS.
 ...... END OF ONE- AND TWO-ELECTRON INTEGRALS......
 STEP CPU TIME =     0.00 TOTAL CPU TIME =        0.0 (    0.0 MIN)
 TOTAL WALL CLOCK TIME=        0.0 SECONDS, CPU UTILIZATION IS  50.00%
 ...... END OF ONE-ELECTRON INTEGRALS ......
 STEP CPU TIME =     0.00 TOTAL CPU TIME =        0.0 (    0.0 MIN)
 TOTAL WALL CLOCK TIME=        0.0 SECONDS, CPU UTILIZATION IS  50.00%

          --------------------------
               R-PM3 SCF CALCULATION
          --------------------------
     DENSITY MATRIX CONV=  1.00E-05

 ITER EX DEM     TOTAL ENERGY        E CHANGE  DENSITY CHANGE    DIIS ERROR      VIR. SHIFT       DAMPING
   1  0  0      -47.2541702953   -47.2541702953   0.007251954   0.000000000     0.000000000     1.000000000
   2  1  0      -47.2543786782    -0.0002083830   0.000939496   0.000000000     0.000000000     1.000000000
   3  2  0      -47.2543986874    -0.0000200091   0.001297411   0.000000000     0.000000000     0.062500000
   4  3  0      -47.2544171039    -0.0000184166   0.000803207   0.000000000     0.000000000     0.062500000
   5  0  0      -47.2544226326    -0.0000055286   0.001406550   0.000000000     0.000000000     0.000000000
   6  1  0      -47.2544252918    -0.0000026592   0.000079337   0.000000000     0.000000000     0.000000000
   7  2  0      -47.2544253510    -0.0000000592   0.000042707   0.000000000     0.000000000     0.000000000
   8  3  0      -47.2544253678    -0.0000000168   0.000037550   0.000000000     0.000000000     0.000000000
   9  4  0      -47.2544253735    -0.0000000057   0.000028971   0.000000000     0.000000000     0.000000000
  10  5  0      -47.2544253761    -0.0000000025   0.000029890   0.000000000     0.000000000     0.000000000
  11  6  0      -47.2544253775    -0.0000000014   0.000024271   0.000000000     0.000000000     0.000000000
  12  7  0      -47.2544253785    -0.0000000010   0.000024803   0.000000000     0.000000000     0.000000000
  13  8  0      -47.2544253793    -0.0000000008   0.000020642   0.000000000     0.000000000     0.000000000
  14  9  0      -47.2544253799    -0.0000000006   0.000020569   0.000000000     0.000000000     0.000000000
  15 10  0      -47.2544253804    -0.0000000005   0.000017414   0.000000000     0.000000000     0.000000000
  16 11  0      -47.2544253809    -0.0000000004   0.000017049   0.000000000     0.000000000     0.000000000

          ----------------
          ENERGY CONVERGED
          ----------------
     TIME TO FORM FOCK OPERATORS=       0.0 SECONDS (       0.0 SEC/ITER)
     TIME TO SOLVE SCF EQUATIONS=       0.0 SECONDS (       0.0 SEC/ITER)

 FINAL R-PM3 ENERGY IS      -47.2544253809 AFTER  16 ITERATIONS

 HEAT OF FORMATION IS       328.37942 KCAL/MOL

 ...... END OF RHF CALCULATION ......
 STEP CPU TIME =     0.01 TOTAL CPU TIME =        0.0 (    0.0 MIN)
 TOTAL WALL CLOCK TIME=        0.0 SECONDS, CPU UTILIZATION IS  75.00%

          NSERCH=  2     ENERGY=     -47.2544254

                                 -----------------------
                                 GRADIENT (HARTREE/BOHR)
                                 -----------------------
        ATOM     ZNUC       DE/DX         DE/DY         DE/DZ
 --------------------------------------------------------------
    1  N            7.0    -0.0011920    -0.0001335     0.0000007
    2  N            7.0     0.0011920    -0.0001335    -0.0000007
    3  N            7.0     0.0000000    -0.0072022     0.0000000
    4  N            7.0     0.0000000     0.0075138     0.0000000
    5  N            7.0     0.0010293     0.0005558     0.0000014
    6  N            7.0    -0.0009527    -0.0005781     0.0000004
    7  N            7.0    -0.0010293     0.0005558    -0.0000014
    8  N            7.0     0.0009527    -0.0005781    -0.0000004


                     --------------------
                     INTERNAL COORDINATES
                     --------------------

                 - - ATOMS - -         COORDINATE        GRADIENT
 NO.   TYPE    I  J  K  L  M  N         (ANG,DEG)     (H/B,H/RAD)
 ----------------------------------------------------------------
   1 STRETCH   3  4                     2.5000000       0.0000000
   2 SYM.CRD.                           0.0000001       0.0000000
   3 SYM.CRD.                          -0.0002394       0.0030938
   4 SYM.CRD.                          -1.1041196       0.0002905
   5 SYM.CRD.                           0.0000009       0.0000000
   6 SYM.CRD.                           0.0000002       0.0000000
   7 SYM.CRD.                          -0.0001241      -0.0032099
   8 SYM.CRD.                           1.0268789      -0.0000012
   9 SYM.CRD.                          -0.1379350       0.0006439
  10 SYM.CRD.                           0.0000000      -0.0000000
  11 SYM.CRD.                          -0.0000000      -0.0000000
  12 SYM.CRD.                           0.0000006       0.0000000
  13 SYM.CRD.                          -0.0001462       0.0032247
  14 SYM.CRD.                          -0.0000000      -0.0000000
  15 SYM.CRD.                          -2.7881017      -0.0037204
  16 SYM.CRD.                          -0.0000341       0.0000006
  17 SYM.CRD.                           0.0000000      -0.0000000
  18 SYM.CRD.                          -0.0000000      -0.0000000

 NOTE: CARTESIAN GRADIENTS ARE ALWAYS TAKEN TO TEST CONVERGENCE,
       SO THE FOLLOWING GRADIENTS ARE CARTESIAN.

          MAXIMUM GRADIENT = 0.0011920    RMS GRADIENT = 0.0006111

 NSERCH:   2  E=      -47.2544253809  GRAD. MAX=  0.0011920  R.M.S.=  0.0006111

          HESSIAN UPDATED USING THE BFGS FORMULA
             ACTUAL ENERGY CHANGE WAS  -0.0002491797
          PREDICTED ENERGY CHANGE WAS  -0.0003156715 RATIO=  0.789
          MIN SEARCH, CORRECT HESSIAN, TRYING PURE NR STEP
               NR STEP HAS LENGTH         =   0.009297
          RADIUS OF STEP TAKEN=   0.00807  CURRENT TRUST RADIUS=   0.06258
          TRANSFORMING DISPLACEMENT FROM INTERNALS TO CARTESIANS
          THE ROOT MEAN SQUARE ERROR IN ITERATION   1 IS   0.00000611
          THE ROOT MEAN SQUARE ERROR IN ITERATION   2 IS   0.00000000

 BEGINNING GEOMETRY SEARCH POINT NSERCH=   3 ...

 COORDINATES OF ALL ATOMS ARE (ANGS)
   ATOM   CHARGE       X              Y              Z
 ------------------------------------------------------------
 N           7.0  -1.8654817381   0.0003995514  -0.0000018365
 N           7.0   1.8654815551   0.0003995391   0.0000018371
 N           7.0  -0.0000000651  -1.2507779334  -0.0000000000
 N           7.0  -0.0000000564   1.2492220666  -0.0000000005
 N           7.0   1.2460041941  -1.1539940313   0.0000073066
 N           7.0  -1.2460949673   1.1543723567   0.0000100395
 N           7.0  -1.2460040501  -1.1539939613  -0.0000073066
 N           7.0   1.2460951277   1.1543724124  -0.0000100394


                     --------------------
                     INTERNAL COORDINATES
                     --------------------

                 - - ATOMS - -         COORDINATE      COORDINATE
 NO.   TYPE    I  J  K  L  M  N        (BOHR,RAD)       (ANG,DEG)
 ----------------------------------------------------------------
   1 STRETCH   3  4                     4.7243150       2.5000000
   2 STRETCH   1  7                     2.4757408       1.3101057
   3 STRETCH   1  6                     2.4749591       1.3096920
   4 STRETCH   2  5                     2.4757406       1.3101056
   5 STRETCH   2  8                     2.4749589       1.3096919
   6 STRETCH   3  7                     2.3616987       1.2497572
   7 STRETCH   3  5                     2.3616992       1.2497575
   8 STRETCH   4  8                     2.3615902       1.2496998
   9 STRETCH   4  6                     2.3615897       1.2496996
  10 BEND      1  6  4                  2.1393755     122.5771875
  11 BEND      1  7  3                  2.1408336     122.6607274
  12 BEND      2  5  3                  2.1408332     122.6607095
  13 BEND      2  8  4                  2.1393752     122.5771694
  14 BEND      3  4  8                  1.4948253      85.6471821
  15 BEND      3  4  6                  1.4948253      85.6471782
  16 BEND      4  3  5                  1.4932766      85.5584445
  17 BEND      4  3  7                  1.4932765      85.5584407
  18 BEND      5  3  7                  2.9865531     171.1168852
  19 BEND      5  2  8                  2.1564676     123.5564945
  20 BEND      6  4  8                  2.9896506     171.2943604
  21 BEND      6  1  7                  2.1564671     123.5564661
  22 TORSION   1  6  4  8              -0.0000153      -0.0008760
  23 TORSION   1  7  3  4              -0.0000083      -0.0004729
  24 TORSION   1  7  3  5              -0.0000083      -0.0004729
  25 TORSION   1  6  4  3              -0.0000153      -0.0008756
  26 TORSION   2  8  4  6              -0.0000153      -0.0008753
  27 TORSION   2  8  4  3              -0.0000153      -0.0008756
  28 TORSION   2  5  3  4              -0.0000083      -0.0004728
  29 TORSION   2  5  3  7              -0.0000083      -0.0004729
  30 TORSION   3  5  2  8               0.0000015       0.0000864
  31 TORSION   3  7  1  6               0.0000015       0.0000865
  32 TORSION   4  6  1  7               0.0000163       0.0009358
  33 TORSION   4  8  2  5               0.0000163       0.0009358
  34 TORSION   5  3  4  8               0.0000139       0.0007976
  35 TORSION   5  3  4  6              -3.1415787    -179.9992024
  36 TORSION   6  4  3  7               0.0000139       0.0007976
  37 TORSION   7  3  4  8              -3.1415787    -179.9992024

          INTERNUCLEAR DISTANCES (ANGS.)
          ------------------------------

                1 N          2 N          3 N          4 N          5 N     

   1 N       0.0000000    3.7309633    2.2462117 *  2.2449008 *  3.3187301  
   2 N       3.7309633    0.0000000    2.2462116 *  2.2449007 *  1.3101056 *
   3 N       2.2462117 *  2.2462116 *  0.0000000    2.5000000 *  1.2497575 *
   4 N       2.2449008 *  2.2449007 *  2.5000000 *  0.0000000    2.7070231 *
   5 N       3.3187301    1.3101056 *  1.2497575 *  2.7070231 *  0.0000000  
   6 N       1.3096920 *  3.3186687    2.7087821 *  1.2496996 *  3.3969271  
   7 N       1.3101057 *  3.3187297    1.2497572 *  2.7070229 *  2.4920082 *
   8 N       3.3186690    1.3096919 *  2.7087823 *  1.2496998 *  2.3083664 *

                6 N          7 N          8 N     

   1 N       1.3096920 *  1.3101057 *  3.3186690  
   2 N       3.3186687    3.3187297    1.3096919 *
   3 N       2.7087821 *  1.2497572 *  2.7087823 *
   4 N       1.2496996 *  2.7070229 *  1.2496998 *
   5 N       3.3969271    2.4920082 *  2.3083664 *
   6 N       0.0000000    2.3083663 *  2.4921901 *
   7 N       2.3083663 *  0.0000000    3.3969271  
   8 N       2.4921901 *  3.3969271    0.0000000  

  * ... LESS THAN  3.000


 MOPAC ONE- AND TWO-ELECTRON INTEGRALS REQUIRE      3856 WORDS.
 ...... END OF ONE- AND TWO-ELECTRON INTEGRALS......
 STEP CPU TIME =     0.00 TOTAL CPU TIME =        0.0 (    0.0 MIN)
 TOTAL WALL CLOCK TIME=        0.0 SECONDS, CPU UTILIZATION IS  75.00%
 ...... END OF ONE-ELECTRON INTEGRALS ......
[...]
  32 TORSION   4  6  1  7              -0.0081655      -0.4678481
  33 TORSION   4  8  2  5              -0.0005129      -0.0293868
  34 TORSION   5  3  4  8               0.0006188       0.0354559
  35 TORSION   5  3  4  6               3.1388236     179.8413447
  36 TORSION   6  4  3  7              -0.0032137      -0.1841338
  37 TORSION   7  3  4  8              -3.1414185    -179.9900226

          INTERNUCLEAR DISTANCES (ANGS.)
          ------------------------------

                1 N          2 N          3 N          4 N          5 N     

   1 N       0.0000000    4.4094261    4.7944394    2.3924580 *  5.0725177  
   2 N       4.4094261    0.0000000    2.3412973 *  2.2421706 *  1.3418956 *
   3 N       4.7944394    2.3412973 *  0.0000000    2.5000000 *  1.3104274 *
   4 N       2.3924580 *  2.2421706 *  2.5000000 *  0.0000000    2.6869933 *
   5 N       5.0725177    1.3418956 *  1.3104274 *  2.6869933 *  0.0000000  
   6 N       1.1196684 *  3.3305381    3.7286071    1.2776885 *  3.9529694  
   7 N       5.0990971    3.4363648    1.1184020 *  3.0785310    2.4104520 *
   8 N       3.2452652    1.2284579 *  2.8351354 *  1.4114445 *  2.3122756 *

                6 N          7 N          8 N     

   1 N       1.1196684 *  5.0990971    3.2452652  
   2 N       3.3305381    3.4363648    1.2284579 *
   3 N       3.7286071    1.1184020 *  2.8351354 *
   4 N       1.2776885 *  3.0785310    1.4114445 *
   5 N       3.9529694    2.4104520 *  2.3122756 *
   6 N       0.0000000    4.1457212    2.2202739 *
   7 N       4.1457212    0.0000000    3.7663191  
   8 N       2.2202739 *  3.7663191    0.0000000  

  * ... LESS THAN  3.000


          NUCLEAR ENERGY    =      139.2823868757
          ELECTRONIC ENERGY =     -186.7163152972
          TOTAL ENERGY      =      -47.4339284214

          ------------------
          MOLECULAR ORBITALS
          ------------------

                      1          2          3          4          5
                   -1.2678    -1.2451    -1.1969    -1.1016    -1.0154
                     A          A          A          A          A   
    1  N  1  S   -0.350340   0.339560   0.249246  -0.251370   0.095884
    2  N  1  X   -0.185010   0.176357   0.124948  -0.122365   0.048921
    3  N  1  Y    0.156035  -0.151088  -0.110077   0.099438  -0.027314
    4  N  1  Z   -0.000082   0.000071   0.000032   0.000051  -0.000075
    5  N  2  S   -0.247271  -0.149350  -0.395129  -0.240625   0.248015
    6  N  2  X    0.120775   0.059396   0.184419   0.049698  -0.168424
    7  N  2  Y    0.015593   0.036365  -0.007348   0.103228   0.283061
    8  N  2  Z   -0.000252  -0.000201  -0.000317  -0.000378  -0.000411
    9  N  3  S   -0.318245  -0.512733   0.238185  -0.072049  -0.199092
   10  N  3  X    0.026710   0.099469  -0.200252  -0.198607  -0.307774
   11  N  3  Y    0.028257   0.115707  -0.212161  -0.159309  -0.206229
   12  N  3  Z   -0.000129  -0.000447   0.000779   0.000619   0.000843
   13  N  4  S   -0.363913   0.087874  -0.241794   0.510317  -0.175010
   14  N  4  X   -0.003969  -0.073090  -0.107480  -0.085256   0.182374
   15  N  4  Y   -0.119700   0.070154  -0.054950   0.224319  -0.107542
   16  N  4  Z    0.000422  -0.000095   0.000387  -0.000687   0.000127
   17  N  5  S   -0.238070  -0.246277  -0.212272  -0.382680  -0.454138
   18  N  5  X    0.090171   0.102369   0.048401   0.116477   0.186261
   19  N  5  Y   -0.041535  -0.000550  -0.126307  -0.064987   0.087408
   20  N  5  Z    0.000034  -0.000084   0.000302   0.000105  -0.000329
   21  N  6  S   -0.506351   0.398814   0.147670   0.125603  -0.129826
   22  N  6  X    0.061252  -0.122536  -0.186246   0.333560  -0.151082
   23  N  6  Y   -0.049787   0.092618   0.138520  -0.295643   0.170877
   24  N  6  Z   -0.000122   0.000059  -0.000068   0.000420  -0.000333
   25  N  7  S   -0.209542  -0.399635   0.339621   0.139537   0.159181
   26  N  7  X   -0.105352  -0.202222   0.169401   0.059690   0.054085
   27  N  7  Y   -0.100604  -0.187773   0.155347   0.065972   0.078756
   28  N  7  Z    0.000387   0.000733  -0.000618  -0.000255  -0.000293
   29  N  8  S   -0.290566  -0.064230  -0.402755   0.092822   0.378868
   30  N  8  X    0.033951  -0.048162  -0.030400  -0.189614   0.199625
   31  N  8  Y    0.115240   0.058020   0.186358   0.047595  -0.173221
   32  N  8  Z   -0.000319  -0.000069  -0.000393   0.000152   0.000107

                      6          7          8          9         10
                   -0.8409    -0.7735    -0.6398    -0.6325    -0.6256
                     A          A          A          A          A   
    1  N  1  S    0.039397   0.093923  -0.000076  -0.081706  -0.000210
    2  N  1  X    0.029248   0.089639  -0.001138   0.272855   0.000012
    3  N  1  Y    0.011509   0.070540  -0.001472   0.293997  -0.000120
    4  N  1  Z   -0.000127  -0.000445  -0.524659  -0.001212  -0.225000
    5  N  2  S   -0.356470  -0.197773  -0.000043   0.080009   0.000064
    6  N  2  X   -0.120914   0.061921  -0.000348   0.117613   0.000387
    7  N  2  Y    0.401007  -0.325991  -0.000454   0.034411   0.000446
    8  N  2  Z   -0.000941   0.000784  -0.151819  -0.000651   0.155742
    9  N  3  S    0.255525  -0.064326   0.000125  -0.090158  -0.000300
   10  N  3  X    0.312211  -0.098528  -0.000411   0.199898   0.000959
   11  N  3  Y    0.110915   0.005573  -0.000258  -0.308332   0.001150
   12  N  3  Z   -0.000535   0.000072  -0.214213  -0.000509   0.641181
   13  N  4  S    0.025199   0.159787   0.000075  -0.303641  -0.000445
   14  N  4  X    0.202982   0.546041  -0.000473   0.026513  -0.000105
   15  N  4  Y   -0.031186  -0.029305  -0.001536   0.352238   0.000106
   16  N  4  Z   -0.000166  -0.000535  -0.407450  -0.001160  -0.113432
   17  N  5  S   -0.137777   0.059761  -0.000187   0.138949   0.000339
   18  N  5  X   -0.285527   0.071495  -0.000302   0.148120   0.000615
   19  N  5  Y   -0.505819   0.153254  -0.000325  -0.091471   0.000848
   20  N  5  Z    0.001693  -0.000503  -0.157163  -0.000614   0.364014
   21  N  6  S   -0.093907  -0.222830   0.000335   0.153446   0.000415
   22  N  6  X   -0.043234  -0.041658  -0.001124   0.398426   0.000237
   23  N  6  Y    0.115527   0.310711  -0.001973   0.297683  -0.000272
   24  N  6  Z   -0.000320  -0.000919  -0.629352  -0.001442  -0.251380
   25  N  7  S   -0.116187   0.024478  -0.000059   0.051357   0.000145
   26  N  7  X    0.007585  -0.022795  -0.000385   0.200110   0.000951
   27  N  7  Y   -0.075844   0.032994  -0.000264  -0.218531   0.001134
   28  N  7  Z    0.000247  -0.000075  -0.170812  -0.000572   0.550255
   29  N  8  S    0.274469   0.102441  -0.000151   0.126616   0.000115
   30  N  8  X   -0.029749  -0.545626  -0.000368   0.011695   0.000116
   31  N  8  Y   -0.033985  -0.002863  -0.000665   0.154156   0.000304
   32  N  8  Z    0.000088   0.001005  -0.199518  -0.000713   0.051511

                     11         12         13         14         15
                   -0.6070    -0.5613    -0.5553    -0.5362    -0.5352
                     A          A          A          A          A   
    1  N  1  S   -0.092957   0.714404  -0.046052   0.000195   0.018648
    2  N  1  X    0.244398  -0.407434   0.019071  -0.000067  -0.256309
    3  N  1  Y    0.228746   0.466198  -0.043800   0.000234  -0.265568
    4  N  1  Z   -0.000820  -0.000411  -0.000003  -0.262424   0.000548
    5  N  2  S   -0.010978   0.037454   0.048897  -0.000076  -0.029445
    6  N  2  X   -0.063653   0.037845   0.057157   0.000541   0.253692
    7  N  2  Y    0.017909   0.027996  -0.015095   0.001630   0.016748
    8  N  2  Z   -0.000030  -0.000361   0.000100   0.568038   0.000632
    9  N  3  S    0.160423   0.022917   0.190030   0.000010   0.007021
   10  N  3  X   -0.300275  -0.019205  -0.101434  -0.000067  -0.105169
   11  N  3  Y    0.470493   0.012294  -0.180729  -0.000585   0.123252
   12  N  3  Z   -0.000790   0.000108   0.000566  -0.195804  -0.000529
   13  N  4  S   -0.159162   0.028909   0.006744   0.000735  -0.309947
   14  N  4  X   -0.036954  -0.069805   0.015176   0.000041   0.045347
   15  N  4  Y    0.145516   0.046166  -0.004943   0.000027   0.300195
   16  N  4  Z   -0.000386  -0.000281   0.000057   0.215582  -0.000481
   17  N  5  S   -0.162584  -0.003283  -0.031216  -0.000049   0.126947
   18  N  5  X   -0.206506   0.005514   0.075284   0.000182   0.097247
   19  N  5  Y    0.121087  -0.005191   0.024632   0.000618  -0.035411
   20  N  5  Z   -0.000039  -0.000054  -0.000080   0.246068   0.000441
   21  N  6  S    0.122422  -0.191809   0.004695   0.000013   0.025752
   22  N  6  X    0.288493   0.208347  -0.027626   0.000253  -0.146346
   23  N  6  Y    0.227123  -0.069273  -0.000341   0.000047  -0.227744
   24  N  6  Z   -0.000894  -0.000138  -0.000010  -0.162857   0.000492
   25  N  7  S   -0.090384  -0.052127  -0.719167   0.000096   0.009622
   26  N  7  X   -0.318252   0.012586   0.495258  -0.000283  -0.151721
   27  N  7  Y    0.376310   0.045991   0.372877  -0.001010   0.146884
   28  N  7  Z   -0.000520   0.000010  -0.001576  -0.288316  -0.000693
   29  N  8  S   -0.027795  -0.013702   0.007403  -0.000793   0.454683
   30  N  8  X    0.061607   0.046356  -0.016946   0.001400  -0.099644
   31  N  8  Y    0.022327   0.037238   0.021204   0.000712   0.470377
   32  N  8  Z   -0.000266  -0.000459   0.000133   0.594512   0.000068

                     16         17         18         19         20
                   -0.4918    -0.4323    -0.4297    -0.3910    -0.3697
                     A          A          A          A          A   
    1  N  1  S   -0.038265  -0.000087  -0.005152   0.000185  -0.000017
    2  N  1  X    0.216389  -0.000102   0.053261   0.139688  -0.000640
    3  N  1  Y    0.128483  -0.000769   0.017905   0.148331  -0.000852
    4  N  1  Z   -0.000849  -0.407850   0.006216  -0.001000  -0.279630
    5  N  2  S    0.164228   0.004077   0.247786  -0.421267   0.000423
    6  N  2  X    0.460122   0.004049   0.288639  -0.425622  -0.000115
    7  N  2  Y    0.226668  -0.002131  -0.096000  -0.214429  -0.000403
    8  N  2  Z   -0.001654  -0.221950   0.003371   0.000931  -0.243535
    9  N  3  S   -0.024617   0.002939   0.184012  -0.110812   0.000020
   10  N  3  X   -0.071561   0.002904   0.176575  -0.064255   0.000044
   11  N  3  Y    0.064043   0.000989   0.055747  -0.072621   0.000153
   12  N  3  Z   -0.000011   0.042946  -0.000938   0.000266   0.047852
   13  N  4  S    0.361191   0.001501   0.093960   0.056248   0.000136
   14  N  4  X   -0.070221   0.000119  -0.044301  -0.299004   0.000731
   15  N  4  Y   -0.388165   0.000556  -0.114440  -0.293205   0.001795
   16  N  4  Z    0.001383   0.642099  -0.009717   0.001829   0.461104
   17  N  5  S    0.196576  -0.007282  -0.446229   0.156864  -0.000013
   18  N  5  X    0.279786  -0.007231  -0.418980  -0.031094   0.000490
   19  N  5  Y   -0.239039   0.003965   0.339903   0.181121   0.001489
   20  N  5  Z    0.000007  -0.512496   0.007654  -0.000282   0.590552
   21  N  6  S   -0.120744  -0.000875  -0.058765  -0.040256  -0.000112
   22  N  6  X   -0.025877  -0.000617  -0.036559  -0.015561   0.000026
   23  N  6  Y    0.174824   0.000522   0.040777   0.029218   0.000225
   24  N  6  Z   -0.000480  -0.035641   0.000423  -0.000024   0.056167
   25  N  7  S    0.012628   0.000229   0.013069  -0.004093  -0.000009
   26  N  7  X   -0.150659   0.002866   0.163096   0.092448  -0.000399
   27  N  7  Y    0.122002  -0.003824  -0.294005  -0.008974  -0.000895
   28  N  7  Z    0.000055   0.286645  -0.003880  -0.000212  -0.330724
   29  N  8  S    0.036405   0.001167   0.086085   0.354538  -0.000394
   30  N  8  X    0.137223  -0.000122  -0.021259   0.189964  -0.000887
   31  N  8  Y    0.267345   0.005853   0.364558   0.349482  -0.001261
   32  N  8  Z   -0.001090   0.154703  -0.003143  -0.001658  -0.431618

                     21         22         23         24         25
                   -0.0322    -0.0304    -0.0215    -0.0069     0.0251
                     A          A          A          A          A   
    1  N  1  S    0.000131  -0.010734   0.008474   0.000284  -0.101895
    2  N  1  X   -0.000275  -0.413169  -0.160156  -0.000263  -0.270167
    3  N  1  Y   -0.001178  -0.440782  -0.230864  -0.001892   0.113369
    4  N  1  Z   -0.345944   0.002364   0.000301  -0.466148   0.000490
    5  N  2  S   -0.000188  -0.090248   0.087540  -0.000119   0.032911
    6  N  2  X    0.000707  -0.030080  -0.067048  -0.000126  -0.014822
    7  N  2  Y    0.001324   0.094143  -0.074256   0.000233  -0.236396
    8  N  2  Z    0.440821  -0.000320   0.000851  -0.022218   0.005795
    9  N  3  S    0.000456  -0.002665  -0.165188  -0.000258   0.338666
   10  N  3  X   -0.000837  -0.198926   0.349954  -0.000103   0.161314
   11  N  3  Y   -0.000561   0.205182  -0.456842   0.001628  -0.065502
   12  N  3  Z   -0.441880  -0.000354   0.000560   0.421442   0.003753
   13  N  4  S    0.000212   0.096751   0.090196   0.000426  -0.197463
   14  N  4  X   -0.000338   0.095861  -0.000831  -0.000754   0.010107
   15  N  4  Y    0.000378  -0.075501  -0.018101   0.000159  -0.438828
   16  N  4  Z   -0.084126   0.000363  -0.000306  -0.315803   0.002747
   17  N  5  S    0.000020   0.094662  -0.050934   0.000275  -0.212247
   18  N  5  X    0.000552   0.045146  -0.268848  -0.000321   0.358217
   19  N  5  Y    0.000260   0.062674  -0.000847  -0.000475  -0.051990
   20  N  5  Z    0.033440  -0.000240   0.000213  -0.188770  -0.003594
   21  N  6  S   -0.000729   0.052114  -0.044070  -0.001307   0.391855
   22  N  6  X    0.000496   0.393130   0.168639   0.000858   0.123635
   23  N  6  Y    0.001188   0.437025   0.226988   0.001843   0.028777
   24  N  6  Z    0.387832  -0.002339  -0.000224   0.563690  -0.000502
   25  N  7  S   -0.000080  -0.000106   0.034015   0.000057  -0.089961
   26  N  7  X    0.000804   0.207979  -0.328299   0.000192  -0.258273
   27  N  7  Y    0.000394  -0.218735   0.494771  -0.001368  -0.077343
   28  N  7  Z    0.423023   0.000392  -0.000750  -0.369538  -0.002434
   29  N  8  S   -0.000092  -0.073269  -0.058668  -0.000209   0.144733
   30  N  8  X   -0.000486   0.208305   0.055249   0.000534  -0.127844
   31  N  8  Y   -0.001111   0.089382   0.139187   0.000375  -0.077597
   32  N  8  Z   -0.391374  -0.000547  -0.000776   0.122116  -0.003864

                     26         27         28         29         30
                    0.0269     0.0410     0.1207     0.1327     0.2307
                     A          A          A          A          A   
    1  N  1  S    0.000805   0.115773   0.080110  -0.042760  -0.003507
    2  N  1  X    0.002535   0.195645   0.062633  -0.054810  -0.011954
    3  N  1  Y   -0.000316  -0.245638  -0.214200   0.087166  -0.002274
    4  N  1  Z    0.153901   0.001156   0.000574  -0.000176   0.000028
    5  N  2  S   -0.000418   0.053841   0.120912   0.385615   0.118755
    6  N  2  X    0.001304  -0.210616   0.097646  -0.435108  -0.192168
    7  N  2  Y    0.003720  -0.172766  -0.135043  -0.193340   0.389451
    8  N  2  Z    0.571475   0.000818   0.000336   0.001523  -0.000609
    9  N  3  S   -0.003189   0.374073  -0.157769  -0.141961   0.143085
   10  N  3  X   -0.001014   0.092334  -0.040896  -0.077533  -0.384163
   11  N  3  Y    0.001533  -0.012476   0.128089   0.165385  -0.354323
   12  N  3  Z    0.357257   0.000297  -0.000388  -0.000410   0.001386
   13  N  4  S    0.001675   0.157866  -0.144283   0.031387  -0.049340
   14  N  4  X    0.000382  -0.196014  -0.557884   0.145970  -0.120692
   15  N  4  Y    0.004291   0.340044  -0.145113  -0.014971  -0.075004
   16  N  4  Z    0.206909  -0.000425   0.001304  -0.000210   0.000365
   17  N  5  S    0.001910  -0.181526  -0.045950  -0.117565   0.177658
   18  N  5  X   -0.003789   0.408445  -0.102729   0.005750  -0.184590
   19  N  5  Y   -0.000399  -0.029543  -0.259422  -0.482850   0.074765
   20  N  5  Z   -0.366069  -0.000371   0.000832   0.001254  -0.000177
   21  N  6  S   -0.003082  -0.413517  -0.183080   0.085302  -0.000928
   22  N  6  X   -0.001524   0.014996   0.193985  -0.077013   0.005184
   23  N  6  Y   -0.000964   0.097654   0.112351  -0.010522   0.024505
   24  N  6  Z   -0.203963  -0.001677  -0.000956   0.000297  -0.000074
   25  N  7  S    0.000857  -0.103627   0.068644   0.062408  -0.204676
   26  N  7  X    0.002075  -0.230259   0.161776   0.168809  -0.298113
   27  N  7  Y    0.000073  -0.151281   0.057889   0.025466  -0.290618
   28  N  7  Z   -0.278993   0.000423  -0.000294  -0.000238   0.001123
   29  N  8  S   -0.001272  -0.037761   0.213063  -0.211258  -0.120947
   30  N  8  X    0.000341   0.088030  -0.447443  -0.117557  -0.390379
   31  N  8  Y   -0.000668   0.077832  -0.248456   0.429334   0.163729
   32  N  8  Z   -0.475127  -0.000386   0.001302  -0.000971   0.000265

     ----------------------------------------------------------------
     PROPERTY VALUES FOR THE RHF   SELF-CONSISTENT FIELD WAVEFUNCTION
     ----------------------------------------------------------------

                    -------------
                    MOPAC CHARGES
                    -------------
         ATOM NO.   TYPE          CHARGE        ATOM  ELECTRON DENSITY
           1         N             -0.2739          5.2739
           2         N              0.1716          4.8284
           3         N              0.6947          4.3053
           4         N             -0.5974          5.5974
           5         N             -0.4437          5.4437
           6         N              0.7962          4.2038
           7         N             -0.2230          5.2230
           8         N             -0.1246          5.1246

          ---------------------
          ELECTROSTATIC MOMENTS
          ---------------------

 POINT   1           X           Y           Z (ANGS)      CHARGE
                 0.000000    0.000000    0.000000       -0.00 (A.U.)
         DX          DY          DZ         /D/  (DEBYE)
    -2.078549   -0.103109   -0.002145    2.081106
 ...... END OF PROPERTY EVALUATION ......
 STEP CPU TIME =     0.00 TOTAL CPU TIME =        0.4 (    0.0 MIN)
 TOTAL WALL CLOCK TIME=        0.5 SECONDS, CPU UTILIZATION IS  95.65%
  $VIB   
          IVIB=   0 IATOM=   0 ICOORD=   0 E=      -47.4339284214
  4.558557127E-06-7.631614965E-06 4.913353452E-05 2.768917397E-06-2.598061484E-07
 -3.771055745E-05 3.692179470E-06-5.261584552E-06-4.083993711E-05-7.212662432E-06
 -2.686641610E-06 4.601989010E-05 2.505475316E-07 7.573112923E-06 3.787494846E-05
 -1.285778262E-06 1.131524563E-05-9.956465436E-05-4.286075072E-06-7.653949563E-07
  1.516418019E-05 1.514314241E-06-2.283316321E-06 2.992259566E-05
 -2.078548842E+00-1.031087355E-01-2.145462294E-03
 ......END OF GEOMETRY SEARCH......
 STEP CPU TIME =     0.00 TOTAL CPU TIME =        0.4 (    0.0 MIN)
 TOTAL WALL CLOCK TIME=        0.5 SECONDS, CPU UTILIZATION IS  95.65%
               580000  WORDS OF DYNAMIC MEMORY USED
 EXECUTION OF GAMESS TERMINATED NORMALLY Fri Jun  2 02:08:57 2017
 DDI: 263640 bytes (0.3 MB / 0 MWords) used by master data server.

 ----------------------------------------
 CPU timing information for all processes
 ========================================
 0: 0.385 + 0.65 = 0.451
 ----------------------------------------
 ddikick.x: exited gracefully.
unset echo
----- accounting info -----
Files used on the master node compute-0-2.local were:
-rw-rw-r-- 1 sarom sarom    1612 Jun  2 02:08 /scratch/opt-n8.F05
-rw-rw-r-- 1 sarom sarom       0 Jun  2 02:08 /scratch/opt-n8.F08
-rw-rw-r-- 1 sarom sarom 1766880 Jun  2 02:08 /scratch/opt-n8.F10
rm: cannot remove `/scratch/sarom': Is a directory
rm: cannot remove `/scratch/tmp': Is a directory
ls: No match.
ls: No match.
ls: No match.
Fri Jun  2 02:09:00 CDT 2017
0.143u 0.054s 0:03.73 5.0%	0+0k 8+376io 0pf+0w
Deleting shmid=3964928.
Deleting shmid=3997697.
Deleting shmid=4227074.
/opt/gridengine/default/spool/compute-0-2/active_jobs/23687.1/pe_hostfile compute-0-2.local
