----- GAMESS execution script 'rungms' -----
This job is running on host compute-3-0
under operating system Linux at Mon Nov 28 22:14:04 CST 2016
Available scratch disk space (Kbyte units) at beginning of the job is
Filesystem            1K-blocks       Used  Available Use% Mounted on
bolt.local:/export/home/sarom
                     9590469632 1553061888 7550239744  18% /home/sarom
Copying input file opt-acthcp.inp to your run's scratch directory...
cp opt-acthcp.inp .//opt-acthcp.F05
unset echo
/home/sarom/gamessGH/ddikick.x /home/sarom/gamessGH/gamess.00.x opt-acthcp -ddi 1 1 localhost -scr ./

 Distributed Data Interface kickoff program.
 Initiating 1 compute processes on 1 nodes to run the following command:
 /home/sarom/gamessGH/gamess.00.x opt-acthcp 

          ******************************************************
          *         GAMESS VERSION = 18 AUG 2016 (R1)          *
          *             FROM IOWA STATE UNIVERSITY             *
          * M.W.SCHMIDT, K.K.BALDRIDGE, J.A.BOATZ, S.T.ELBERT, *
          *   M.S.GORDON, J.H.JENSEN, S.KOSEKI, N.MATSUNAGA,   *
          *          K.A.NGUYEN, S.J.SU, T.L.WINDUS,           *
          *       TOGETHER WITH M.DUPUIS, J.A.MONTGOMERY       *
          *         J.COMPUT.CHEM.  14, 1347-1363(1993)        *
          **************** 64 BIT LINUX VERSION ****************

  SINCE 1993, STUDENTS AND POSTDOCS WORKING AT IOWA STATE UNIVERSITY
  AND ALSO IN THEIR VARIOUS JOBS AFTER LEAVING ISU HAVE MADE IMPORTANT
  CONTRIBUTIONS TO THE CODE:
     IVANA ADAMOVIC, CHRISTINE AIKENS, YURI ALEXEEV, POOJA ARORA,
     ANDREY ASADCHEV, ROB BELL, PRADIPTA BANDYOPADHYAY, JONATHAN BENTZ,
     BRETT BODE, KURT BRORSEN, CALEB CARLIN, GALINA CHABAN, WEI CHEN,
     CHEOL HO CHOI, PAUL DAY, ALBERT DEFUSCO, NUWAN DESILVA, TIM DUDLEY,
     DMITRI FEDOROV, GRAHAM FLETCHER, MARK FREITAG, KURT GLAESEMANN,
     DAN KEMP, GRANT MERRILL, NORIYUKI MINEZAWA, JONATHAN MULLIN,
     TAKESHI NAGATA, SEAN NEDD, HEATHER NETZLOFF, BOSILJKA NJEGIC, RYAN OLSON,
     MIKE PAK, SPENCER PRUITT, LUKE ROSKOP, JIM SHOEMAKER, LYUDMILA SLIPCHENKO,
     TONY SMITH, SAROM SOK LEANG, JIE SONG, TETSUYA TAKETSUGU, SIMON WEBB,
     PENG XU, SOOHAENG YOO, FEDERICO ZAHARIEV

  ADDITIONAL CODE HAS BEEN PROVIDED BY COLLABORATORS IN OTHER GROUPS:
     IOWA STATE UNIVERSITY:
          JOE IVANIC, AARON WEST, LAIMUTIS BYTAUTAS, KLAUS RUEDENBERG
     UNIVERSITY OF TOKYO: KIMIHIKO HIRAO, TAKAHITO NAKAJIMA,
          TAKAO TSUNEDA, MUNEAKI KAMIYA, SUSUMU YANAGISAWA,
          KIYOSHI YAGI, MAHITO CHIBA, SEIKEN TOKURA, NAOAKI KAWAKAMI
     UNIVERSITY OF AARHUS: FRANK JENSEN
     UNIVERSITY OF IOWA: VISVALDAS KAIRYS, HUI LI
     NATIONAL INST. OF STANDARDS AND TECHNOLOGY: WALT STEVENS, DAVID GARMER
     UNIVERSITY OF PISA: BENEDETTA MENNUCCI, JACOPO TOMASI
     UNIVERSITY OF MEMPHIS: HENRY KURTZ, PRAKASHAN KORAMBATH
     UNIVERSITY OF ALBERTA: TOBY ZENG, MARIUSZ KLOBUKOWSKI
     UNIVERSITY OF NEW ENGLAND: MARK SPACKMAN
     MIE UNIVERSITY: HIROAKI UMEDA
     NAT. INST. OF ADVANCED INDUSTRIAL SCIENCE AND TECHNOLOGY: KAZUO KITAURA
     MICHIGAN STATE UNIVERSITY:
          KAROL KOWALSKI, MARTA WLOCH, JEFFREY GOUR, JESSE LUTZ,
          WEI LI, PIOTR PIECUCH
     UNIVERSITY OF SILESIA: MONIKA MUSIAL, STANISLAW KUCHARSKI
     FACULTES UNIVERSITAIRES NOTRE-DAME DE LA PAIX:
          OLIVIER QUINET, BENOIT CHAMPAGNE
     UNIVERSITY OF CALIFORNIA - SANTA BARBARA: BERNARD KIRTMAN
     INSTITUTE FOR MOLECULAR SCIENCE:
          KAZUYA ISHIMURA, MICHIO KATOUDA, AND SHIGERU NAGASE
     UNIVERSITY OF NOTRE DAME: ANNA POMOGAEVA, DAN CHIPMAN
     KYUSHU UNIVERSITY:
          HARUYUKI NAKANO,
          FENG LONG GU, JACEK KORCHOWIEC, MARCIN MAKOWSKI, AND YURIKO AOKI,
          HIROTOSHI MORI AND EISAKU MIYOSHI
     PENNSYLVANIA STATE UNIVERSITY:
          TZVETELIN IORDANOV, CHET SWALINA, JONATHAN SKONE,
          SHARON HAMMES-SCHIFFER
     WASEDA UNIVERSITY:
          MASATO KOBAYASHI, TOMOKO AKAMA, TSUGUKI TOUMA,
          TAKESHI YOSHIKAWA, YASUHIRO IKABATA, JUNJI SEINO,
          YUYA NAKAJIMA, HIROMI NAKAI
     NANJING UNIVERSITY: SHUHUA LI
     UNIVERSITY OF NEBRASKA:
          PEIFENG SU, DEJUN SI, NANDUN THELLAMUREGE, YALI WANG, HUI LI
     UNIVERSITY OF ZURICH: ROBERTO PEVERATI, KIM BALDRIDGE
     N. COPERNICUS UNIVERSITY AND JACKSON STATE UNIVERSITY:
          MARIA BARYSZ
     UNIVERSITY OF COPENHAGEN: Jimmy Kromann, CASPER STEINMANN
     TOKYO INSTITUTE OF TECHNOLOGY: HIROYA NAKATA
     NAGOYA UNIVERSITY: YOSHIO NISHIMOTO, STEPHAN IRLE
     MOSCOW STATE UNIVERSITY: VLADIMIR MIRONOV

 EXECUTION OF GAMESS BEGUN Mon Nov 28 22:14:05 2016

            ECHO OF THE FIRST FEW INPUT CARDS -
 INPUT CARD>!   ACTHCP geometry optimization test case.  Created in late 1990s.             
 INPUT CARD>!   the real point of this test is to show that Cartesian coordinates           
 INPUT CARD>!   are the worst, and supplying a good hessian is the best.                    
 INPUT CARD>!   See below for the results of 5 different coordinate choices.                
 INPUT CARD>!                                                                               
 INPUT CARD>!   By default, this run uses natural internal coordinates,                     
 INPUT CARD>!   and reads a hessian, so it ends in only 13 steps.                           
 INPUT CARD>!        NSERCH:   0  E=     -838.8925272701  R.M.S.=  0.0339528                
 INPUT CARD>!        NSERCH:   1  E=     -838.9224235161  R.M.S.=  0.0082974                
 INPUT CARD>!            ...snipped...                                                      
 INPUT CARD>!        NSERCH:  12  E=     -838.9308513070  R.M.S.=  0.0000577                
 INPUT CARD>!        NSERCH:  13  E=     -838.9308515950  R.M.S.=  0.0000228                
 INPUT CARD>!                                                                               
 INPUT CARD>!   This run takes 19 seconds on 2.66 GHz Cloverton (28 Apr 2015)               
 INPUT CARD>!                                                                               
 INPUT CARD>!   --------------------------------------------------------------              
 INPUT CARD>!   This molecule is a famous geometry optimization test                        
 INPUT CARD>!                                                                               
 INPUT CARD>!           O10    H9 H14 H13                                                   
 INPUT CARD>!            \\    |    \/                                                      
 INPUT CARD>!             C3---C1---C6                                                      
 INPUT CARD>!            /     |     \                                                      
 INPUT CARD>!       H11-N4     |      S8                                                    
 INPUT CARD>!            \     |     /                                                      
 INPUT CARD>!             C5---N2---C7                                                      
 INPUT CARD>!            //         /\                                                      
 INPUT CARD>!           O12       H16 H15                                                   
 INPUT CARD>!   See:                                                                        
 INPUT CARD>!     H.B.Schlegel,  Int.J.Quantum Chem., Symp. 26, 243-252(1992)               
 INPUT CARD>!     T.H.Fischer and J.Almlof,  J.Phys.Chem. 96, 9768-9774(1992)               
 INPUT CARD>!     J.Baker,  J.Comput.Chem. 14, 1085-1100(1993)                              
 INPUT CARD>!                                                                               
 INPUT CARD>!   The Z-matrix in $DATA is exactly that given by Schlegel,                    
 INPUT CARD>!   with coordinates from a molecular mechanics minimization.                   
 INPUT CARD>!   Each ring has two open sides, because of how the ZMAT input                 
 INPUT CARD>!   works, this can't be avoided.                                               
 INPUT CARD>!                                                                               
 INPUT CARD>!   Both $ZMATs uses all bonds, so that the rings are closed                    
 INPUT CARD>!   by chemical bonds.  The first group uses two alternating                    
 INPUT CARD>!   angles and two torsions to define each five membered ring,                  
 INPUT CARD>!   as recommended in the REFS.DOC section on internals.                        
 INPUT CARD>!                                                                               
 INPUT CARD>!   The 2nd $ZMAT uses Pulay's natural internal coordinates to                  
 INPUT CARD>!   describe each 5 membered ring, and the various methylene                    
 INPUT CARD>!   and carbonyl groups which form their edges.  The natural                    
 INPUT CARD>!   coordinates give a monotonic decrease in energy, except                     
 INPUT CARD>!   for a small rise on the 4th step when a hessian is read in.                 
 INPUT CARD>!                                                                               
 INPUT CARD>!   The geometry search is complicated for reasons apart from                   
 INPUT CARD>!   the inclusion of fused rings.  At the initial geometry, the                 
    1000000 WORDS OF MEMORY AVAILABLE

     BASIS OPTIONS
     -------------
     GBASIS=STO          IGAUSS=       3      POLAR=NONE    
     NDFUNC=       0     NFFUNC=       0     DIFFSP=       F
     NPFUNC=       0      DIFFS=       F     BASNAM=        


     RUN TITLE
     ---------
 ACTHCP geometry optimization test                                               

 THE POINT GROUP OF THE MOLECULE IS C1      
 THE ORDER OF THE PRINCIPAL AXIS IS     0

 YOUR FULLY SUBSTITUTED Z-MATRIX IS
 C   
 N      1   1.4763000
 C      1   1.5142000  2   99.1882
 N      1   2.3316000  2   64.9195  3   -6.3596  0
 C      2   1.3397000  1  112.8177  3    5.3108  0
 C      1   1.5277000  2  101.7456  3  122.7439  0
 C      2   1.4667000  1  122.6016  6  -34.1633  0
 S      1   2.6282000  2   69.6216  6   29.1542  0
 H      1   1.0872000  2  110.1242  3 -115.5422  0
 O      3   1.2263000  1  127.3698  2  173.4622  0
 H      4   1.0141000  3  124.2840  1 -179.3990  0
 O      5   1.2516000  2  126.5097  1 -179.3990  0
 H      6   1.0851000  1  110.4262  2  -75.3678  0
 H      6   1.0841000  1  111.8364  2  163.4138  0
 H      7   1.0843000  2  110.9696  1  123.1421  0
 H      7   1.0835000  2  111.1680  1 -113.1194  0

 THE MOMENTS OF INERTIA ARE (AMU-ANGSTROM**2)
 IXX=   279.584   IYY=   451.315   IZZ=   703.125

 ATOM      ATOMIC                      COORDINATES (BOHR)
           CHARGE         X                   Y                   Z
 C           6.0    -0.0991389295        1.6171593291       -0.9347998499
 N           7.0     0.2183409961       -1.1342566764       -0.6002638801
 C           6.0    -2.8347078275        1.8623819653       -0.1321350590
 N           7.0    -3.7830033093       -0.5788618259        0.0752597228
 C           6.0    -1.9401458749       -2.3035495992        0.0186228193
 C           6.0     1.9773961995        2.6608796909        0.7778121449
 C           6.0     2.6950117128       -2.3149157680       -0.2075151592
 S          16.0     4.6367787888        0.5357236844        0.0988711627
 H           1.0     0.1047276905        2.1163682036       -2.9172832992
 O           8.0    -4.0464221474        3.8166877551        0.1553463143
 H           1.0    -5.5861317006       -0.9980383559        0.5707365907
 O           8.0    -2.2193197345       -4.6152203572        0.4337392416
 H           1.0     1.4277685011        2.5027067895        2.7469774158
 H           1.0     2.3895216925        4.6248792206        0.3657038945
 H           1.0     2.7251247275       -3.3937986790        1.5342162652
 H           1.0     3.2133363301       -3.4930391084       -1.7999018544

          INTERNUCLEAR DISTANCES (ANGS.)
          ------------------------------

                1 C          2 N          3 C          4 N          5 C     

   1 C       0.0000000    1.4763000 *  1.5142000 *  2.3316000 *  2.3469640 *
   2 N       1.4763000 *  0.0000000    2.2773132 *  2.1674025 *  1.3397000 *
   3 C       1.5142000 *  2.2773132 *  0.0000000    1.3902311 *  2.2561796 *
   4 N       2.3316000 *  2.1674025 *  1.3902311 *  0.0000000    1.3359896 *
   5 C       2.3469640 *  1.3397000 *  2.2561796 *  1.3359896 *  0.0000000  
   6 C       1.5277000 *  2.3305695 *  2.6258044 *  3.5170072    3.3705335  
   7 C       2.5814650 *  1.4667000 *  3.6675189    3.5521365    2.4557447 *
   8 S       2.6282000 *  2.5267987 *  4.0174452    4.4944438    3.7910611  
   9 H       1.0872000 *  2.1132698 *  2.1470411 *  2.9621654 *  3.0091871  
  10 O       2.4598142 *  3.4809649    1.2263000 *  2.3305833 *  3.4258822  
  11 H       3.3137225    3.1343067    2.1329432 *  1.0141000 *  2.0700506 *
  12 O       3.5581267    2.3144147 *  3.4562303    2.2984699 *  1.2516000 *
  13 H       2.1606460 *  2.6927918 *  2.7429564 *  3.5016296    3.4248385  
  14 H       2.1774291 *  3.2968535    3.1383293    4.2749971    4.3272857  
  15 H       3.3124216    2.1131009 *  4.1436944    3.8308981    2.6591047 *
  16 H       3.2549788    2.1149211 *  4.3650169    4.1315640    2.9596244 *

                6 C          7 C          8 S          9 H         10 O     

   1 C       1.5277000 *  2.5814650 *  2.6282000 *  1.0872000 *  2.4598142 *
   2 N       2.3305695 *  1.4667000 *  2.5267987 *  2.1132698 *  3.4809649  
   3 C       2.6258044 *  3.6675189    4.0174452    2.1470411 *  1.2263000 *
   4 N       3.5170072    3.5521365    4.4944438    2.9621654 *  2.3305833 *
   5 C       3.3705335    2.4557447 *  3.7910611    3.0091871    3.4258822  
   6 C       0.0000000    2.7109365 *  1.8369056 *  2.2109929 *  3.2624858  
   7 C       2.7109365 *  0.0000000    1.8323963 *  3.0714485    4.8261186  
   8 S       1.8369056 *  1.8323963 *  0.0000000    2.9997915 *  4.9121188  
   9 H       2.2109929 *  3.0714485    2.9997915 *  0.0000000    2.8772932 *
  10 O       3.2624858    4.8261186    4.9121188    2.8772932 *  0.0000000  
  11 H       4.4475299    4.4563253    5.4759742    3.8976946    2.6839692 *
  12 O       4.4486293    2.8913260 *  4.5413906    4.1648917    4.5679027  
  13 H       1.0851000 *  3.0648647    2.4353216 *  3.0848603    3.2796125  
  14 H       1.0841000 *  3.6884322    2.4731639 *  2.4984181 *  3.4343072  
  15 H       3.2530577    1.0843000 *  2.4339728 *  3.9967517    5.2850541  
  16 H       3.5907269    1.0835000 *  2.4742903 *  3.4448358    5.5490283  

               11 H         12 O         13 H         14 H         15 H     

   1 C       3.3137225    3.5581267    2.1606460 *  2.1774291 *  3.3124216  
   2 N       3.1343067    2.3144147 *  2.6927918 *  3.2968535    2.1131009 *
   3 C       2.1329432 *  3.4562303    2.7429564 *  3.1383293    4.1436944  
   4 N       1.0141000 *  2.2984699 *  3.5016296    4.2749971    3.8308981  
   5 C       2.0700506 *  1.2516000 *  3.4248385    4.3272857    2.6591047 *
   6 C       4.4475299    4.4486293    1.0851000 *  1.0841000 *  3.2530577  
   7 C       4.4563253    2.8913260 *  3.0648647    3.6884322    1.0843000 *
   8 S       5.4759742    4.5413906    2.4353216 *  2.4731639 *  2.4339728 *
   9 H       3.8976946    4.1648917    3.0848603    2.4984181 *  3.9967517  
  10 O       2.6839692 *  4.5679027    3.2796125    3.4343072    5.2850541  
  11 H       0.0000000    2.6159880 *  4.3051110    5.1651139    4.6055127  
  12 O       2.6159880 *  0.0000000    4.4057688    5.4642641    2.7573360 *
  13 H       4.3051110    4.4057688    0.0000000    1.7629664 *  3.2587481  
  14 H       5.1651139    5.4642641    1.7629664 *  0.0000000    4.2917954  
  15 H       4.6055127    2.7573360 *  3.2587481    4.2917954    0.0000000  
  16 H       4.9999716    3.1645594    4.0925397    4.4673693    1.7839273 *

               16 H     

   1 C       3.2549788  
   2 N       2.1149211 *
   3 C       4.3650169  
   4 N       4.1315640  
   5 C       2.9596244 *
   6 C       3.5907269  
   7 C       1.0835000 *
   8 S       2.4742903 *
   9 H       3.4448358  
  10 O       5.5490283  
  11 H       4.9999716  
  12 O       3.1645594  
  13 H       4.0925397  
  14 H       4.4673693  
  15 H       1.7839273 *
  16 H       0.0000000  

  * ... LESS THAN  3.000


     ATOMIC BASIS SET
     ----------------
 THE CONTRACTED PRIMITIVE FUNCTIONS HAVE BEEN UNNORMALIZED
 THE CONTRACTED BASIS FUNCTIONS ARE NOW NORMALIZED TO UNITY

  SHELL TYPE  PRIMITIVE        EXPONENT          CONTRACTION COEFFICIENT(S)

 C         

      1   S       1            71.6168373    0.154328967295
      1   S       2            13.0450963    0.535328142282
      1   S       3             3.5305122    0.444634542185

      2   L       4             2.9412494   -0.099967229187    0.155916274999
      2   L       5             0.6834831    0.399512826089    0.607683718598
      2   L       6             0.2222899    0.700115468880    0.391957393099

 N         

      3   S       7            99.1061690    0.154328967295
      3   S       8            18.0523124    0.535328142282
      3   S       9             4.8856602    0.444634542185

      4   L      10             3.7804559   -0.099967229187    0.155916274999
      4   L      11             0.8784966    0.399512826089    0.607683718598
      4   L      12             0.2857144    0.700115468880    0.391957393099

 C         

      5   S      13            71.6168373    0.154328967295
      5   S      14            13.0450963    0.535328142282
      5   S      15             3.5305122    0.444634542185

      6   L      16             2.9412494   -0.099967229187    0.155916274999
      6   L      17             0.6834831    0.399512826089    0.607683718598
      6   L      18             0.2222899    0.700115468880    0.391957393099

 N         

      7   S      19            99.1061690    0.154328967295
      7   S      20            18.0523124    0.535328142282
      7   S      21             4.8856602    0.444634542185

      8   L      22             3.7804559   -0.099967229187    0.155916274999
      8   L      23             0.8784966    0.399512826089    0.607683718598
      8   L      24             0.2857144    0.700115468880    0.391957393099

 C         

      9   S      25            71.6168373    0.154328967295
      9   S      26            13.0450963    0.535328142282
      9   S      27             3.5305122    0.444634542185

     10   L      28             2.9412494   -0.099967229187    0.155916274999
     10   L      29             0.6834831    0.399512826089    0.607683718598
     10   L      30             0.2222899    0.700115468880    0.391957393099

 C         

     11   S      31            71.6168373    0.154328967295
     11   S      32            13.0450963    0.535328142282
     11   S      33             3.5305122    0.444634542185

     12   L      34             2.9412494   -0.099967229187    0.155916274999
     12   L      35             0.6834831    0.399512826089    0.607683718598
     12   L      36             0.2222899    0.700115468880    0.391957393099

 C         

     13   S      37            71.6168373    0.154328967295
     13   S      38            13.0450963    0.535328142282
     13   S      39             3.5305122    0.444634542185

     14   L      40             2.9412494   -0.099967229187    0.155916274999
     14   L      41             0.6834831    0.399512826089    0.607683718598
     14   L      42             0.2222899    0.700115468880    0.391957393099

 S         

     15   S      43           533.1257359    0.154328967295
     15   S      44            97.1095183    0.535328142282
     15   S      45            26.2816254    0.444634542185

     16   L      46            33.3297517   -0.099967229187    0.155916274999
     16   L      47             7.7451175    0.399512826089    0.607683718598
     16   L      48             2.5189526    0.700115468880    0.391957393099

     17   L      49             1.7985832   -0.219620369005    0.010587604289
     17   L      50             0.5018001    0.225595433605    0.595167005266
     17   L      51             0.1964012    0.900398426019    0.462001011973

 H         

     18   S      52             3.4252509    0.154328967295
     18   S      53             0.6239137    0.535328142282
     18   S      54             0.1688554    0.444634542185

 O         

     19   S      55           130.7093214    0.154328967295
     19   S      56            23.8088661    0.535328142282
     19   S      57             6.4436083    0.444634542185

     20   L      58             5.0331513   -0.099967229187    0.155916274999
     20   L      59             1.1695961    0.399512826089    0.607683718598
     20   L      60             0.3803890    0.700115468880    0.391957393099

 H         

     21   S      61             3.4252509    0.154328967295
     21   S      62             0.6239137    0.535328142282
     21   S      63             0.1688554    0.444634542185

 O         

     22   S      64           130.7093214    0.154328967295
     22   S      65            23.8088661    0.535328142282
     22   S      66             6.4436083    0.444634542185

     23   L      67             5.0331513   -0.099967229187    0.155916274999
     23   L      68             1.1695961    0.399512826089    0.607683718598
     23   L      69             0.3803890    0.700115468880    0.391957393099

 H         

     24   S      70             3.4252509    0.154328967295
     24   S      71             0.6239137    0.535328142282
     24   S      72             0.1688554    0.444634542185

 H         

     25   S      73             3.4252509    0.154328967295
     25   S      74             0.6239137    0.535328142282
     25   S      75             0.1688554    0.444634542185

 H         

     26   S      76             3.4252509    0.154328967295
     26   S      77             0.6239137    0.535328142282
     26   S      78             0.1688554    0.444634542185

 H         

     27   S      79             3.4252509    0.154328967295
     27   S      80             0.6239137    0.535328142282
     27   S      81             0.1688554    0.444634542185

 TOTAL NUMBER OF BASIS SET SHELLS             =   27
 NUMBER OF CARTESIAN GAUSSIAN BASIS FUNCTIONS =   60
 NUMBER OF ELECTRONS                          =   82
 CHARGE OF MOLECULE                           =    0
 SPIN MULTIPLICITY                            =    1
 NUMBER OF OCCUPIED ORBITALS (ALPHA)          =   41
 NUMBER OF OCCUPIED ORBITALS (BETA )          =   41
 TOTAL NUMBER OF ATOMS                        =   16
 THE NUCLEAR REPULSION ENERGY IS      629.7000811102

     $CONTRL OPTIONS
     ---------------
 SCFTYP=RHF          RUNTYP=OPTIMIZE     EXETYP=RUN     
 MPLEVL=       0     CITYP =NONE         CCTYP =NONE         VBTYP =NONE    
 DFTTYP=NONE         TDDFT =NONE    
 MULT  =       1     ICHARG=       0     NZVAR =      61     COORD =ZMT     
 PP    =NONE         RELWFN=NONE         LOCAL =NONE         NUMGRD=       F
 ISPHER=      -1     NOSYM =       0     MAXIT =      30     UNITS =ANGS    
 PLTORB=       F     MOLPLT=       F     AIMPAC=       F     FRIEND=        
 NPRINT=       7     IREST =       0     GEOM  =INPUT   
 NORMF =       0     NORMP =       0     ITOL  =      20     ICUT  =       9
 INTTYP=BEST         GRDTYP=BEST         QMTTOL= 1.0E-06

     $SYSTEM OPTIONS
     ---------------
  REPLICATED MEMORY=     1000000 WORDS (ON EVERY NODE).
 DISTRIBUTED MEMDDI=           0 MILLION WORDS IN AGGREGATE,
 MEMDDI DISTRIBUTED OVER   1 PROCESSORS IS           0 WORDS/PROCESSOR.
 TOTAL MEMORY REQUESTED ON EACH PROCESSOR=     1000000 WORDS.
 TIMLIM=      525600.00 MINUTES, OR     365.0 DAYS.
 PARALL= F  BALTYP=  DLB     KDIAG=    0  COREFL= F
 MXSEQ2=     300 MXSEQ3=     150  mem10=         0

          ----------------
          PROPERTIES INPUT
          ----------------

     MOMENTS            FIELD           POTENTIAL          DENSITY
 IEMOM =       1   IEFLD =       0   IEPOT =       0   IEDEN =       0
 WHERE =COMASS     WHERE =NUCLEI     WHERE =NUCLEI     WHERE =NUCLEI  
 OUTPUT=BOTH       OUTPUT=BOTH       OUTPUT=BOTH       OUTPUT=BOTH    
 IEMINT=       0   IEFINT=       0                     IEDINT=       0
                                                       MORB  =       0
          EXTRAPOLATION IN EFFECT
          SOSCF IN EFFECT
 ORBITAL PRINTING OPTION: NPREO=     1    60     2     1

     -------------------------------
     INTEGRAL TRANSFORMATION OPTIONS
     -------------------------------
     NWORD  =            0
     CUTOFF = 1.0E-09     MPTRAN =       0
     DIRTRF =       F     AOINTS =DUP     

          ----------------------
          INTEGRAL INPUT OPTIONS
          ----------------------
 NOPK  =       1 NORDER=       0 SCHWRZ=       T

   --- ENCODED Z MATRIX ---
 COORD  TYPE   I   J   K   L   M   N
    1      1    1   2
    2      1    2   5
    3      1    5   4
    4      1    4   3
    5      1    3   1
    6      1    1   6
    7      1    6   8
    8      1    7   8
    9      1    7   2
   10      1    1   9
   11      1    3  10
   12      1    4  11
   13      1    5  12
   14      1    6  13
   15      1    6  14
   16      1    7  15
   17      1    7  16
   18      2    7   8   6
   19      2    8   6   1
   20      2    6   1   2
   21      2    1   2   7
   22      2    2   7   8
   23      3    7   8   6   1
   24      3    8   6   1   2
   25      3    6   1   2   7
   26      3    1   2   7   8
   27      3    2   7   8   6
   28      2    3   4   5
   29      2    4   5   2
   30      2    5   2   1
   31      2    2   1   3
   32      2    1   3   4
   33      3    3   4   5   2
   34      3    4   5   2   1
   35      3    5   2   1   3
   36      3    2   1   3   4
   37      3    1   3   4   5
   38      2    9   1   2
   39      2    9   1   3
   40      2    9   1   6
   41      2   13   6   1
   42      2   13   6   8
   43      2   14   6   1
   44      2   14   6   8
   45      2   15   7   2
   46      2   15   7   8
   47      2   16   7   2
   48      2   16   7   8
   49      2   10   3   1
   50      2   10   3   4
   51      4   10   3   4   1
   52      2   11   4   3
   53      2   11   4   5
   54      4   11   4   3   5
   55      2   12   5   2
   56      2   12   5   4
   57      4   12   5   2   4
   58      3    6   1   2   5
   59      3    7   2   1   3
   60      2   13   6  14
   61      2   15   7  16

          INDEP./SYM. INTERNAL COORDINATES
          --------------------------------
 CRD  1=   1.0000 (  1)
 CRD  2=   1.0000 (  2)
 CRD  3=   1.0000 (  3)
 CRD  4=   1.0000 (  4)
 CRD  5=   1.0000 (  5)
 CRD  6=   1.0000 (  6)
 CRD  7=   1.0000 (  7)
 CRD  8=   1.0000 (  8)
 CRD  9=   1.0000 (  9)
 CRD 10=   1.0000 ( 10)
 CRD 11=   1.0000 ( 11)
 CRD 12=   1.0000 ( 12)
 CRD 13=   1.0000 ( 13)
 CRD 14=   1.0000 ( 14)
 CRD 15=   1.0000 ( 15)
 CRD 16=   1.0000 ( 16)
 CRD 17=   1.0000 ( 17)
 CRD 18=   0.6325 ( 18) -0.5117 ( 19)  0.1954 ( 20)  0.1954 ( 21) -0.5117 ( 22)
 CRD 19=  -0.3717 ( 19)  0.6015 ( 20) -0.6015 ( 21)  0.3717 ( 22)
 CRD 20=   0.1954 ( 23) -0.5117 ( 24)  0.6325 ( 25) -0.5117 ( 26)  0.1954 ( 27)
 CRD 21=  -0.6015 ( 23)  0.3717 ( 24) -0.3717 ( 26)  0.6015 ( 27)
 CRD 22=   0.6325 ( 28) -0.5117 ( 29)  0.1954 ( 30)  0.1954 ( 31) -0.5117 ( 32)
 CRD 23=  -0.3717 ( 29)  0.6015 ( 30) -0.6015 ( 31)  0.3717 ( 32)
 CRD 24=   0.1954 ( 33) -0.5117 ( 34)  0.6325 ( 35) -0.5117 ( 36)  0.1954 ( 37)
 CRD 25=  -0.6015 ( 33)  0.3717 ( 34) -0.3717 ( 36)  0.6015 ( 37)
 CRD 26=   0.8165 ( 38) -0.4082 ( 39) -0.4082 ( 40)
 CRD 27=   0.7071 ( 39) -0.7071 ( 40)
 CRD 28=   0.5000 ( 41) -0.5000 ( 42)  0.5000 ( 43) -0.5000 ( 44)
 CRD 29=   0.5000 ( 41)  0.5000 ( 42) -0.5000 ( 43) -0.5000 ( 44)
 CRD 30=   0.5000 ( 41) -0.5000 ( 42) -0.5000 ( 43)  0.5000 ( 44)
 CRD 31=   0.5000 ( 45) -0.5000 ( 46)  0.5000 ( 47) -0.5000 ( 48)
 CRD 32=   0.5000 ( 45)  0.5000 ( 46) -0.5000 ( 47) -0.5000 ( 48)
 CRD 33=   0.5000 ( 45) -0.5000 ( 46) -0.5000 ( 47)  0.5000 ( 48)
 CRD 34=   0.7071 ( 49) -0.7071 ( 50)
 CRD 35=   1.0000 ( 51)
 CRD 36=   0.7071 ( 52) -0.7071 ( 53)
 CRD 37=   1.0000 ( 54)
 CRD 38=   0.7071 ( 55) -0.7071 ( 56)
 CRD 39=   1.0000 ( 57)
 CRD 40=   0.7071 ( 58) -0.7071 ( 59)
 CRD 41=  -0.2236 ( 41) -0.2236 ( 42) -0.2236 ( 43) -0.2236 ( 44)  0.8944 ( 60)
 CRD 42=  -0.2236 ( 45) -0.2236 ( 46) -0.2236 ( 47) -0.2236 ( 48)  0.8944 ( 61)

 THE DETERMINANT OF THE G MATRIX IS 10**(   -33)


                     --------------------
                     INTERNAL COORDINATES
                     --------------------

                 - - ATOMS - -         COORDINATE      COORDINATE
 NO.   TYPE    I  J  K  L  M  N        (BOHR,RAD)       (ANG,DEG)
 ----------------------------------------------------------------
   1 STRETCH   1  2                     2.7898025       1.4763000
   2 STRETCH   2  5                     2.5316659       1.3397000
   3 STRETCH   5  4                     2.5246543       1.3359896
   4 STRETCH   4  3                     2.6271559       1.3902311
   5 STRETCH   3  1                     2.8614231       1.5142000
   6 STRETCH   1  6                     2.8869344       1.5277000
   7 STRETCH   6  8                     3.4712483       1.8369056
   8 STRETCH   7  8                     3.4627269       1.8323963
   9 STRETCH   7  2                     2.7716611       1.4667000
  10 STRETCH   1  9                     2.0545101       1.0872000
  11 STRETCH   3 10                     2.3173710       1.2263000
  12 STRETCH   4 11                     1.9163711       1.0141000
  13 STRETCH   5 12                     2.3651810       1.2516000
  14 STRETCH   6 13                     2.0505417       1.0851000
  15 STRETCH   6 14                     2.0486519       1.0841000
  16 STRETCH   7 15                     2.0490299       1.0843000
  17 STRETCH   7 16                     2.0475181       1.0835000
  18 BEND      7  8  6                  1.6626201      95.2611159
  19 BEND      8  6  1                  1.7861496     102.3388358
  20 BEND      6  1  2                  1.7757957     101.7456000
  21 BEND      1  2  7                  2.1398016     122.6016000
  22 BEND      2  7  8                  1.7344660      99.3775832
  23 TORSION   7  8  6  1              -0.6523050     -37.3743250
  24 TORSION   8  6  1  2               0.7326537      41.9779640
  25 TORSION   6  1  2  7              -0.5962621     -34.1633000
  26 TORSION   1  2  7  8               0.1192688       6.8336015
  27 TORSION   2  7  8  6               0.3200363      18.3367307
  28 BEND      3  4  5                  1.9493152     111.6875335
  29 BEND      4  5  2                  1.8884226     108.1986433
  30 BEND      5  2  1                  1.9690403     112.8177000
  31 BEND      2  1  3                  1.7311607      99.1882000
  32 BEND      1  3  4                  1.8625083     106.7138669
  33 TORSION   3  4  5  2              -0.1586582      -9.0904467
  34 TORSION   4  5  2  1               0.0304607       1.7452715
  35 TORSION   5  2  1  3               0.0926909       5.3108000
  36 TORSION   2  1  3  4              -0.1765952     -10.1181600
  37 TORSION   1  3  4  5               0.2176775      12.4719998
  38 BEND      9  1  2                  1.9220299     110.1242000
  39 BEND      9  1  3                  1.9227361     110.1646608
  40 BEND      9  1  6                  1.9967741     114.4067302
  41 BEND     13  6  1                  1.9273008     110.4262000
  42 BEND     13  6  8                  1.9240511     110.2400053
  43 BEND     14  6  1                  1.9519134     111.8364000
  44 BEND     14  6  8                  1.9751832     113.1696601
  45 BEND     15  7  2                  1.9367849     110.9696000
  46 BEND     15  7  8                  1.9283765     110.4878346
  47 BEND     16  7  2                  1.9402476     111.1680000
  48 BEND     16  7  8                  1.9829021     113.6119208
  49 BEND     10  3  1                  2.2230224     127.3698000
  50 BEND     10  3  4                  2.1958214     125.8112992
  51 PLA.BEND 10  3  4  1              -0.0496503      -2.8447533
  52 BEND     11  4  3                  2.1691650     124.2840000
  53 BEND     11  4  5                  2.1450218     122.9006969
  54 PLA.BEND 11  4  3  5              -0.1707973      -9.7859658
  55 BEND     12  5  2                  2.2080108     126.5097000
  56 BEND     12  5  4                  2.1865654     125.2809688
  57 PLA.BEND 12  5  2  4              -0.0160517      -0.9196936
  58 TORSION   6  1  2  5               2.2349761     128.0547000
  59 TORSION   7  2  1  3              -2.7385473    -156.9072000
  60 BEND     13  6 14                  1.8976330     108.7263597
  61 BEND     15  7 16                  1.9330650     110.7564658

     ------------------------------------------
     THE POINT GROUP IS C1 , NAXIS= 0, ORDER= 1
     ------------------------------------------

     DIMENSIONS OF THE SYMMETRY SUBSPACES ARE
 A   =   60

 ..... DONE SETTING UP THE RUN .....
 STEP CPU TIME =     0.10 TOTAL CPU TIME =        0.1 (    0.0 MIN)
 TOTAL WALL CLOCK TIME=        0.2 SECONDS, CPU UTILIZATION IS  55.56%


          -----------------------------
          STATIONARY POINT LOCATION RUN
          -----------------------------

 OBTAINING INITIAL HESSIAN, HESS=READ    

 $HESS GROUP READ FROM CARDS
 ENERGY IS     -838.8925273742 E(NUC) IS      629.7000811102                     

          PARAMETERS CONTROLLING GEOMETRY SEARCH ARE
          METHOD =QA                  UPHESS =BFGS    
          NNEG   =         0          NFRZ   =         0
          NSTEP  =       100          IFOLOW =         1
          HESS   =READ                RESTAR =         F
          IHREP  =         0          HSSEND =         F
          NPRT   =         0          NPUN   =         0
          OPTTOL = 1.000E-04          RMIN   = 1.500E-03
          RMAX   = 1.000E-01          RLIM   = 7.000E-02
          DXMAX  = 3.000E-01          PURIFY =         F
          MOVIE  =         F          TRUPD  =         T
          TRMAX  = 5.000E-01          TRMIN  = 5.000E-02
          ITBMAT =         5          STPT   =         F
          STSTEP = 1.000E-02          PROJCT=          T

 BEGINNING GEOMETRY SEARCH POINT NSERCH=   0 ...

 COORDINATES OF ALL ATOMS ARE (ANGS)
   ATOM   CHARGE       X              Y              Z
 ------------------------------------------------------------
 C           6.0  -0.0524620660   0.8557639253  -0.4946748132
 N           7.0   0.1155410877  -0.6002228279  -0.3176459889
 C           6.0  -1.5000628905   0.9855301654  -0.0699228670
 N           7.0  -2.0018792851  -0.3063205087   0.0398257331
 C           6.0  -1.0266810572  -1.2189860404   0.0098547723
 C           6.0   1.0463930815   1.4080769954   0.4116004913
 C           6.0   1.4261388849  -1.2250007583  -0.1098123011
 S          16.0   2.4536778448   0.2834927856   0.0523203699
 H           1.0   0.0554195112   1.1199339043  -1.5437599515
 O           8.0  -2.1412745412   2.0197043274   0.0822057353
 H           1.0  -2.9560538072  -0.5281391918   0.3020208191
 O           8.0  -1.1744135123  -2.4422696133   0.2295249388
 H           1.0   0.7555426080   1.3243754945   1.4536379526
 H           1.0   1.2644805162   2.4473808640   0.1935221809
 H           1.0   1.4420740071  -1.7959210494   0.8118723430
 H           1.0   1.7004244801  -1.8484368269  -0.9524671122


                     --------------------
                     INTERNAL COORDINATES
                     --------------------

                 - - ATOMS - -         COORDINATE      COORDINATE
 NO.   TYPE    I  J  K  L  M  N        (BOHR,RAD)       (ANG,DEG)
 ----------------------------------------------------------------
   1 STRETCH   1  2                     2.7898025       1.4763000
   2 STRETCH   2  5                     2.5316659       1.3397000
   3 STRETCH   5  4                     2.5246543       1.3359896
   4 STRETCH   4  3                     2.6271559       1.3902311
   5 STRETCH   3  1                     2.8614231       1.5142000
   6 STRETCH   1  6                     2.8869344       1.5277000
   7 STRETCH   6  8                     3.4712483       1.8369056
   8 STRETCH   7  8                     3.4627269       1.8323963
   9 STRETCH   7  2                     2.7716611       1.4667000
  10 STRETCH   1  9                     2.0545101       1.0872000
  11 STRETCH   3 10                     2.3173710       1.2263000
  12 STRETCH   4 11                     1.9163711       1.0141000
  13 STRETCH   5 12                     2.3651810       1.2516000
  14 STRETCH   6 13                     2.0505417       1.0851000
  15 STRETCH   6 14                     2.0486519       1.0841000
  16 STRETCH   7 15                     2.0490299       1.0843000
  17 STRETCH   7 16                     2.0475181       1.0835000
  18 BEND      7  8  6                  1.6626201      95.2611159
  19 BEND      8  6  1                  1.7861496     102.3388358
  20 BEND      6  1  2                  1.7757957     101.7456000
  21 BEND      1  2  7                  2.1398016     122.6016000
  22 BEND      2  7  8                  1.7344660      99.3775832
  23 TORSION   7  8  6  1              -0.6523050     -37.3743250
  24 TORSION   8  6  1  2               0.7326537      41.9779640
  25 TORSION   6  1  2  7              -0.5962621     -34.1633000
  26 TORSION   1  2  7  8               0.1192688       6.8336015
  27 TORSION   2  7  8  6               0.3200363      18.3367307
  28 BEND      3  4  5                  1.9493152     111.6875335
  29 BEND      4  5  2                  1.8884226     108.1986433
  30 BEND      5  2  1                  1.9690403     112.8177000
  31 BEND      2  1  3                  1.7311607      99.1882000
  32 BEND      1  3  4                  1.8625083     106.7138669
  33 TORSION   3  4  5  2              -0.1586582      -9.0904467
  34 TORSION   4  5  2  1               0.0304607       1.7452715
  35 TORSION   5  2  1  3               0.0926909       5.3108000
  36 TORSION   2  1  3  4              -0.1765952     -10.1181600
  37 TORSION   1  3  4  5               0.2176775      12.4719998
  38 BEND      9  1  2                  1.9220299     110.1242000
  39 BEND      9  1  3                  1.9227361     110.1646608
  40 BEND      9  1  6                  1.9967741     114.4067302
  41 BEND     13  6  1                  1.9273008     110.4262000
  42 BEND     13  6  8                  1.9240511     110.2400053
  43 BEND     14  6  1                  1.9519134     111.8364000
  44 BEND     14  6  8                  1.9751832     113.1696601
  45 BEND     15  7  2                  1.9367849     110.9696000
  46 BEND     15  7  8                  1.9283765     110.4878346
  47 BEND     16  7  2                  1.9402476     111.1680000
  48 BEND     16  7  8                  1.9829021     113.6119208
  49 BEND     10  3  1                  2.2230224     127.3698000
  50 BEND     10  3  4                  2.1958214     125.8112992
  51 PLA.BEND 10  3  4  1              -0.0496503      -2.8447533
  52 BEND     11  4  3                  2.1691650     124.2840000
  53 BEND     11  4  5                  2.1450218     122.9006969
  54 PLA.BEND 11  4  3  5              -0.1707973      -9.7859658
  55 BEND     12  5  2                  2.2080108     126.5097000
  56 BEND     12  5  4                  2.1865654     125.2809688
  57 PLA.BEND 12  5  2  4              -0.0160517      -0.9196936
  58 TORSION   6  1  2  5               2.2349761     128.0547000
  59 TORSION   7  2  1  3              -2.7385473    -156.9072000
  60 BEND     13  6 14                  1.8976330     108.7263597
  61 BEND     15  7 16                  1.9330650     110.7564658

          ********************
          1 ELECTRON INTEGRALS
          ********************
 ...... END OF ONE-ELECTRON INTEGRALS ......
 STEP CPU TIME =     0.01 TOTAL CPU TIME =        0.1 (    0.0 MIN)
 TOTAL WALL CLOCK TIME=        0.2 SECONDS, CPU UTILIZATION IS  57.89%

          -------------
          GUESS OPTIONS
          -------------
          GUESS =HUCKEL            NORB  =       0          NORDER=       0
          MIX   =       F          PRTMO =       F          PUNMO =       F
          TOLZ  = 1.0E-08          TOLE  = 1.0E-05
          SYMDEN=       F          PURIFY=       F

 INITIAL GUESS ORBITALS GENERATED BY HUCKEL   ROUTINE.
 HUCKEL GUESS REQUIRES     51288 WORDS.

 SYMMETRIES FOR INITIAL GUESS ORBITALS FOLLOW.   BOTH SET(S).
    41 ORBITALS ARE OCCUPIED (   14 CORE ORBITALS).
    15=A       16=A       17=A       18=A       19=A       20=A       21=A   
    22=A       23=A       24=A       25=A       26=A       27=A       28=A   
    29=A       30=A       31=A       32=A       33=A       34=A       35=A   
    36=A       37=A       38=A       39=A       40=A       41=A       42=A   
    43=A       44=A       45=A       46=A       47=A       48=A       49=A   
    50=A       51=A   
 ...... END OF INITIAL ORBITAL SELECTION ......
 STEP CPU TIME =     0.01 TOTAL CPU TIME =        0.1 (    0.0 MIN)
 TOTAL WALL CLOCK TIME=        0.2 SECONDS, CPU UTILIZATION IS  60.00%

                    ----------------------
                    AO INTEGRAL TECHNOLOGY
                    ----------------------
     S,P,L SHELL ROTATED AXIS INTEGRALS, REPROGRAMMED BY
        KAZUYA ISHIMURA (IMS) AND JOSE SIERRA (SYNSTAR).
     S,P,D,L SHELL ROTATED AXIS INTEGRALS PROGRAMMED BY
        KAZUYA ISHIMURA (INSTITUTE FOR MOLECULAR SCIENCE).
     S,P,D,F,G SHELL TO TOTAL QUARTET ANGULAR MOMENTUM SUM 5,
        ERIC PROGRAM BY GRAHAM FLETCHER (ELORET AND NASA ADVANCED
        SUPERCOMPUTING DIVISION, AMES RESEARCH CENTER).
     S,P,D,F,G,L SHELL GENERAL RYS QUADRATURE PROGRAMMED BY
        MICHEL DUPUIS (PACIFIC NORTHWEST NATIONAL LABORATORY).

          --------------------
          2 ELECTRON INTEGRALS
          --------------------

 THE -PK- OPTION IS OFF, THE INTEGRALS ARE NOT IN SUPERMATRIX FORM.
 STORING   15000 INTEGRALS/RECORD ON DISK, USING 12 BYTES/INTEGRAL.
 TWO ELECTRON INTEGRAL EVALUATION REQUIRES   89734 WORDS OF MEMORY.
 SCHWARZ INEQUALITY OVERHEAD:      1772 INTEGRALS, T=        0.00
 II,JST,KST,LST =  1  1  1  1 NREC =         1 INTLOC =    1
 II,JST,KST,LST =  2  1  1  1 NREC =         1 INTLOC =    2
 II,JST,KST,LST =  3  1  1  1 NREC =         1 INTLOC =   34
 II,JST,KST,LST =  4  1  1  1 NREC =         1 INTLOC =  132
 II,JST,KST,LST =  5  1  1  1 NREC =         1 INTLOC = 1336
 II,JST,KST,LST =  6  1  1  1 NREC =         1 INTLOC = 1911
 II,JST,KST,LST =  7  1  1  1 NREC =         1 INTLOC = 6768
 II,JST,KST,LST =  8  1  1  1 NREC =         1 INTLOC = 8460
 II,JST,KST,LST =  9  1  1  1 NREC =         2 INTLOC = 5880
 II,JST,KST,LST = 10  1  1  1 NREC =         2 INTLOC = 9855
 II,JST,KST,LST = 11  1  1  1 NREC =         4 INTLOC = 5323
 II,JST,KST,LST = 12  1  1  1 NREC =         4 INTLOC =12096
 II,JST,KST,LST = 13  1  1  1 NREC =         7 INTLOC =11923
 II,JST,KST,LST = 14  1  1  1 NREC =         8 INTLOC = 7523
 II,JST,KST,LST = 15  1  1  1 NREC =        13 INTLOC = 3981
 II,JST,KST,LST = 16  1  1  1 NREC =        14 INTLOC = 1020
 II,JST,KST,LST = 17  1  1  1 NREC =        18 INTLOC = 6616
 II,JST,KST,LST = 18  1  1  1 NREC =        27 INTLOC = 2400
 II,JST,KST,LST = 19  1  1  1 NREC =        29 INTLOC =13534
 II,JST,KST,LST = 20  1  1  1 NREC =        31 INTLOC = 5183
 II,JST,KST,LST = 21  1  1  1 NREC =        41 INTLOC = 9695
 II,JST,KST,LST = 22  1  1  1 NREC =        44 INTLOC =14479
 II,JST,KST,LST = 23  1  1  1 NREC =        46 INTLOC =14180
 II,JST,KST,LST = 24  1  1  1 NREC =        60 INTLOC =11694
 II,JST,KST,LST = 25  1  1  1 NREC =        65 INTLOC =13800
 II,JST,KST,LST = 26  1  1  1 NREC =        70 INTLOC =14758
 II,JST,KST,LST = 27  1  1  1 NREC =        76 INTLOC = 7818
 SCHWARZ INEQUALITY TEST SKIPPED       24343 INTEGRAL BLOCKS.
 TOTAL NUMBER OF NONZERO TWO-ELECTRON INTEGRALS =             1218795
         82 INTEGRAL RECORDS WERE STORED ON DISK FILE  8.
  ...... END OF TWO-ELECTRON INTEGRALS .....
 STEP CPU TIME =     0.24 TOTAL CPU TIME =        0.4 (    0.0 MIN)
 TOTAL WALL CLOCK TIME=        0.5 SECONDS, CPU UTILIZATION IS  73.47%

          --------------------------
                 RHF SCF CALCULATION
          --------------------------

     NUCLEAR ENERGY =       629.7000811102
     MAXIT =   30     NPUNCH=    2
     EXTRAP=T  DAMP=F  SHIFT=F  RSTRCT=F  DIIS=F  DEM=F  SOSCF=T
     DENSITY MATRIX CONV=  1.00E-05
     SOSCF WILL OPTIMIZE     779 ORBITAL ROTATIONS, SOGTOL=   0.250
     MEMORY REQUIRED FOR RHF ITERS=     59156 WORDS.

 ITER EX DEM     TOTAL ENERGY        E CHANGE  DENSITY CHANGE     ORB. GRAD
   1  0  0     -837.8844929930  -837.8844929930   0.711151458   0.000000000
          ---------------START SECOND ORDER SCF---------------
   2  1  0     -838.6436065266    -0.7591135336   0.640424214   0.152560923
   3  2  0     -838.6444794970    -0.0008729704   0.282542687   0.130460342
   4  3  0     -838.8854207458    -0.2409412488   0.094454588   0.024084254
   5  4  0     -838.8915676324    -0.0061468866   0.026061714   0.008544526
   6  5  0     -838.8924369771    -0.0008693447   0.008346624   0.002717575
   7  6  0     -838.8925078664    -0.0000708892   0.002473237   0.001261729
   8  7  0     -838.8925249262    -0.0000170598   0.001101585   0.000275971
   9  8  0     -838.8925269971    -0.0000020709   0.000372900   0.000098753
  10  9  0     -838.8925272490    -0.0000002520   0.000092106   0.000023152
  11 10  0     -838.8925272680    -0.0000000190   0.000024575   0.000005946
  12 11  0     -838.8925272698    -0.0000000018   0.000014551   0.000002596
  13 12  0     -838.8925272700    -0.0000000003   0.000005328   0.000000625
  14 13  0     -838.8925272701    -0.0000000000   0.000001660   0.000000301

          -----------------
          DENSITY CONVERGED
          -----------------
     TIME TO FORM FOCK OPERATORS=       0.3 SECONDS (       0.0 SEC/ITER)
     TIME TO SOLVE SCF EQUATIONS=       0.0 SECONDS (       0.0 SEC/ITER)

 FINAL RHF ENERGY IS     -838.8925272701 AFTER  14 ITERATIONS

          ------------
          EIGENVECTORS
          ------------

                      1          2          3          4          5
                  -90.9088   -20.2832   -20.1914   -15.4055   -15.3777
                     A          A          A          A          A   
    1  C  1  S   -0.000005  -0.000021   0.000003   0.000001   0.000492
    2  C  1  S   -0.000001   0.000144   0.000016   0.000294  -0.005056
    3  C  1  X    0.000034  -0.000061   0.000056  -0.000195  -0.000431
    4  C  1  Y   -0.000016   0.000406   0.000006  -0.000090   0.004171
    5  C  1  Z   -0.000013   0.000003  -0.000007   0.000093  -0.000606
    6  N  2  S   -0.000001   0.000004  -0.000023  -0.000130   0.993199
    7  N  2  S   -0.000021  -0.000004   0.000187   0.000470   0.032518
    8  N  2  X    0.000010   0.000092   0.000198  -0.000278  -0.001410
    9  N  2  Y    0.000021  -0.000027  -0.000510  -0.000018  -0.000326
   10  N  2  Z   -0.000005  -0.000021   0.000046   0.000090   0.001484
   11  C  3  S   -0.000001   0.000541   0.000005   0.000489   0.000011
   12  C  3  S    0.000014  -0.007090   0.000004  -0.005947   0.000304
   13  C  3  X    0.000010   0.003397  -0.000088   0.001786   0.000172
   14  C  3  Y    0.000005  -0.005397   0.000048   0.004444   0.000069
   15  C  3  Z   -0.000001  -0.000797   0.000006  -0.000421  -0.000069
   16  N  4  S   -0.000000  -0.000026  -0.000028   0.993119   0.000111
   17  N  4  S    0.000002   0.000259   0.000271   0.033683   0.000517
   18  N  4  X   -0.000000  -0.000438  -0.000309   0.001674   0.000254
   19  N  4  Y   -0.000000   0.000290  -0.000465  -0.000169  -0.000065
   20  N  4  Z    0.000000   0.000104   0.000133   0.000624  -0.000034
   21  C  5  S   -0.000001   0.000006   0.000563   0.000499   0.000508
   22  C  5  S    0.000012   0.000014  -0.006743  -0.006862  -0.006908
   23  C  5  X    0.000010  -0.000059   0.000759   0.003769  -0.004448
   24  C  5  Y   -0.000002  -0.000073   0.006108  -0.003552  -0.002468
   25  C  5  Z   -0.000004   0.000012  -0.001097  -0.000154   0.001210
   26  C  6  S   -0.000059  -0.000003   0.000001  -0.000000   0.000021
   27  C  6  S    0.000433  -0.000020  -0.000010  -0.000015   0.000227
   28  C  6  X    0.000299  -0.000020   0.000002   0.000008  -0.000037
   29  C  6  Y   -0.000245   0.000003  -0.000001  -0.000021   0.000173
   30  C  6  Z   -0.000076   0.000042   0.000007  -0.000004  -0.000140
   31  C  7  S   -0.000060   0.000001  -0.000001   0.000006   0.000481
   32  C  7  S    0.000445  -0.000019  -0.000026  -0.000051  -0.005015
   33  C  7  X    0.000210   0.000012   0.000066   0.000055   0.003830
   34  C  7  Y    0.000335  -0.000005  -0.000044   0.000040  -0.001782
   35  C  7  Z    0.000035   0.000005   0.000063  -0.000003   0.000472
   36  S  8  S    0.994205   0.000000  -0.000000  -0.000000  -0.000006
   37  S  8  S    0.016974  -0.000001   0.000000   0.000000   0.000039
   38  S  8  X   -0.000169   0.000002   0.000000  -0.000001  -0.000029
   39  S  8  Y   -0.000028  -0.000001  -0.000001  -0.000001  -0.000002
   40  S  8  Z    0.000015   0.000001   0.000000   0.000000  -0.000000
   41  S  8  S   -0.002253   0.000011  -0.000000  -0.000011   0.000109
   42  S  8  X    0.000377  -0.000011  -0.000001   0.000006   0.000016
   43  S  8  Y    0.000062   0.000005   0.000003   0.000007  -0.000076
   44  S  8  Z   -0.000028  -0.000004  -0.000002  -0.000002  -0.000019
   45  H  9  S    0.000011  -0.000005  -0.000005   0.000020   0.000105
   46  O 10  S    0.000000   0.994268   0.000035  -0.000039   0.000010
   47  O 10  S   -0.000002   0.025970  -0.000030   0.000271  -0.000072
   48  O 10  X   -0.000001   0.002936  -0.000006  -0.000249  -0.000054
   49  O 10  Y    0.000001  -0.004762   0.000019  -0.000330   0.000008
   50  O 10  Z    0.000000  -0.000697   0.000004   0.000055   0.000024
   51  H 11  S   -0.000000  -0.000150  -0.000175  -0.006386  -0.000062
   52  O 12  S   -0.000000  -0.000030   0.994270  -0.000043  -0.000036
   53  O 12  S   -0.000001  -0.000030   0.025709   0.000332   0.000268
   54  O 12  X    0.000001   0.000002   0.000638  -0.000336   0.000365
   55  O 12  Y   -0.000001  -0.000019   0.005265   0.000215   0.000085
   56  O 12  Z    0.000000   0.000004  -0.000938   0.000029  -0.000073
   57  H 13  S    0.000014   0.000019   0.000002   0.000027  -0.000026
   58  H 14  S    0.000009  -0.000009   0.000002  -0.000002  -0.000166
   59  H 15  S    0.000015   0.000001  -0.000080   0.000003   0.000239
   60  H 16  S    0.000011   0.000002  -0.000005   0.000004   0.000090

                      6          7          8          9         10
                  -11.1967   -11.1927   -11.1451   -11.1422   -11.1132
                     A          A          A          A          A   
    1  C  1  S   -0.001212  -0.002351   0.991944   0.008676   0.004479
    2  C  1  S   -0.000040  -0.005658   0.036760   0.000286  -0.005624
    3  C  1  X    0.000134   0.003911  -0.000325  -0.000002  -0.002928
    4  C  1  Y    0.000293  -0.000448  -0.001047   0.000063  -0.001621
    5  C  1  Z   -0.000059  -0.001176   0.000146  -0.000022  -0.002583
    6  N  2  S    0.000329   0.000040   0.000497   0.000491   0.000058
    7  N  2  S   -0.006188   0.000059  -0.005334  -0.005297  -0.000025
    8  N  2  X    0.002976   0.000206   0.000396  -0.003244  -0.000181
    9  N  2  Y    0.001692   0.000020  -0.003743   0.001626  -0.000013
   10  N  2  Z   -0.000806  -0.000092   0.000586  -0.000493  -0.000230
   11  C  3  S   -0.022059   0.992365   0.003302   0.000051   0.000257
   12  C  3  S   -0.001005   0.032462  -0.005993  -0.000064   0.000101
   13  C  3  X   -0.000330   0.000018  -0.004175  -0.000045   0.000081
   14  C  3  Y    0.000602  -0.000864   0.000269   0.000021  -0.000013
   15  C  3  Z   -0.000051  -0.000230   0.001168   0.000024   0.000027
   16  N  4  S    0.000315   0.000394   0.000020   0.000010  -0.000002
   17  N  4  S   -0.006065  -0.005647   0.000236  -0.000098  -0.000007
   18  N  4  X   -0.002525  -0.001022  -0.000015  -0.000060   0.000006
   19  N  4  Y    0.002673  -0.003362   0.000042   0.000043   0.000002
   20  N  4  Z    0.000092   0.000268   0.000048   0.000021   0.000028
   21  C  5  S    0.992309   0.022257   0.001398   0.001228  -0.000026
   22  C  5  S    0.033143   0.000420  -0.000111  -0.000125  -0.000005
   23  C  5  X    0.000062  -0.000033  -0.000057  -0.000271   0.000011
   24  C  5  Y    0.002062  -0.000521  -0.000288   0.000170   0.000002
   25  C  5  Z   -0.000408  -0.000021   0.000054  -0.000016   0.000066
   26  C  6  S    0.000030  -0.000213  -0.003518   0.000298   0.992047
   27  C  6  S    0.000007   0.000214  -0.005745   0.000342   0.036531
   28  C  6  X   -0.000003   0.000051   0.003151   0.000221  -0.000670
   29  C  6  Y   -0.000017  -0.000033   0.001429  -0.000163   0.000061
   30  C  6  Z    0.000055   0.000049   0.002427  -0.000073   0.000043
   31  C  7  S   -0.001081  -0.000041  -0.008637   0.992136  -0.000384
   32  C  7  S   -0.000095  -0.000049  -0.000259   0.035784   0.000396
   33  C  7  X    0.000383   0.000042   0.000110  -0.000570   0.000071
   34  C  7  Y    0.000150  -0.000010   0.000019  -0.000001   0.000283
   35  C  7  Z   -0.000046   0.000035   0.000048   0.000047  -0.000038
   36  S  8  S   -0.000000  -0.000001  -0.000006  -0.000059  -0.000058
   37  S  8  S   -0.000001   0.000002   0.000040   0.000089   0.000086
   38  S  8  X    0.000000  -0.000006  -0.000063  -0.000305  -0.000398
   39  S  8  Y   -0.000005   0.000004   0.000002  -0.000412   0.000302
   40  S  8  Z   -0.000004  -0.000005  -0.000038  -0.000044   0.000104
   41  S  8  S   -0.000050  -0.000066  -0.000176  -0.004422  -0.004350
   42  S  8  X    0.000013   0.000057   0.000298   0.002675   0.003493
   43  S  8  Y    0.000048  -0.000032   0.000035   0.003607  -0.002631
   44  S  8  Z    0.000025   0.000031   0.000229   0.000381  -0.000894
   45  H  9  S   -0.000059  -0.000159  -0.006972  -0.000073   0.000045
   46  O 10  S    0.000013   0.000134  -0.000022   0.000000  -0.000007
   47  O 10  S   -0.000067  -0.005363   0.000207  -0.000004   0.000033
   48  O 10  X   -0.000042  -0.000696   0.000214  -0.000002   0.000023
   49  O 10  Y    0.000058   0.001296   0.000004   0.000003  -0.000012
   50  O 10  Z    0.000032   0.000188  -0.000071  -0.000001  -0.000015
   51  H 11  S   -0.000370  -0.000329  -0.000078  -0.000010  -0.000000
   52  O 12  S    0.000176   0.000017   0.000009  -0.000003   0.000000
   53  O 12  S   -0.005011  -0.000252  -0.000096   0.000069  -0.000003
   54  O 12  X   -0.000154  -0.000012  -0.000013  -0.000029  -0.000002
   55  O 12  Y   -0.001475  -0.000110  -0.000049   0.000052  -0.000004
   56  O 12  Z    0.000273   0.000038   0.000010   0.000004  -0.000007
   57  H 13  S   -0.000063  -0.000346   0.000030  -0.000012  -0.006916
   58  H 14  S    0.000000  -0.000022   0.000069  -0.000074  -0.006865
   59  H 15  S   -0.000295  -0.000010   0.000030  -0.006841   0.000035
   60  H 16  S   -0.000063   0.000007   0.000064  -0.006819  -0.000054

                     11         12         13         14         15
                   -8.7834    -6.4195    -6.4175    -6.4139    -1.3702
                     A          A          A          A          A   
    1  C  1  S    0.000191   0.000022  -0.000211  -0.000125  -0.047032
    2  C  1  S   -0.000148   0.000030   0.000125   0.000146   0.114131
    3  C  1  X   -0.000838   0.000083   0.001170   0.000919  -0.027625
    4  C  1  Y    0.000345  -0.000157  -0.000592  -0.000582  -0.023356
    5  C  1  Z    0.000229  -0.000129  -0.000509  -0.000242   0.014864
    6  N  2  S    0.000082  -0.000015  -0.000126  -0.000008  -0.073524
    7  N  2  S    0.000163  -0.000014  -0.000151  -0.000195   0.224255
    8  N  2  X   -0.000415  -0.000094   0.000715   0.000262  -0.043145
    9  N  2  Y   -0.000472  -0.000197   0.001069   0.000193   0.001317
   10  N  2  Z    0.000023   0.000031   0.000029  -0.000032   0.019662
   11  C  3  S    0.000025   0.000011  -0.000024  -0.000025  -0.119509
   12  C  3  S   -0.000245  -0.000041   0.000317   0.000258   0.272744
   13  C  3  X   -0.000174  -0.000035   0.000214   0.000194  -0.046695
   14  C  3  Y   -0.000079  -0.000035   0.000106   0.000027   0.037505
   15  C  3  Z    0.000041  -0.000043  -0.000083  -0.000025   0.011659
   16  N  4  S    0.000003  -0.000001  -0.000002   0.000001  -0.101091
   17  N  4  S   -0.000024   0.000019   0.000020  -0.000009   0.312628
   18  N  4  X    0.000003   0.000013  -0.000011  -0.000018   0.059448
   19  N  4  Y    0.000000  -0.000012   0.000003  -0.000004   0.013709
   20  N  4  Z   -0.000006   0.000006   0.000017  -0.000003   0.000498
   21  C  5  S    0.000012  -0.000013  -0.000008  -0.000012  -0.096894
   22  C  5  S   -0.000199   0.000036   0.000279   0.000144   0.213742
   23  C  5  X   -0.000157   0.000059   0.000203   0.000111  -0.005961
   24  C  5  Y    0.000001  -0.000076   0.000029   0.000030   0.018761
   25  C  5  Z    0.000080   0.000009  -0.000138   0.000014   0.000428
   26  C  6  S    0.001156   0.001001  -0.001000   0.000046  -0.011821
   27  C  6  S   -0.007816  -0.008774   0.008917  -0.000310   0.028238
   28  C  6  X   -0.005014  -0.007020   0.003891  -0.000437  -0.008289
   29  C  6  Y    0.004123   0.002120  -0.006238   0.000920  -0.007089
   30  C  6  Z    0.001256   0.001211  -0.001485  -0.003176  -0.006199
   31  C  7  S    0.001179  -0.001033  -0.000994   0.000014  -0.018355
   32  C  7  S   -0.008026   0.009140   0.008870  -0.000086   0.044372
   33  C  7  X   -0.003533   0.006162   0.001692  -0.000344  -0.017749
   34  C  7  Y   -0.005616   0.004466   0.007149   0.000402   0.010240
   35  C  7  Z   -0.000600   0.000095   0.001104  -0.003441  -0.001679
   36  S  8  S   -0.368156  -0.000149  -0.006210   0.000153   0.001945
   37  S  8  S    1.049719   0.000433   0.018065  -0.000442  -0.006853
   38  S  8  X   -0.013747  -0.123975   0.974843   0.089556   0.003293
   39  S  8  Y   -0.002370   0.961036   0.138294  -0.175378   0.000833
   40  S  8  Z    0.001236   0.185415  -0.065034   0.968820   0.000129
   41  S  8  S    0.048473  -0.000194  -0.009441   0.000135   0.016332
   42  S  8  X   -0.008008  -0.006899   0.053176   0.004003  -0.007182
   43  S  8  Y   -0.001326   0.053646   0.007581  -0.008042  -0.001737
   44  S  8  Z    0.000603   0.010381  -0.003632   0.044574  -0.000279
   45  H  9  S   -0.000215  -0.000117   0.000105   0.000411   0.013394
   46  O 10  S   -0.000002  -0.000001   0.000002   0.000002  -0.135870
   47  O 10  S    0.000029   0.000015  -0.000036  -0.000016   0.471044
   48  O 10  X    0.000015   0.000006  -0.000016  -0.000016   0.058343
   49  O 10  Y   -0.000013  -0.000010   0.000014   0.000001  -0.098915
   50  O 10  Z   -0.000006   0.000000   0.000011   0.000001  -0.013594
   51  H 11  S    0.000002   0.000000  -0.000002  -0.000001   0.036396
   52  O 12  S    0.000001  -0.000002  -0.000001   0.000000  -0.063817
   53  O 12  S    0.000009  -0.000010  -0.000007  -0.000009   0.219689
   54  O 12  X   -0.000007   0.000023  -0.000000  -0.000003   0.006609
   55  O 12  Y    0.000009  -0.000017  -0.000004  -0.000006   0.058954
   56  O 12  Z   -0.000003  -0.000000   0.000008   0.000003  -0.010089
   57  H 13  S   -0.000380  -0.000199   0.000166  -0.000121   0.004608
   58  H 14  S   -0.000254  -0.000164   0.000080  -0.000033   0.003200
   59  H 15  S   -0.000387   0.000215   0.000141  -0.000121   0.006282
   60  H 16  S   -0.000290   0.000143   0.000129  -0.000059   0.005191

                     16         17         18         19         20
                   -1.3253    -1.2332    -1.1804    -1.0386    -1.0011
                     A          A          A          A          A   
    1  C  1  S    0.016391   0.071973   0.047559  -0.102650   0.106384
    2  C  1  S   -0.035914  -0.181654  -0.127755   0.287608  -0.307053
    3  C  1  X   -0.016160  -0.002376  -0.039637   0.047276   0.058537
    4  C  1  Y    0.030393   0.050955   0.035316   0.074868   0.027679
    5  C  1  Z   -0.001953  -0.017953  -0.011031   0.043900  -0.001347
    6  N  2  S    0.077787   0.105836   0.104597   0.090635   0.026502
    7  N  2  S   -0.243518  -0.336868  -0.347222  -0.316300  -0.093859
    8  N  2  X    0.040599   0.004164  -0.046360   0.050315   0.155709
    9  N  2  Y    0.015244  -0.045274  -0.000532   0.111617  -0.099970
   10  N  2  Z   -0.022430  -0.016209  -0.018507  -0.026066   0.017111
   11  C  3  S   -0.070097   0.015619  -0.028978  -0.030411   0.030068
   12  C  3  S    0.167176  -0.036518   0.070922   0.088215  -0.086815
   13  C  3  X   -0.069287  -0.049468  -0.020500   0.065605  -0.120026
   14  C  3  Y    0.126200   0.081395  -0.136833  -0.037787  -0.004085
   15  C  3  Z    0.016231   0.011607   0.004922  -0.013046   0.033583
   16  N  4  S    0.044046   0.044326  -0.168593  -0.018497  -0.064460
   17  N  4  S   -0.135704  -0.137350   0.555489   0.065754   0.231998
   18  N  4  X   -0.041140  -0.031486   0.036790  -0.023150  -0.065519
   19  N  4  Y    0.054149  -0.027774   0.004161   0.026852  -0.023244
   20  N  4  Z   -0.001352   0.004923   0.011246   0.006085   0.026215
   21  C  5  S    0.112619  -0.033986  -0.012249   0.041253   0.013053
   22  C  5  S   -0.259545   0.096164   0.022565  -0.108995  -0.034575
   23  C  5  X   -0.005906  -0.051160  -0.126658  -0.104738  -0.069312
   24  C  5  Y    0.033691  -0.209453   0.097989  -0.085445  -0.008987
   25  C  5  Z   -0.006343   0.041971   0.007167   0.034688   0.019481
   26  C  6  S    0.006203   0.032267   0.039550  -0.157687  -0.008828
   27  C  6  S   -0.014528  -0.081547  -0.102033   0.443908   0.020384
   28  C  6  X    0.001726   0.013714   0.008165  -0.021901   0.073186
   29  C  6  Y    0.006185   0.020344   0.023435  -0.029249  -0.018049
   30  C  6  Z    0.002698   0.013907   0.014077  -0.030850   0.019636
   31  C  7  S    0.023786   0.042460   0.071489   0.030192  -0.145320
   32  C  7  S   -0.058550  -0.109154  -0.187922  -0.090874   0.417218
   33  C  7  X    0.022156   0.029838   0.042360   0.065009   0.028965
   34  C  7  Y   -0.011591  -0.028668  -0.035671   0.017320   0.031598
   35  C  7  Z    0.001717   0.003631   0.003161   0.009313   0.011265
   36  S  8  S   -0.002226  -0.007522  -0.012468   0.025963   0.038630
   37  S  8  S    0.007827   0.026271   0.043382  -0.089287  -0.132480
   38  S  8  X   -0.003534  -0.010993  -0.016587   0.027967   0.030450
   39  S  8  Y   -0.001479  -0.002435  -0.005021  -0.016388   0.022614
   40  S  8  Z   -0.000185  -0.000260  -0.000340  -0.004815  -0.000555
   41  S  8  S   -0.019180  -0.069086  -0.118420   0.269467   0.409665
   42  S  8  X    0.007931   0.026275   0.041235  -0.075149  -0.085667
   43  S  8  Y    0.003140   0.005654   0.011874   0.039505  -0.058349
   44  S  8  Z    0.000360   0.000595   0.000844   0.011819   0.001977
   45  H  9  S   -0.004598  -0.027805  -0.022455   0.068215  -0.074798
   46  O 10  S   -0.154232  -0.051303   0.051855   0.029820  -0.014581
   47  O 10  S    0.538192   0.182249  -0.188139  -0.114532   0.055058
   48  O 10  X    0.060544   0.013887  -0.021974   0.009760  -0.024798
   49  O 10  Y   -0.096598  -0.021719   0.007470   0.002478  -0.010427
   50  O 10  Z   -0.014449  -0.003511   0.004992  -0.001024   0.007520
   51  H 11  S   -0.015896  -0.014640   0.099152   0.022312   0.085863
   52  O 12  S    0.108833  -0.168998   0.043800  -0.042018   0.009890
   53  O 12  S   -0.376158   0.593159  -0.155840   0.157066  -0.039803
   54  O 12  X   -0.011886   0.008795  -0.022146  -0.019152  -0.009030
   55  O 12  Y   -0.089237   0.102512  -0.017166   0.004620  -0.001217
   56  O 12  Z    0.015709  -0.017521   0.006359   0.003002   0.003743
   57  H 13  S   -0.002027  -0.014317  -0.019134   0.103742   0.006475
   58  H 14  S   -0.001146  -0.010960  -0.015979   0.103398   0.004477
   59  H 15  S   -0.009363  -0.013721  -0.032519  -0.021419   0.105304
   60  H 16  S   -0.007633  -0.014918  -0.030630  -0.021281   0.102049

                     21         22         23         24         25
                   -0.8815    -0.8005    -0.7846    -0.7650    -0.6884
                     A          A          A          A          A   
    1  C  1  S    0.086398   0.020319   0.061320   0.045590   0.001935
    2  C  1  S   -0.267988  -0.068887  -0.203090  -0.143392  -0.003631
    3  C  1  X    0.129949  -0.149893  -0.130390   0.049910   0.010202
    4  C  1  Y    0.000050  -0.041649   0.097764  -0.138355  -0.128477
    5  C  1  Z    0.060661  -0.018707   0.141220   0.046538   0.308121
    6  N  2  S   -0.033111   0.031867   0.023610  -0.063504   0.004715
    7  N  2  S    0.121703  -0.130605  -0.102321   0.255802  -0.010458
    8  N  2  X   -0.159603  -0.189585  -0.078233   0.065414   0.133609
    9  N  2  Y   -0.088136   0.029399  -0.186631   0.049919   0.233211
   10  N  2  Z    0.055565   0.008543   0.099039   0.011424   0.207853
   11  C  3  S    0.093776  -0.045470  -0.091077  -0.038689   0.004027
   12  C  3  S   -0.287970   0.143566   0.294998   0.125461  -0.011821
   13  C  3  X   -0.096064   0.078936   0.021612  -0.184798   0.110430
   14  C  3  Y    0.100834  -0.047228  -0.119866  -0.149552   0.010492
   15  C  3  Z    0.048317  -0.034164   0.026284   0.054231   0.122637
   16  N  4  S    0.000903   0.041965   0.024292  -0.011509   0.005500
   17  N  4  S   -0.005807  -0.167185  -0.092779   0.049712  -0.028648
   18  N  4  X    0.047315   0.264407   0.152074  -0.198094   0.125118
   19  N  4  Y   -0.184729   0.045539   0.248358   0.334637  -0.087792
   20  N  4  Z    0.015812  -0.069643  -0.026332   0.023137   0.139133
   21  C  5  S   -0.089085  -0.043980  -0.005166   0.078707   0.017710
   22  C  5  S    0.262278   0.133148   0.014452  -0.246104  -0.060140
   23  C  5  X    0.045013   0.022991   0.162196   0.184082  -0.158751
   24  C  5  Y    0.135736   0.085574   0.004152  -0.118293   0.052758
   25  C  5  Z   -0.026492  -0.024539   0.000606  -0.002116   0.176343
   26  C  6  S   -0.106120   0.063472  -0.071093   0.004245   0.012928
   27  C  6  S    0.325000  -0.205657   0.229976  -0.012928  -0.042551
   28  C  6  X    0.053337   0.120981  -0.015890   0.069650  -0.141529
   29  C  6  Y    0.028797  -0.072680   0.112256  -0.066010  -0.190629
   30  C  6  Z    0.049059  -0.003825   0.123944   0.025631   0.103632
   31  C  7  S    0.092026   0.042242  -0.047442   0.077108  -0.008669
   32  C  7  S   -0.286452  -0.140889   0.152290  -0.251243   0.033452
   33  C  7  X   -0.032309   0.144124  -0.007633  -0.106061  -0.012218
   34  C  7  Y    0.026944   0.071310  -0.131901   0.153218   0.084374
   35  C  7  Z    0.009388   0.029599   0.044689  -0.012750   0.128368
   36  S  8  S    0.007426   0.053881  -0.016500   0.012660  -0.010753
   37  S  8  S   -0.025215  -0.180990   0.055172  -0.042315   0.035514
   38  S  8  X    0.008133   0.005449  -0.008785   0.010476   0.015295
   39  S  8  Y   -0.035581   0.008044  -0.004738  -0.021311   0.025599
   40  S  8  Z   -0.010349  -0.002984  -0.013083  -0.003580  -0.013002
   41  S  8  S    0.084103   0.644409  -0.201270   0.155227  -0.138632
   42  S  8  X   -0.022769  -0.020986   0.028985  -0.032922  -0.046783
   43  S  8  Y    0.095565  -0.023878   0.013508   0.060959  -0.077428
   44  S  8  Z    0.028885   0.009824   0.040681   0.009965   0.042750
   45  H  9  S   -0.104208  -0.027397  -0.141232  -0.099246  -0.227419
   46  O 10  S   -0.053492   0.008580   0.045166   0.026201  -0.013233
   47  O 10  S    0.220649  -0.033431  -0.196053  -0.117021   0.063608
   48  O 10  X   -0.031833   0.028727   0.033731  -0.077156   0.032378
   49  O 10  Y    0.040969  -0.003062  -0.078341  -0.113497   0.052624
   50  O 10  Z    0.018332  -0.014171   0.006922   0.023587   0.071155
   51  H 11  S   -0.002857  -0.207824  -0.148609   0.090488  -0.052682
   52  O 12  S    0.050919   0.001321  -0.004011  -0.044353  -0.014995
   53  O 12  S   -0.204994  -0.001273   0.019560   0.189348   0.068619
   54  O 12  X    0.004824   0.004897   0.073432   0.056357  -0.081050
   55  O 12  Y    0.035711   0.008180  -0.014451  -0.069836  -0.008757
   56  O 12  Z   -0.007394  -0.005585  -0.000475   0.004645   0.078091
   57  H 13  S    0.115010  -0.084488   0.151393   0.002451   0.095480
   58  H 14  S    0.115514  -0.094395   0.124616  -0.036776  -0.177795
   59  H 15  S   -0.088987  -0.048890   0.115194  -0.142309   0.052817
   60  H 16  S   -0.101142  -0.058754   0.075038  -0.150566  -0.085706

                     26         27         28         29         30
                   -0.6460    -0.6186    -0.6002    -0.5859    -0.5568
                     A          A          A          A          A   
    1  C  1  S    0.022016  -0.024914  -0.015272   0.028909   0.017827
    2  C  1  S   -0.072774   0.086634   0.053028  -0.106625  -0.065956
    3  C  1  X    0.137937   0.231663  -0.052513  -0.095794  -0.231427
    4  C  1  Y   -0.158813   0.077255  -0.172283   0.016127  -0.133335
    5  C  1  Z   -0.035533  -0.108437  -0.072195  -0.159567   0.002703
    6  N  2  S   -0.004223   0.024990   0.003290  -0.013746  -0.031391
    7  N  2  S    0.024919  -0.111223  -0.017663   0.068270   0.140321
    8  N  2  X    0.117192  -0.030231  -0.241880   0.297800   0.044706
    9  N  2  Y    0.159482   0.017724   0.164003  -0.067266   0.116894
   10  N  2  Z   -0.208821   0.198596  -0.065560  -0.004039   0.040491
   11  C  3  S    0.025815   0.034010   0.054626  -0.028138   0.012367
   12  C  3  S   -0.092966  -0.121943  -0.194468   0.098144  -0.043082
   13  C  3  X   -0.160849  -0.179988  -0.018561  -0.028814   0.241050
   14  C  3  Y   -0.196850  -0.157454  -0.109776   0.043492  -0.051083
   15  C  3  Z    0.016827   0.088859  -0.141370  -0.216348  -0.000540
   16  N  4  S   -0.004357  -0.003264  -0.005760  -0.008162  -0.005481
   17  N  4  S    0.009993   0.011055   0.021202   0.035931   0.018863
   18  N  4  X    0.327729   0.165114  -0.173863   0.126344  -0.040980
   19  N  4  Y    0.092773   0.145483   0.027194  -0.077346  -0.036067
   20  N  4  Z   -0.140834   0.096308  -0.184650  -0.261740   0.151726
   21  C  5  S    0.023899  -0.011692   0.029185   0.007901   0.059874
   22  C  5  S   -0.082543   0.040482  -0.104667  -0.026770  -0.218072
   23  C  5  X   -0.204358   0.067356   0.078195  -0.212046  -0.018774
   24  C  5  Y    0.068976   0.057700   0.020364  -0.025421   0.109528
   25  C  5  Z   -0.074245   0.146910  -0.156260  -0.068108   0.115466
   26  C  6  S   -0.025262   0.000619  -0.006084  -0.002081   0.011627
   27  C  6  S    0.086537   0.000041   0.020027   0.009228  -0.047774
   28  C  6  X    0.020995   0.009844  -0.005328   0.105369   0.198159
   29  C  6  Y    0.039785   0.012936  -0.074003   0.053695   0.370725
   30  C  6  Z    0.010169  -0.265115   0.239319   0.127218  -0.055218
   31  C  7  S   -0.020129  -0.004787  -0.003723  -0.006586  -0.004261
   32  C  7  S    0.071535   0.014126   0.008694   0.032131   0.016776
   33  C  7  X    0.028462  -0.016325   0.160090  -0.252749  -0.040098
   34  C  7  Y   -0.011335  -0.053526  -0.169333   0.202172   0.027246
   35  C  7  Z   -0.243531   0.307254   0.221743   0.247514   0.033855
   36  S  8  S   -0.015243  -0.005757  -0.000803  -0.007754   0.005293
   37  S  8  S    0.050353   0.018916   0.002597   0.025270  -0.017095
   38  S  8  X    0.012975   0.010624  -0.011496   0.024766  -0.028778
   39  S  8  Y   -0.003169  -0.008618   0.011742  -0.005704  -0.008990
   40  S  8  Z    0.019656  -0.002347  -0.040892  -0.030871   0.006819
   41  S  8  S   -0.197652  -0.076359  -0.011113  -0.105564   0.074558
   42  S  8  X   -0.041029  -0.033302   0.038254  -0.079772   0.093210
   43  S  8  Y    0.010317   0.026943  -0.038641   0.017483   0.030039
   44  S  8  Z   -0.065377   0.006823   0.136730   0.102556  -0.022457
   45  H  9  S   -0.029917   0.156511   0.037233   0.072491  -0.087455
   46  O 10  S   -0.038556  -0.027155  -0.051135   0.019192  -0.036885
   47  O 10  S    0.189029   0.133461   0.256701  -0.096453   0.194683
   48  O 10  X   -0.201062  -0.209002  -0.197010   0.071112   0.038163
   49  O 10  Y    0.028854  -0.005143   0.170282  -0.052118   0.280435
   50  O 10  Z    0.039647   0.072820  -0.041466  -0.166738   0.028027
   51  H 11  S   -0.259930  -0.120996   0.106691  -0.126021   0.089305
   52  O 12  S   -0.034982  -0.001517  -0.029600   0.003762  -0.050125
   53  O 12  S    0.165510   0.009670   0.145031  -0.020167   0.248877
   54  O 12  X   -0.105091   0.055036   0.026259  -0.110031  -0.061217
   55  O 12  Y   -0.078356   0.001367  -0.117837   0.019838  -0.187524
   56  O 12  Z   -0.015050   0.077100  -0.052866  -0.036804   0.122798
   57  H 13  S    0.031601  -0.203832   0.201800   0.077203  -0.138835
   58  H 14  S    0.064695   0.056323  -0.089519   0.048016   0.339508
   59  H 15  S   -0.119202   0.230524   0.232242   0.086303   0.019384
   60  H 16  S    0.173984  -0.153141  -0.018833  -0.292609  -0.038841

                     31         32         33         34         35
                   -0.5354    -0.5298    -0.4873    -0.4809    -0.4696
                     A          A          A          A          A   
    1  C  1  S   -0.004583  -0.012113  -0.010390  -0.003747  -0.003864
    2  C  1  S    0.008001   0.035945   0.047048   0.016672   0.015389
    3  C  1  X   -0.108876  -0.038036  -0.053183  -0.094102  -0.002012
    4  C  1  Y    0.052946   0.232813  -0.132851  -0.184125   0.037644
    5  C  1  Z   -0.319553   0.170580   0.053033   0.043331  -0.023974
    6  N  2  S    0.006710   0.021684  -0.001409   0.003506  -0.006401
    7  N  2  S   -0.029119  -0.101642   0.016592  -0.003405   0.030759
    8  N  2  X    0.094531   0.120865  -0.002663   0.073718   0.043907
    9  N  2  Y   -0.108561  -0.239627   0.175744   0.117053  -0.126026
   10  N  2  Z    0.018651   0.089431  -0.049566  -0.048286  -0.339699
   11  C  3  S    0.016522   0.025916  -0.005093  -0.019195  -0.005295
   12  C  3  S   -0.060509  -0.085422   0.021495   0.075064   0.022786
   13  C  3  X    0.046261   0.216033  -0.029850   0.083800   0.148012
   14  C  3  Y   -0.117415  -0.245432  -0.095805  -0.070339  -0.037475
   15  C  3  Z    0.088024  -0.145520   0.025653  -0.055544   0.431867
   16  N  4  S    0.000985  -0.023779   0.021890   0.011534  -0.005443
   17  N  4  S   -0.005268   0.109889  -0.097708  -0.049200   0.026288
   18  N  4  X    0.091827  -0.012539  -0.078837  -0.029613   0.053486
   19  N  4  Y    0.075003   0.102509   0.073773   0.037713   0.017232
   20  N  4  Z    0.332750  -0.196674  -0.019329   0.031094   0.100540
   21  C  5  S   -0.010686  -0.000634  -0.046655  -0.016973   0.010909
   22  C  5  S    0.040514   0.002202   0.178855   0.066471  -0.042095
   23  C  5  X    0.047346   0.082183  -0.049990  -0.089428  -0.082362
   24  C  5  Y   -0.027176  -0.091175  -0.316284  -0.248415  -0.069468
   25  C  5  Z    0.263373  -0.087403   0.009260   0.098509  -0.312047
   26  C  6  S    0.012966  -0.001709   0.012748  -0.010052   0.006782
   27  C  6  S   -0.052170   0.010284  -0.061900   0.054035  -0.025379
   28  C  6  X    0.037497  -0.128747  -0.101188   0.292647   0.003605
   29  C  6  Y   -0.027802  -0.100791   0.275600  -0.157488  -0.014568
   30  C  6  Z    0.336967  -0.116984   0.030693  -0.062395   0.002795
   31  C  7  S    0.002347  -0.000861  -0.006641   0.008533   0.002065
   32  C  7  S   -0.006131   0.007294   0.036374  -0.048925  -0.007986
   33  C  7  X   -0.067062  -0.116231   0.168783  -0.144368  -0.100786
   34  C  7  Y    0.069703   0.124096   0.176089  -0.302212  -0.019326
   35  C  7  Z   -0.107772  -0.073268   0.071174  -0.019866   0.134514
   36  S  8  S    0.002990   0.002243  -0.000119  -0.001272   0.004227
   37  S  8  S   -0.009686  -0.007431   0.000446   0.004205  -0.013533
   38  S  8  X   -0.009154   0.012776  -0.024501   0.017979  -0.011201
   39  S  8  Y    0.005979   0.006345   0.092675  -0.133008  -0.014456
   40  S  8  Z   -0.019385   0.018079   0.017400  -0.027538  -0.022778
   41  S  8  S    0.041878   0.029035  -0.000843  -0.016757   0.061463
   42  S  8  X    0.030352  -0.042230   0.080988  -0.059598   0.038261
   43  S  8  Y   -0.019644  -0.019821  -0.302897   0.436443   0.047146
   44  S  8  Z    0.066267  -0.061276  -0.056582   0.090595   0.078981
   45  H  9  S    0.295051  -0.075387  -0.071198  -0.097064   0.028640
   46  O 10  S   -0.027194  -0.069659  -0.006950  -0.008949  -0.005744
   47  O 10  S    0.144224   0.372669   0.039851   0.052343   0.033239
   48  O 10  X   -0.118282  -0.169163  -0.181361  -0.017366   0.110591
   49  O 10  Y    0.133223   0.472710  -0.047054   0.085388   0.073388
   50  O 10  Z    0.091954  -0.029032   0.067878  -0.034667   0.458491
   51  H 11  S   -0.021623  -0.003681   0.004132   0.000483  -0.018232
   52  O 12  S    0.018342   0.012268   0.075649   0.055883  -0.000728
   53  O 12  S   -0.094117  -0.064087  -0.398544  -0.294963   0.002879
   54  O 12  X    0.054049   0.110319   0.005092  -0.004888  -0.044273
   55  O 12  Y    0.106051   0.032469   0.444590   0.337024  -0.049912
   56  O 12  Z    0.144812  -0.086087  -0.116776  -0.017239  -0.263713
   57  H 13  S    0.275237  -0.064681   0.002654  -0.103762  -0.000804
   58  H 14  S   -0.102934  -0.088898   0.205206  -0.049136  -0.032740
   59  H 15  S   -0.114050  -0.118732  -0.012358   0.114722   0.119455
   60  H 16  S    0.020013  -0.036621  -0.092059   0.123287  -0.136436

                     36         37         38         39         40
                   -0.4031    -0.3633    -0.3337    -0.3227    -0.3132
                     A          A          A          A          A   
    1  C  1  S   -0.030284   0.015930   0.002256  -0.014825  -0.013407
    2  C  1  S    0.128169  -0.068425  -0.006971   0.069024   0.055526
    3  C  1  X   -0.017013   0.293250   0.020756  -0.080647   0.079961
    4  C  1  Y    0.086368  -0.091253   0.081782  -0.055230   0.028658
    5  C  1  Z    0.116941  -0.033895   0.093770   0.071699   0.032774
    6  N  2  S   -0.022822  -0.010255  -0.019768   0.019408  -0.004508
    7  N  2  S    0.113683   0.050902   0.100829  -0.103269   0.021426
    8  N  2  X    0.111769   0.080052  -0.108761   0.154988   0.066552
    9  N  2  Y   -0.075147   0.101018  -0.182290   0.056812   0.037328
   10  N  2  Z    0.053220  -0.152730  -0.456786  -0.236105   0.052402
   11  C  3  S    0.003127   0.014874  -0.008258  -0.000466   0.006998
   12  C  3  S   -0.011148  -0.063342   0.035565   0.000431  -0.030868
   13  C  3  X   -0.048556  -0.113730  -0.020384   0.040792  -0.029141
   14  C  3  Y   -0.022080   0.015497  -0.040555   0.051847   0.010769
   15  C  3  Z   -0.035935  -0.017923  -0.164493  -0.085944   0.025324
   16  N  4  S    0.011306  -0.036443   0.016833  -0.012849  -0.011057
   17  N  4  S   -0.065162   0.193557  -0.090105   0.070017   0.058470
   18  N  4  X   -0.011637   0.117877   0.060056   0.150434   0.014123
   19  N  4  Y   -0.087140   0.179116   0.113893  -0.230940  -0.006916
   20  N  4  Z   -0.066791  -0.000383   0.543500   0.249723  -0.122842
   21  C  5  S    0.013263   0.005032   0.000518   0.003138   0.001401
   22  C  5  S   -0.051890  -0.017102  -0.002584  -0.014266  -0.005650
   23  C  5  X   -0.114832   0.011234  -0.024427  -0.010125   0.002912
   24  C  5  Y    0.021559  -0.068266   0.009771   0.003973  -0.006255
   25  C  5  Z    0.023174   0.060961  -0.043766  -0.022949   0.038489
   26  C  6  S    0.021563   0.004679  -0.017783   0.001995   0.002806
   27  C  6  S   -0.092428  -0.030096   0.074853  -0.008168  -0.009138
   28  C  6  X   -0.224943  -0.190139  -0.079545  -0.008294   0.001609
   29  C  6  Y    0.075004   0.051939  -0.054363   0.021182   0.027696
[...]
    5             2.001888   0.000013  -0.000004  -0.000002   0.000000
    6            -0.000000  -0.000000  -0.000643   0.000001   2.003079
    7            -0.000002   0.000000   0.000587   2.002393   0.000001
    8            -0.000000   0.000000  -0.000000  -0.000477  -0.000502
    9            -0.000000  -0.000001  -0.000960  -0.000000   0.000001
   10             0.000000  -0.000640   0.000000   0.000000   0.000000
   11            -0.000004  -0.000004  -0.000000  -0.000000   0.000000
   12            -0.000617  -0.000000  -0.000000   0.000000  -0.000000
   13            -0.000000  -0.000002   0.000001  -0.000000  -0.000969
   14             0.000000  -0.000000   0.000001  -0.000000  -0.000970
   15            -0.000002  -0.000000  -0.000000  -0.000950  -0.000000
   16            -0.000000  -0.000000  -0.000000  -0.000946   0.000000

                     11         12         13         14         15

                  2.000000   2.000000   2.000000   2.000000   2.000000

    1            -0.000001  -0.000000  -0.000002  -0.000000   0.043570
    2             0.000000  -0.000000   0.000000  -0.000000   0.101483
    3            -0.000000  -0.000000  -0.000000  -0.000000   0.285200
    4            -0.000000  -0.000000  -0.000000  -0.000000   0.180399
    5            -0.000000   0.000000  -0.000000  -0.000000   0.299008
    6            -0.000974  -0.000513  -0.000483  -0.000041   0.003172
    7            -0.000932  -0.000478  -0.000478  -0.000039   0.010176
    8             2.001924   2.000998   2.000965   2.000081   0.001016
    9            -0.000000   0.000000  -0.000000   0.000000   0.001515
   10            -0.000000  -0.000000  -0.000000  -0.000000   0.558922
   11             0.000000  -0.000000  -0.000000   0.000000   0.009674
   12            -0.000000  -0.000000  -0.000000  -0.000000   0.504501
   13            -0.000005  -0.000002  -0.000000  -0.000001   0.000233
   14            -0.000004  -0.000002  -0.000000  -0.000000   0.000081
   15            -0.000003  -0.000002  -0.000000  -0.000000   0.000804
   16            -0.000004  -0.000001  -0.000001  -0.000001   0.000248

                     16         17         18         19         20

                  2.000000   2.000000   2.000000   2.000000   2.000000

    1             0.006268   0.226899   0.068316   0.322020   0.304254
    2             0.036842   0.624649   0.303752   0.229428   0.152403
    3             0.279062   0.107011   0.155553   0.057078   0.104012
    4             0.019191   0.204117   0.871514   0.006130   0.105911
    5             0.275072   0.225195   0.149220   0.081571   0.016752
    6             0.000105   0.037723   0.033095   0.708002   0.049610
    7             0.004666   0.123433   0.161382   0.052664   0.516837
    8             0.000235   0.026662   0.049519   0.271919   0.506394
    9             0.000096   0.010125   0.004921   0.034374   0.043281
   10             0.740915   0.100711   0.061471   0.017517   0.009401
   11             0.000008   0.010594   0.095360   0.000383   0.034299
   12             0.636792   0.289235   0.020141   0.022675   0.001500
   13             0.000027   0.001947   0.001809   0.095637   0.000300
   14             0.000004   0.001413   0.002078   0.094864   0.000488
   15             0.000605   0.004697   0.011390   0.004221   0.078949
   16             0.000110   0.005589   0.010479   0.001518   0.075609

                     21         22         23         24         25

                  2.000000   2.000000   2.000000   2.000000   2.000000

    1             0.222205   0.146144   0.248375   0.132804   0.391415
    2             0.180404   0.152303   0.173424   0.121812   0.277409
    3             0.228591   0.150713   0.184329   0.216269   0.092230
    4             0.123441   0.311386   0.244741   0.457040   0.151835
    5             0.258522   0.060153   0.102778   0.302579   0.232970
    6             0.235176   0.177817   0.233747   0.039166   0.209129
    7             0.239440   0.133364   0.148250   0.245650   0.043337
    8             0.076118   0.567118   0.173306   0.056899   0.082244
    9             0.057651   0.014661   0.080803   0.035190   0.193768
   10             0.074150   0.021279   0.073069   0.078463   0.060195
   11             0.000690   0.162099   0.060063   0.037232   0.027733
   12             0.072482   0.002908   0.030049   0.116205   0.109744
   13             0.055752   0.025857   0.112947   0.000006   0.028753
   14             0.052592   0.056036   0.051999   0.001700   0.089483
   15             0.049105   0.003535   0.070354   0.084933   0.009436
   16             0.073681   0.014627   0.011765   0.074052   0.000317

                     26         27         28         29         30

                  2.000000   2.000000   2.000000   2.000000   2.000000

    1             0.134564   0.243103   0.059177   0.085118   0.077272
    2             0.186007   0.144260   0.191411   0.144097   0.042230
    3             0.154152   0.233493   0.143399   0.072876   0.179359
    4             0.314655   0.163939   0.044785   0.090509   0.174923
    5             0.128292   0.092608   0.118926   0.185407   0.157122
    6             0.130459   0.335447   0.080395   0.131719   0.335919
    7             0.289870   0.124558   0.280934   0.474131   0.063497
    8             0.050544   0.037112   0.029564   0.028665   0.082034
    9             0.000352   0.040318   0.000049   0.005229   0.041605
   10             0.088529   0.210695   0.509137   0.087450   0.165831
   11             0.161662   0.052460   0.017650   0.019328   0.034815
   12             0.094080   0.047955   0.310177   0.303197   0.305842
   13             0.000441   0.167175   0.049562   0.000210   0.115011
   14             0.074603   0.021368   0.009294   0.056420   0.177876
   15             0.049904   0.041157   0.154458   0.055511   0.014578
   16             0.141885   0.044352   0.001081   0.260133   0.032087

                     31         32         33         34         35

                  2.000000   2.000000   2.000000   2.000000   2.000000

    1             0.248886   0.183997   0.305507   0.021209   0.011936
    2             0.057926   0.268920   0.220891   0.215071   0.008928
    3             0.119300   0.253024   0.110242   0.372243   0.034203
    4             0.283648   0.125695   0.079580   0.026554   0.003668
    5             0.237125   0.094265   0.158870   0.286807   0.041267
    6             0.240023   0.053191   0.152638   0.034232   0.494600
    7             0.038592   0.200485   0.065522   0.139307   0.421626
    8             0.084502   0.015985   0.019639   0.078358   0.652075
    9             0.100022   0.010914   0.132946   0.015409   0.004133
   10             0.262573   0.618152   0.081455   0.378821   0.060780
   11             0.000995   0.000593   0.011923   0.001797   0.000003
   12             0.250545   0.073840   0.479421   0.310459   0.057072
   13             0.070391   0.027864   0.021315   0.027722   0.063523
   14             0.000156   0.001083   0.122977   0.001931   0.052360
   15             0.005311   0.065600   0.031976   0.060959   0.065534
   16             0.000005   0.006393   0.005097   0.029123   0.028292

                     36         37         38         39         40

                  2.000000   2.000000   2.000000   2.000000   2.000000

    1             0.158186   0.167671   0.115163   0.016370   0.028506
    2             0.066540   0.160224   0.277721   0.218881   0.725800
    3             0.039991   0.025922   0.030595   0.043322   0.014294
    4             0.022795   0.101992   0.224306   0.862416   0.181801
    5             0.029026   0.007497   0.009457   0.015878   0.034063
    6             0.214139   0.097802   0.050713   0.010305   0.022819
    7             0.111922   0.031484   0.053556   0.011393   0.030464
    8             0.731184   0.369502   0.075273   0.047299   0.162477
    9             0.026289   0.007843   0.000077   0.018187   0.030055
   10             0.302988   0.386336   0.668524   0.495676   0.127609
   11             0.003081   0.028835   0.001461   0.000016   0.000033
   12             0.288000   0.604079   0.484984   0.245454   0.605150
   13             0.002464   0.003240   0.000448   0.001266   0.002219
   14            -0.000000   0.000286   0.004983   0.000067   0.000348
   15             0.000504   0.006366   0.000275   0.000287   0.001133
   16             0.002892   0.000922   0.002466   0.013184   0.033228

                     41

                  2.000000

    1             0.001583
    2             0.003313
    3             0.000393
    4             0.001023
    5             0.000853
    6             0.023739
    7             0.020068
    8             1.808781
    9             0.001012
   10             0.001925
   11             0.000277
   12             0.001070
   13             0.039545
   14             0.034924
   15             0.021743
   16             0.039751

               ----- POPULATIONS IN EACH AO -----
                             MULLIKEN      LOWDIN
              1  C  1  S      1.99228     1.98475
              2  C  1  S      1.17761     1.06128
              3  C  1  X      0.95180     0.99480
              4  C  1  Y      0.84180     0.89128
              5  C  1  Z      1.00798     1.02991
              6  N  2  S      1.99526     1.99115
              7  N  2  S      1.52497     1.37329
              8  N  2  X      1.08154     1.11018
              9  N  2  Y      1.06130     1.08911
             10  N  2  Z      1.62335     1.63343
             11  C  3  S      1.99365     1.98599
             12  C  3  S      1.07882     1.04462
             13  C  3  X      0.90778     0.94840
             14  C  3  Y      0.80993     0.88360
             15  C  3  Z      0.89564     0.90873
             16  N  4  S      1.99481     1.99046
             17  N  4  S      1.44563     1.26939
             18  N  4  X      1.22847     1.23911
             19  N  4  Y      1.09984     1.13093
             20  N  4  Z      1.61035     1.60727
             21  C  5  S      1.99365     1.98564
             22  C  5  S      1.04381     1.02464
             23  C  5  X      0.85979     0.90180
             24  C  5  Y      0.83851     0.90933
             25  C  5  Z      0.86434     0.88961
             26  C  6  S      1.99245     1.98544
             27  C  6  S      1.22621     1.07715
             28  C  6  X      0.91932     0.95882
             29  C  6  Y      0.98319     1.01399
             30  C  6  Z      1.01414     1.03863
             31  C  7  S      1.99253     1.98524
             32  C  7  S      1.21052     1.07295
             33  C  7  X      0.83123     0.88385
             34  C  7  Y      0.99640     1.02310
             35  C  7  Z      1.00631     1.02887
             36  S  8  S      1.99993     1.99976
             37  S  8  S      1.99746     1.99715
             38  S  8  X      1.98990     1.98368
             39  S  8  Y      1.98540     1.97499
             40  S  8  Z      1.99493     1.99160
             41  S  8  S      1.87433     1.80856
             42  S  8  X      1.43141     1.45220
             43  S  8  Y      1.10875     1.13348
             44  S  8  Z      1.70528     1.71494
             45  H  9  S      0.90986     0.95222
             46  O 10  S      1.99807     1.99723
             47  O 10  S      1.86674     1.75279
             48  O 10  X      1.59308     1.61110
             49  O 10  Y      1.42767     1.46854
             50  O 10  Z      1.35787     1.35926
             51  H 11  S      0.77223     0.84162
             52  O 12  S      1.99806     1.99721
             53  O 12  S      1.86597     1.75380
             54  O 12  X      1.71028     1.71315
             55  O 12  Y      1.26967     1.32509
             56  O 12  Z      1.42446     1.43169
             57  H 13  S      0.91469     0.95448
             58  H 14  S      0.90844     0.94927
             59  H 15  S      0.89237     0.93712
             60  H 16  S      0.90793     0.95234

          ----- MULLIKEN ATOMIC OVERLAP POPULATIONS -----
          (OFF-DIAGONAL ELEMENTS NEED TO BE MULTIPLIED BY 2)

             1           2           3           4           5

    1    4.7601301
    2    0.3312856   6.4870501
    3    0.3482119  -0.0235763   4.6674241
    4   -0.0448201  -0.0417948   0.3520179   6.4511395
    5   -0.0373310   0.3338934  -0.0408882   0.3547889   4.6005125
    6    0.3480596  -0.0253360  -0.0175576   0.0003086   0.0002987
    7   -0.0364803   0.3330108   0.0010568   0.0007409  -0.0288962
    8   -0.0257733  -0.0275049   0.0006617  -0.0000183   0.0004150
    9    0.3822943  -0.0228321  -0.0202512   0.0007196   0.0016893
   10   -0.0190324   0.0001200   0.4461130  -0.0224246   0.0004041
   11    0.0017951   0.0013252  -0.0242084   0.3490548  -0.0249309
   12    0.0003650  -0.0196629   0.0003763  -0.0208421   0.4439004
   13   -0.0203194   0.0005221  -0.0042031   0.0001948   0.0000401
   14   -0.0188324   0.0007453   0.0006760  -0.0000075  -0.0000144
   15    0.0015755  -0.0172555  -0.0000256   0.0000639  -0.0052635
   16    0.0003409  -0.0235694  -0.0000162  -0.0000182   0.0014830

             6           7           8           9          10

    6    4.8435210
    7   -0.0188136   4.7684217
    8    0.2585492   0.2503814  15.7262124
    9   -0.0238657   0.0006736   0.0003665   0.5947940
   10   -0.0003386  -0.0000012  -0.0000004  -0.0004120   7.8385913
   11   -0.0000278  -0.0000262   0.0000028  -0.0000299   0.0003184
   12    0.0000005  -0.0011373   0.0000321  -0.0000059  -0.0000001
   13    0.3842433   0.0006168  -0.0248533   0.0015462   0.0000904
   14    0.3854487   0.0006089  -0.0228333  -0.0050373  -0.0000024
   15    0.0006184   0.3823644  -0.0204245  -0.0000287   0.0000000
   16    0.0002072   0.3844613  -0.0278131   0.0002441   0.0000000

            11          12          13          14          15

   11    0.4687526
   12    0.0002329   7.8639641
   13   -0.0000243  -0.0000002   0.6008913
   14    0.0000006   0.0000000  -0.0240304   0.5917057
   15   -0.0000032   0.0012366  -0.0000057  -0.0000126   0.5724087
   16    0.0000008  -0.0000182  -0.0000218   0.0000253  -0.0228766

            16

   16    0.5955053

          TOTAL MULLIKEN AND LOWDIN ATOMIC POPULATIONS
       ATOM         MULL.POP.    CHARGE          LOW.POP.     CHARGE
    1 C             5.971469    0.028531         5.962021    0.037979
    2 N             7.286421   -0.286421         7.197161   -0.197161
    3 C             5.685811    0.314189         5.771336    0.228664
    4 N             7.379103   -0.379103         7.237164   -0.237164
    5 C             5.600101    0.399899         5.711027    0.288973
    6 C             6.135316   -0.135316         6.074027   -0.074027
    7 C             6.036982   -0.036982         5.994003    0.005997
    8 S            16.087400   -0.087400        16.056351   -0.056351
    9 H             0.909865    0.090135         0.952221    0.047779
   10 O             8.243426   -0.243426         8.188910   -0.188910
   11 H             0.772232    0.227768         0.841623    0.158377
   12 O             8.268441   -0.268441         8.220941   -0.220941
   13 H             0.914687    0.085313         0.954483    0.045517
   14 H             0.908440    0.091560         0.949273    0.050727
   15 H             0.892372    0.107628         0.937123    0.062877
   16 H             0.907934    0.092066         0.952338    0.047662

          -------------------------------
          BOND ORDER AND VALENCE ANALYSIS     BOND ORDER THRESHOLD=0.050
          -------------------------------

                   BOND                       BOND                       BOND
  ATOM PAIR DIST  ORDER      ATOM PAIR DIST  ORDER      ATOM PAIR DIST  ORDER
    1   2  1.479  0.949        1   3  1.555  0.917        1   6  1.563  0.961
    1   9  1.093  0.957        1  10  2.500  0.053        2   5  1.451  0.962
    2   7  1.469  0.965        2  12  2.384  0.110        3   4  1.419  0.999
    3  10  1.213  1.942        4   5  1.421  0.989        4  10  2.352  0.129
    4  11  1.018  0.906        4  12  2.368  0.114        5  12  1.213  1.902
    6   8  1.845  0.972        6  13  1.088  0.972        6  14  1.087  0.972
    7   8  1.858  0.946        7  15  1.091  0.964        7  16  1.092  0.962

                       TOTAL       BONDED        FREE
      ATOM            VALENCE     VALENCE     VALENCE
    1 C                 3.931       3.931       0.000
    2 N                 3.107       3.107      -0.000
    3 C                 3.920       3.920      -0.000
    4 N                 3.200       3.200      -0.000
    5 C                 3.929       3.929       0.000
    6 C                 3.934       3.934      -0.000
    7 C                 3.903       3.903      -0.000
    8 S                 2.013       2.013      -0.000
    9 H                 0.992       0.992       0.000
   10 O                 2.176       2.176       0.000
   11 H                 0.948       0.948       0.000
   12 O                 2.178       2.178      -0.000
   13 H                 0.993       0.993       0.000
   14 H                 0.992       0.992       0.000
   15 H                 0.988       0.988      -0.000
   16 H                 0.992       0.992       0.000

          ---------------------
          ELECTROSTATIC MOMENTS
          ---------------------

 POINT   1           X           Y           Z (BOHR)    CHARGE
                -0.000000    0.000000    0.000000       -0.00 (A.U.)
         DX          DY          DZ         /D/  (DEBYE)
    -0.614961    0.759159   -0.704908    1.204738
 ...... END OF PROPERTY EVALUATION ......
 STEP CPU TIME =     0.01 TOTAL CPU TIME =       11.5 (    0.2 MIN)
 TOTAL WALL CLOCK TIME=       23.2 SECONDS, CPU UTILIZATION IS  49.53%
  $VIB   
          IVIB=   0 IATOM=   0 ICOORD=   0 E=     -838.9308515950
 -2.751480911E-05 1.509402743E-05-2.382619708E-06 4.788871046E-05-3.878808961E-05
 -1.577802048E-06 4.197183976E-05 3.736626374E-05 6.475793687E-05-5.738491694E-05
  1.619742136E-05-3.422519796E-05-1.938799866E-05-3.156452578E-05-3.167877586E-05
  3.280290754E-06 1.232546264E-05-1.770156480E-06 2.230978672E-05 2.930804865E-05
 -3.661141892E-05 1.604459334E-06-1.861214789E-05 1.576169252E-05-9.392663139E-06
 -1.472592940E-05-8.122994895E-06-9.914625484E-06-8.582459677E-06-1.236835651E-05
  1.243009379E-05 2.404220952E-06 9.523314303E-06 5.084101123E-06 2.137535281E-06
  1.549143992E-05 1.706405197E-06 2.593488861E-06-2.208687225E-06-4.273160784E-06
 -1.070087859E-06 3.126345917E-06 1.075524449E-05 3.244703011E-06 1.787836129E-05
 -1.916275753E-05-7.327931715E-06 4.406918793E-06
 -6.149611082E-01 7.591588547E-01-7.049077581E-01
 ......END OF GEOMETRY SEARCH......
 STEP CPU TIME =     0.01 TOTAL CPU TIME =       11.5 (    0.2 MIN)
 TOTAL WALL CLOCK TIME=       23.2 SECONDS, CPU UTILIZATION IS  49.57%
               580000  WORDS OF DYNAMIC MEMORY USED
 EXECUTION OF GAMESS TERMINATED NORMALLY Mon Nov 28 22:14:28 2016
 DDI: 263640 bytes (0.3 MB / 0 MWords) used by master data server.

 ----------------------------------------
 CPU timing information for all processes
 ========================================
 0: 10.902 + 0.628 = 11.531
 ----------------------------------------
 ddikick.x: exited gracefully.
unset echo
----- accounting info -----
Files used on the master node compute-3-0 were:
-rw-rw-r-- 1 sarom sarom   719381 Nov 29  2016 .//opt-acthcp.dat
-rw-rw-r-- 1 sarom sarom    47201 Nov 29  2016 .//opt-acthcp.F05
-rw-rw-r-- 1 sarom sarom 14941328 Nov 29  2016 .//opt-acthcp.F08
-rw-rw-r-- 1 sarom sarom  1995920 Nov 29  2016 .//opt-acthcp.F10
-rw-rw-r-- 1 sarom sarom    47201 Nov 28 17:27 .//opt-acthcp.inp
-rw-rw-r-- 1 sarom sarom   441933 Nov 29  2016 .//opt-acthcp.log
Mon Nov 28 22:14:31 CST 2016
0.199u 0.503s 0:27.39 2.5%	0+0k 0+224io 0pf+0w
