-catch_rsh /opt/gridengine/default/spool/compute-0-8/active_jobs/23692.1/pe_hostfile
compute-0-8
The primary node assigned by SGE to this run is compute-0-8
Warning: no access to tty (Bad file descriptor).
Thus no job control in this shell.
Deleting shmid=2785280.
Deleting shmid=2818049.
source /home/sarom/gamess.github.2017-05-31.14.06/install.info
setenv GMS_PATH /home/sarom/gamess.github.2017-05-31.14.06
setenv GMS_BUILD_DIR /home/sarom/gamess.github.2017-05-31.14.06
setenv GMS_TARGET linux64
setenv GMS_FORTRAN gfortran
setenv GMS_GFORTRAN_VERNO 4.4
setenv GMS_MATHLIB mkl-so
setenv GMS_MATHLIB_PATH /share/apps/intel/compilers_and_libraries_2017.1.132/linux/mkl/lib/intel64
setenv GMS_MKL_VERNO 12
setenv GMS_DDI_COMM sockets
setenv GMS_LIBCCHEM false
setenv GMS_EIGEN_PATH
setenv GMS_PHI false
setenv GMS_SHMTYPE sysv
setenv GMS_OPENMP false
unset echo
sadpt-bakerd
tests/pes
----- GAMESS execution script 'rungms' -----
This job is running on host compute-0-8.local
under operating system Linux at Fri Jun 2 02:09:42 CDT 2017
Available scratch disk space (Kbyte units) at beginning of the job is
Filesystem           1K-blocks      Used Available Use% Mounted on
/dev/sda1             16126920   3867344  11440376  26% /
GAMESS temporary binary files will be written to /scratch
GAMESS supplementary output files will be written to /home/sarom/restart
Copying input file sadpt-bakerd.inp to your run's scratch directory...
cp tests/pes/sadpt-bakerd.inp /scratch/sadpt-bakerd.F05
unset echo
The generated host list is
compute-0-8.local
/home/sarom/gamess.github.2017-05-31.14.06/ddikick.x /home/sarom/gamess.github.2017-05-31.14.06/gamess.00.x sadpt-bakerd -ddi 1 1 compute-0-8.local -scr /scratch

 Distributed Data Interface kickoff program.
 Initiating 1 compute processes on 1 nodes to run the following command:
 /home/sarom/gamess.github.2017-05-31.14.06/gamess.00.x sadpt-bakerd 

          ******************************************************
          *         GAMESS VERSION = 20 APR 2017 (R1)          *
          *             FROM IOWA STATE UNIVERSITY             *
          * M.W.SCHMIDT, K.K.BALDRIDGE, J.A.BOATZ, S.T.ELBERT, *
          *   M.S.GORDON, J.H.JENSEN, S.KOSEKI, N.MATSUNAGA,   *
          *          K.A.NGUYEN, S.J.SU, T.L.WINDUS,           *
          *       TOGETHER WITH M.DUPUIS, J.A.MONTGOMERY       *
          *         J.COMPUT.CHEM.  14, 1347-1363(1993)        *
          **************** 64 BIT LINUX VERSION ****************

  SINCE 1993, STUDENTS AND POSTDOCS WORKING AT IOWA STATE UNIVERSITY
  AND ALSO IN THEIR VARIOUS JOBS AFTER LEAVING ISU HAVE MADE IMPORTANT
  CONTRIBUTIONS TO THE CODE:
     IVANA ADAMOVIC, CHRISTINE AIKENS, YURI ALEXEEV, POOJA ARORA,
     ANDREY ASADCHEV, ROB BELL, PRADIPTA BANDYOPADHYAY, JONATHAN BENTZ,
     BRETT BODE, KURT BRORSEN, CALEB CARLIN, GALINA CHABAN, WEI CHEN,
     CHEOL HO CHOI, PAUL DAY, ALBERT DEFUSCO, NUWAN DESILVA, TIM DUDLEY,
     DMITRI FEDOROV, GRAHAM FLETCHER, MARK FREITAG, KURT GLAESEMANN,
     DAN KEMP, GRANT MERRILL, NORIYUKI MINEZAWA, JONATHAN MULLIN,
     TAKESHI NAGATA, SEAN NEDD, HEATHER NETZLOFF, BOSILJKA NJEGIC, RYAN OLSON,
     MIKE PAK, SPENCER PRUITT, LUKE ROSKOP, JIM SHOEMAKER, LYUDMILA SLIPCHENKO,
     TONY SMITH, SAROM SOK LEANG, JIE SONG, TETSUYA TAKETSUGU, SIMON WEBB,
     PENG XU, SOOHAENG YOO, FEDERICO ZAHARIEV

  ADDITIONAL CODE HAS BEEN PROVIDED BY COLLABORATORS IN OTHER GROUPS:
     IOWA STATE UNIVERSITY:
          JOE IVANIC, AARON WEST, LAIMUTIS BYTAUTAS, KLAUS RUEDENBERG
     UNIVERSITY OF TOKYO: KIMIHIKO HIRAO, TAKAHITO NAKAJIMA,
          TAKAO TSUNEDA, MUNEAKI KAMIYA, SUSUMU YANAGISAWA,
          KIYOSHI YAGI, MAHITO CHIBA, SEIKEN TOKURA, NAOAKI KAWAKAMI
     UNIVERSITY OF AARHUS: FRANK JENSEN
     UNIVERSITY OF IOWA: VISVALDAS KAIRYS, HUI LI
     NATIONAL INST. OF STANDARDS AND TECHNOLOGY: WALT STEVENS, DAVID GARMER
     UNIVERSITY OF PISA: BENEDETTA MENNUCCI, JACOPO TOMASI
     UNIVERSITY OF MEMPHIS: HENRY KURTZ, PRAKASHAN KORAMBATH
     UNIVERSITY OF ALBERTA: TOBY ZENG, MARIUSZ KLOBUKOWSKI
     UNIVERSITY OF NEW ENGLAND: MARK SPACKMAN
     MIE UNIVERSITY: HIROAKI UMEDA
     NAT. INST. OF ADVANCED INDUSTRIAL SCIENCE AND TECHNOLOGY: KAZUO KITAURA
     MICHIGAN STATE UNIVERSITY:
          KAROL KOWALSKI, MARTA WLOCH, JEFFREY GOUR, JESSE LUTZ,
          WEI LI, PIOTR PIECUCH
     UNIVERSITY OF SILESIA: MONIKA MUSIAL, STANISLAW KUCHARSKI
     FACULTES UNIVERSITAIRES NOTRE-DAME DE LA PAIX:
          OLIVIER QUINET, BENOIT CHAMPAGNE
     UNIVERSITY OF CALIFORNIA - SANTA BARBARA: BERNARD KIRTMAN
     INSTITUTE FOR MOLECULAR SCIENCE:
          KAZUYA ISHIMURA, MICHIO KATOUDA, AND SHIGERU NAGASE
     UNIVERSITY OF NOTRE DAME: ANNA POMOGAEVA, DAN CHIPMAN
     KYUSHU UNIVERSITY:
          HARUYUKI NAKANO,
          FENG LONG GU, JACEK KORCHOWIEC, MARCIN MAKOWSKI, AND YURIKO AOKI,
          HIROTOSHI MORI AND EISAKU MIYOSHI
     PENNSYLVANIA STATE UNIVERSITY:
          TZVETELIN IORDANOV, CHET SWALINA, JONATHAN SKONE,
          SHARON HAMMES-SCHIFFER
     WASEDA UNIVERSITY:
          MASATO KOBAYASHI, TOMOKO AKAMA, TSUGUKI TOUMA,
          TAKESHI YOSHIKAWA, YASUHIRO IKABATA, JUNJI SEINO,
          YUYA NAKAJIMA, HIROMI NAKAI
     NANJING UNIVERSITY: SHUHUA LI
     UNIVERSITY OF NEBRASKA:
          PEIFENG SU, DEJUN SI, NANDUN THELLAMUREGE, YALI WANG, HUI LI
     UNIVERSITY OF ZURICH: ROBERTO PEVERATI, KIM BALDRIDGE
     N. COPERNICUS UNIVERSITY AND JACKSON STATE UNIVERSITY:
          MARIA BARYSZ
     UNIVERSITY OF COPENHAGEN: Jimmy Kromann, CASPER STEINMANN
     TOKYO INSTITUTE OF TECHNOLOGY: HIROYA NAKATA
     NAGOYA UNIVERSITY: YOSHIO NISHIMOTO, STEPHAN IRLE
     MOSCOW STATE UNIVERSITY: VLADIMIR MIRONOV

 EXECUTION OF GAMESS BEGUN Fri Jun  2 02:09:42 2017

            ECHO OF THE FIRST FEW INPUT CARDS -
 INPUT CARD>!  Baker's test case D.   FCN to CNF isomerization.                             
 INPUT CARD>!  See J.Baker  J.Comput.Chem.  7,385-395(1986).                                
 INPUT CARD>!                                                                               
 INPUT CARD>!  The starting geometry is in a positive curvature region,                     
 INPUT CARD>!  with R(FC)=1.3, R(CN)=1.291, and A(FCN)=170.0, and where                     
 INPUT CARD>!  the frequencies are 581.4, 1183.6, 2496.2 cm**-1.                            
 INPUT CARD>!                                                                               
 INPUT CARD>!     NSERCH:   0  E=     -189.1159172153  R.M.S.=  0.0565776                   
 INPUT CARD>!     NSERCH:   1  E=     -189.1149332327  R.M.S.=  0.0151471                   
 INPUT CARD>!           ...snipped...                                                       
 INPUT CARD>!     NSERCH:  10  E=     -188.9778966748  R.M.S.=  0.0003645                   
 INPUT CARD>!     NSERCH:  11  E=     -188.9778968371  R.M.S.=  0.0000138                   
 INPUT CARD>!                                                                               
 INPUT CARD>!  This run takes 0 seconds on almost anything (28 Apr 2015)                    
 INPUT CARD>!  answers have not changed since at least 2005.                                
 INPUT CARD>!                                                                               
 INPUT CARD> $contrl scftyp=rhf runtyp=sadpoint nzvar=3 $end                                
 INPUT CARD> $system mwords=1 $end                                                          
 INPUT CARD> $basis  gbasis=sto ngauss=3 $end                                               
 INPUT CARD> $guess  guess=huckel $end                                                      
 INPUT CARD> $statpt hess=read $end                                                         
 INPUT CARD> $zmat   izmat(1)=1,1,2,   1,2,3,   2,1,2,3   $end                              
 INPUT CARD> $data                                                                          
 INPUT CARD>FCN...Baker's test case "D"                                                     
 INPUT CARD>CS                                                                              
 INPUT CARD>                                                                                
 INPUT CARD>FLUORINE   9.0    -0.509047    -1.026869                                        
 INPUT CARD>CARBON     6.0     0.000000     0.169322                                        
 INPUT CARD>NITROGEN   7.0     0.654489     1.175127                                        
 INPUT CARD> $END                                                                           
 INPUT CARD> $HESS                                                                          
 INPUT CARD>...hessian title card goes here...                                              
 INPUT CARD> 1  1 0.11684037D+00 0.24974507D+00 0.00000000D+00-0.12171200D+00-0.22541231D+00
 INPUT CARD> 1  2 0.00000000D+00 0.48716405D-02-0.24332761D-01 0.00000000D+00               
 INPUT CARD> 2  1 0.24974507D+00 0.57982920D+00 0.00000000D+00-0.24460131D+00-0.57756339D+00
 INPUT CARD> 2  2 0.00000000D+00-0.51437548D-02-0.22658425D-02 0.00000000D+00               
 INPUT CARD> 3  1 0.00000000D+00 0.00000000D+00 0.72069600D-02 0.00000000D+00 0.00000000D+00
 INPUT CARD> 3  2-0.23924901D-01 0.00000000D+00 0.00000000D+00 0.16717919D-01               
 INPUT CARD> 4  1-0.12171200D+00-0.24460131D+00 0.00000000D+00 0.53517313D+00 0.76514974D+00
 INPUT CARD> 4  2 0.00000000D+00-0.41346113D+00-0.52054844D+00 0.00000000D+00               
 INPUT CARD> 5  1-0.22541231D+00-0.57756339D+00 0.00000000D+00 0.76514974D+00 0.15078817D+01
 INPUT CARD> 5  2 0.00000000D+00-0.53973744D+00-0.93031828D+00 0.00000000D+00               
 INPUT CARD> 6  1 0.00000000D+00 0.00000000D+00-0.23924901D-01 0.00000000D+00 0.00000000D+00
 INPUT CARD> 6  2 0.10615719D+00 0.00000000D+00 0.00000000D+00-0.82232329D-01               
 INPUT CARD> 7  1 0.48716405D-02-0.51437548D-02 0.00000000D+00-0.41346113D+00-0.53973744D+00
 INPUT CARD> 7  2 0.00000000D+00 0.40858950D+00 0.54488119D+00 0.00000000D+00               
 INPUT CARD> 8  1-0.24332761D-01-0.22658425D-02 0.00000000D+00-0.52054844D+00-0.93031828D+00
 INPUT CARD> 8  2 0.00000000D+00 0.54488119D+00 0.93258412D+00 0.00000000D+00               
 INPUT CARD> 9  1 0.00000000D+00 0.00000000D+00 0.16717919D-01 0.00000000D+00 0.00000000D+00
 INPUT CARD> 9  2-0.82232329D-01 0.00000000D+00 0.00000000D+00 0.65514470D-01               
    1000000 WORDS OF MEMORY AVAILABLE

     BASIS OPTIONS
     -------------
     GBASIS=STO          IGAUSS=       3      POLAR=NONE    
     NDFUNC=       0     NFFUNC=       0     DIFFSP=       F
     NPFUNC=       0      DIFFS=       F     BASNAM=        


     RUN TITLE
     ---------
 FCN...Baker's test case "D"                                                     

 THE POINT GROUP OF THE MOLECULE IS CS      
 THE ORDER OF THE PRINCIPAL AXIS IS     0

 ATOM      ATOMIC                      COORDINATES (BOHR)
           CHARGE         X                   Y                   Z
 FLUORINE    9.0    -0.9619593449       -1.9405010353        0.0000000000
 CARBON      6.0     0.0000000000        0.3199721837        0.0000000000
 NITROGEN    7.0     1.2368048720        2.2206680308        0.0000000000

          INTERNUCLEAR DISTANCES (ANGS.)
          ------------------------------

                1 FLUO       2 CARB       3 NITR  

   1 FLUO    0.0000000    1.3000007 *  2.4905024 *
   2 CARB    1.3000007 *  0.0000000    1.1999998 *
   3 NITR    2.4905024 *  1.1999998 *  0.0000000  

  * ... LESS THAN  3.000


     ATOMIC BASIS SET
     ----------------
 THE CONTRACTED PRIMITIVE FUNCTIONS HAVE BEEN UNNORMALIZED
 THE CONTRACTED BASIS FUNCTIONS ARE NOW NORMALIZED TO UNITY

  SHELL TYPE  PRIMITIVE        EXPONENT          CONTRACTION COEFFICIENT(S)

 FLUORINE  

      1   S       1           166.6791340    0.154328967295
      1   S       2            30.3608123    0.535328142282
      1   S       3             8.2168207    0.444634542185

      2   L       4             6.4648032   -0.099967229187    0.155916274999
      2   L       5             1.5022812    0.399512826089    0.607683718598
      2   L       6             0.4885885    0.700115468880    0.391957393099

 CARBON    

      3   S       7            71.6168373    0.154328967295
      3   S       8            13.0450963    0.535328142282
      3   S       9             3.5305122    0.444634542185

      4   L      10             2.9412494   -0.099967229187    0.155916274999
      4   L      11             0.6834831    0.399512826089    0.607683718598
      4   L      12             0.2222899    0.700115468880    0.391957393099

 NITROGEN  

      5   S      13            99.1061690    0.154328967295
      5   S      14            18.0523124    0.535328142282
      5   S      15             4.8856602    0.444634542185

      6   L      16             3.7804559   -0.099967229187    0.155916274999
      6   L      17             0.8784966    0.399512826089    0.607683718598
      6   L      18             0.2857144    0.700115468880    0.391957393099

 TOTAL NUMBER OF BASIS SET SHELLS             =    6
 NUMBER OF CARTESIAN GAUSSIAN BASIS FUNCTIONS =   15
 NUMBER OF ELECTRONS                          =   22
 CHARGE OF MOLECULE                           =    0
 SPIN MULTIPLICITY                            =    1
 NUMBER OF OCCUPIED ORBITALS (ALPHA)          =   11
 NUMBER OF OCCUPIED ORBITALS (BETA )          =   11
 TOTAL NUMBER OF ATOMS                        =    3
 THE NUCLEAR REPULSION ENERGY IS       53.8885248845

     $CONTRL OPTIONS
     ---------------
 SCFTYP=RHF          RUNTYP=SADPOINT     EXETYP=RUN     
 MPLEVL=       0     CITYP =NONE         CCTYP =NONE         VBTYP =NONE    
 DFTTYP=NONE         TDDFT =NONE    
 MULT  =       1     ICHARG=       0     NZVAR =       3     COORD =UNIQUE  
 PP    =NONE         RELWFN=NONE         LOCAL =NONE         NUMGRD=       F
 ISPHER=      -1     NOSYM =       0     MAXIT =      30     UNITS =ANGS    
 PLTORB=       F     MOLPLT=       F     AIMPAC=       F     FRIEND=        
 NPRINT=       7     IREST =       0     GEOM  =INPUT   
 NORMF =       0     NORMP =       0     ITOL  =      20     ICUT  =       9
 INTTYP=BEST         GRDTYP=BEST         QMTTOL= 1.0E-06

     $SYSTEM OPTIONS
     ---------------
  REPLICATED MEMORY=     1000000 WORDS (ON EVERY NODE).
 DISTRIBUTED MEMDDI=           0 MILLION WORDS IN AGGREGATE,
 MEMDDI DISTRIBUTED OVER   1 PROCESSORS IS           0 WORDS/PROCESSOR.
 TOTAL MEMORY REQUESTED ON EACH PROCESSOR=     1000000 WORDS.
 TIMLIM=      525600.00 MINUTES, OR     365.0 DAYS.
 PARALL= F  BALTYP=  DLB     KDIAG=    0  COREFL= F
 MXSEQ2=     300 MXSEQ3=     150  mem10=         0

          ----------------
          PROPERTIES INPUT
          ----------------

     MOMENTS            FIELD           POTENTIAL          DENSITY
 IEMOM =       1   IEFLD =       0   IEPOT =       0   IEDEN =       0
 WHERE =COMASS     WHERE =NUCLEI     WHERE =NUCLEI     WHERE =NUCLEI  
 OUTPUT=BOTH       OUTPUT=BOTH       OUTPUT=BOTH       OUTPUT=BOTH    
 IEMINT=       0   IEFINT=       0                     IEDINT=       0
                                                       MORB  =       0
          EXTRAPOLATION IN EFFECT
          SOSCF IN EFFECT
 ORBITAL PRINTING OPTION: NPREO=     1    15     2     1

     -------------------------------
     INTEGRAL TRANSFORMATION OPTIONS
     -------------------------------
     NWORD  =            0
     CUTOFF = 1.0E-09     MPTRAN =       0
     DIRTRF =       F     AOINTS =DUP     

          ----------------------
          INTEGRAL INPUT OPTIONS
          ----------------------
 NOPK  =       1 NORDER=       0 SCHWRZ=       F

   --- ENCODED Z MATRIX ---
 COORD  TYPE   I   J   K   L   M   N
    1      1    1   2
    2      1    2   3
    3      2    1   2   3

 THE DETERMINANT OF THE G MATRIX IS 10**(    -3)


                     --------------------
                     INTERNAL COORDINATES
                     --------------------

                 - - ATOMS - -         COORDINATE      COORDINATE
 NO.   TYPE    I  J  K  L  M  N        (BOHR,RAD)       (ANG,DEG)
 ----------------------------------------------------------------
   1 STRETCH   1  2                     2.4566451       1.3000007
   2 STRETCH   2  3                     2.2676708       1.1999998
   3 BEND      1  2  3                  2.9670594     169.9999784

     ------------------------------------------
     THE POINT GROUP IS CS , NAXIS= 0, ORDER= 2
     ------------------------------------------

     DIMENSIONS OF THE SYMMETRY SUBSPACES ARE
 A'  =   12     A'' =    3

 ..... DONE SETTING UP THE RUN .....
 STEP CPU TIME =     0.01 TOTAL CPU TIME =        0.0 (    0.0 MIN)
 TOTAL WALL CLOCK TIME=        0.0 SECONDS, CPU UTILIZATION IS  50.00%


          -----------------------------
          STATIONARY POINT LOCATION RUN
          -----------------------------

 OBTAINING INITIAL HESSIAN, HESS=READ    

 $HESS GROUP READ FROM CARDS
 ...hessian title card goes here...                                              

          PARAMETERS CONTROLLING GEOMETRY SEARCH ARE
          METHOD =QA                  UPHESS =POWELL  
          NNEG   =         1          NFRZ   =         0
          NSTEP  =        20          IFOLOW =         1
          HESS   =READ                RESTAR =         F
          IHREP  =         0          HSSEND =         F
          NPRT   =         0          NPUN   =         0
          OPTTOL = 1.000E-04          RMIN   = 1.500E-03
          RMAX   = 1.000E-01          RLIM   = 7.000E-02
          DXMAX  = 2.000E-01          PURIFY =         F
          MOVIE  =         F          TRUPD  =         T
          TRMAX  = 3.000E-01          TRMIN  = 5.000E-02
          ITBMAT =         5          STPT   =         F
          STSTEP = 1.000E-02          PROJCT=          T

 BEGINNING GEOMETRY SEARCH POINT NSERCH=   0 ...

 COORDINATES OF SYMMETRY UNIQUE ATOMS (ANGS)
   ATOM   CHARGE       X              Y              Z
 ------------------------------------------------------------
 FLUORINE    9.0  -0.5090470000  -1.0268690000   0.0000000000
 CARBON      6.0   0.0000000000   0.1693220000   0.0000000000
 NITROGEN    7.0   0.6544890000   1.1751270000   0.0000000000
 COORDINATES OF ALL ATOMS ARE (ANGS)
   ATOM   CHARGE       X              Y              Z
 ------------------------------------------------------------
 FLUORINE    9.0  -0.5090470000  -1.0268690000   0.0000000000
 CARBON      6.0   0.0000000000   0.1693220000   0.0000000000
 NITROGEN    7.0   0.6544890000   1.1751270000   0.0000000000


                     --------------------
                     INTERNAL COORDINATES
                     --------------------

                 - - ATOMS - -         COORDINATE      COORDINATE
 NO.   TYPE    I  J  K  L  M  N        (BOHR,RAD)       (ANG,DEG)
 ----------------------------------------------------------------
   1 STRETCH   1  2                     2.4566451       1.3000007
   2 STRETCH   2  3                     2.2676708       1.1999998
   3 BEND      1  2  3                  2.9670594     169.9999784

          ********************
          1 ELECTRON INTEGRALS
          ********************
 ...... END OF ONE-ELECTRON INTEGRALS ......
 STEP CPU TIME =     0.00 TOTAL CPU TIME =        0.0 (    0.0 MIN)
 TOTAL WALL CLOCK TIME=        0.0 SECONDS, CPU UTILIZATION IS  50.00%

          -------------
          GUESS OPTIONS
          -------------
          GUESS =HUCKEL            NORB  =       0          NORDER=       0
          MIX   =       F          PRTMO =       F          PUNMO =       F
          TOLZ  = 1.0E-08          TOLE  = 1.0E-05
          SYMDEN=       F          PURIFY=       F

 INITIAL GUESS ORBITALS GENERATED BY HUCKEL   ROUTINE.
 HUCKEL GUESS REQUIRES      4764 WORDS.

 SYMMETRIES FOR INITIAL GUESS ORBITALS FOLLOW.   BOTH SET(S).
    11 ORBITALS ARE OCCUPIED (    3 CORE ORBITALS).
     4=A'       5=A'       6=A'       7=A''      8=A'       9=A'      10=A'' 
    11=A'      12=A'      13=A''     14=A'      15=A'  
 ...... END OF INITIAL ORBITAL SELECTION ......
 STEP CPU TIME =     0.01 TOTAL CPU TIME =        0.0 (    0.0 MIN)
 TOTAL WALL CLOCK TIME=        0.0 SECONDS, CPU UTILIZATION IS 100.00%

                    ----------------------
                    AO INTEGRAL TECHNOLOGY
                    ----------------------
     S,P,L SHELL ROTATED AXIS INTEGRALS, REPROGRAMMED BY
        KAZUYA ISHIMURA (IMS) AND JOSE SIERRA (SYNSTAR).
     S,P,D,L SHELL ROTATED AXIS INTEGRALS PROGRAMMED BY
        KAZUYA ISHIMURA (INSTITUTE FOR MOLECULAR SCIENCE).
     S,P,D,F,G SHELL TO TOTAL QUARTET ANGULAR MOMENTUM SUM 5,
        ERIC PROGRAM BY GRAHAM FLETCHER (ELORET AND NASA ADVANCED
        SUPERCOMPUTING DIVISION, AMES RESEARCH CENTER).
     S,P,D,F,G,L SHELL GENERAL RYS QUADRATURE PROGRAMMED BY
        MICHEL DUPUIS (PACIFIC NORTHWEST NATIONAL LABORATORY).

          --------------------
          2 ELECTRON INTEGRALS
          --------------------

 THE -PK- OPTION IS OFF, THE INTEGRALS ARE NOT IN SUPERMATRIX FORM.
 STORING   15000 INTEGRALS/RECORD ON DISK, USING 12 BYTES/INTEGRAL.
 TWO ELECTRON INTEGRAL EVALUATION REQUIRES   89377 WORDS OF MEMORY.
 II,JST,KST,LST =  1  1  1  1 NREC =         1 INTLOC =    1
 II,JST,KST,LST =  2  1  1  1 NREC =         1 INTLOC =    2
 II,JST,KST,LST =  3  1  1  1 NREC =         1 INTLOC =   34
 II,JST,KST,LST =  4  1  1  1 NREC =         1 INTLOC =  106
 II,JST,KST,LST =  5  1  1  1 NREC =         1 INTLOC =  827
 II,JST,KST,LST =  6  1  1  1 NREC =         1 INTLOC = 1189
 TOTAL NUMBER OF NONZERO TWO-ELECTRON INTEGRALS =                3965
          1 INTEGRAL RECORDS WERE STORED ON DISK FILE  8.
  ...... END OF TWO-ELECTRON INTEGRALS .....
 STEP CPU TIME =     0.01 TOTAL CPU TIME =        0.0 (    0.0 MIN)
 TOTAL WALL CLOCK TIME=        0.0 SECONDS, CPU UTILIZATION IS  75.00%

          --------------------------
                 RHF SCF CALCULATION
          --------------------------

     NUCLEAR ENERGY =        53.8885248845
     MAXIT =   30     NPUNCH=    2
     EXTRAP=T  DAMP=F  SHIFT=F  RSTRCT=F  DIIS=F  DEM=F  SOSCF=T
     DENSITY MATRIX CONV=  1.00E-05
     SOSCF WILL OPTIMIZE      44 ORBITAL ROTATIONS, SOGTOL=   0.250
     MEMORY REQUIRED FOR RHF ITERS=     31961 WORDS.

 ITER EX DEM     TOTAL ENERGY        E CHANGE  DENSITY CHANGE     ORB. GRAD
   1  0  0     -188.7148767483  -188.7148767483   0.600881880   0.000000000
          ---------------START SECOND ORDER SCF---------------
   2  1  0     -188.9611765296    -0.2462997812   0.551075056   0.194606945
   3  2  0     -188.9824047943    -0.0212282647   0.268482075   0.176557728
   4  3  0     -189.1129095899    -0.1305047956   0.072165229   0.022348536
   5  4  0     -189.1155501399    -0.0026405500   0.013369167   0.005895975
   6  5  0     -189.1158778193    -0.0003276794   0.005440490   0.001800597
   7  6  0     -189.1159150650    -0.0000372456   0.000937676   0.000386609
   8  7  0     -189.1159170436    -0.0000019786   0.000399888   0.000130291
   9  8  0     -189.1159171862    -0.0000001426   0.000159637   0.000039559
  10  9  0     -189.1159172065    -0.0000000203   0.000099803   0.000023813
  11 10  0     -189.1159172133    -0.0000000067   0.000066692   0.000013488
  12 11  0     -189.1159172149    -0.0000000016   0.000032001   0.000007077
  13 12  0     -189.1159172152    -0.0000000004   0.000007199   0.000003071
  14 13  0     -189.1159172153    -0.0000000000   0.000000960   0.000000781

          -----------------
          DENSITY CONVERGED
          -----------------
     TIME TO FORM FOCK OPERATORS=       0.0 SECONDS (       0.0 SEC/ITER)
     TIME TO SOLVE SCF EQUATIONS=       0.0 SECONDS (       0.0 SEC/ITER)

 FINAL RHF ENERGY IS     -189.1159172153 AFTER  14 ITERATIONS

          ------------
          EIGENVECTORS
          ------------

                      1          2          3          4          5
                  -26.1152   -15.3802   -11.1623    -1.6270    -1.1686
                     A'         A'         A'         A'         A'  
    1  F  1  S    0.994689   0.000061   0.000263  -0.244775   0.028327
    2  F  1  S    0.022853  -0.000545  -0.003771   0.917278  -0.111648
    3  F  1  X    0.001306  -0.000043  -0.000503   0.040022   0.025902
    4  F  1  Y    0.003132  -0.000404  -0.000899   0.093209   0.044635
    5  F  1  Z    0.000000  -0.000000  -0.000000  -0.000000   0.000000
    6  C  2  S    0.000432   0.000450   0.993178  -0.066519  -0.153713
    7  C  2  S   -0.003209  -0.009450   0.028636   0.146264   0.368219
    8  C  2  X    0.002407  -0.003979   0.001507  -0.046006   0.121552
    9  C  2  Y    0.005327  -0.006187   0.001239  -0.104806   0.189942
   10  C  2  Z    0.000000  -0.000000  -0.000000  -0.000000   0.000000
   11  N  3  S    0.000054   0.994040  -0.000261  -0.006408  -0.199213
   12  N  3  S   -0.001552   0.028685  -0.006200   0.033370   0.627457
   13  N  3  X    0.000715  -0.004404   0.000986  -0.010369  -0.108052
   14  N  3  Y    0.000747  -0.006747   0.001667  -0.016004  -0.175611
   15  N  3  Z    0.000000  -0.000000  -0.000000  -0.000000   0.000000

                      6          7          8          9         10
                   -0.7486    -0.6506    -0.6505    -0.5018    -0.4010
                     A'         A''        A'         A'         A'' 
    1  F  1  S    0.088858  -0.000000  -0.000642   0.006880   0.000000
    2  F  1  S   -0.453185  -0.000000   0.002618  -0.047720   0.000000
    3  F  1  X    0.261930  -0.000000   0.798158   0.079967   0.000000
    4  F  1  Y    0.607908  -0.000000  -0.334460   0.196965   0.000000
    5  F  1  Z   -0.000000   0.865130   0.000000   0.000000  -0.452992
    6  C  2  S   -0.121789  -0.000000   0.007884   0.092007   0.000000
    7  C  2  S    0.426387  -0.000000  -0.027197  -0.307583   0.000000
    8  C  2  X   -0.142202  -0.000000   0.310559  -0.121557   0.000000
    9  C  2  Y   -0.294303  -0.000000  -0.149237  -0.276933   0.000000
   10  C  2  Z   -0.000000   0.345158   0.000000   0.000000   0.511833
   11  N  3  S    0.067327  -0.000000   0.004150  -0.142670   0.000000
   12  N  3  S   -0.241530  -0.000000  -0.025831   0.728988   0.000000
   13  N  3  X   -0.020627  -0.000000   0.117098   0.346425   0.000000
   14  N  3  Y   -0.046875  -0.000000  -0.083962   0.512426   0.000000
   15  N  3  Z   -0.000000   0.145083   0.000000   0.000000   0.651891

                     11         12         13         14         15
                   -0.4006     0.3117     0.3286     0.4558     1.2258
                     A'         A'         A''        A'         A'  
    1  F  1  S    0.000893   0.021641  -0.000000   0.071540  -0.057302
    2  F  1  S   -0.007016  -0.130307  -0.000000  -0.444539   0.404476
    3  F  1  X   -0.421139   0.127284  -0.000000  -0.354648   0.133378
    4  F  1  Y    0.166486  -0.321740  -0.000000  -0.608597   0.401162
    5  F  1  Z    0.000000  -0.000000  -0.260599   0.000000   0.000000
    6  C  2  S    0.010031  -0.068639  -0.000000  -0.179097  -0.066460
    7  C  2  S   -0.051985   0.379386  -0.000000   1.039394   0.732960
    8  C  2  X    0.450930  -0.723373  -0.000000   0.185548   0.730326
    9  C  2  Y   -0.245868   0.269107  -0.000000  -0.430930   1.253397
   10  C  2  Z    0.000000  -0.000000   0.846232   0.000000   0.000000
   11  N  3  S    0.000963   0.017101  -0.000000   0.057506   0.118076
   12  N  3  S   -0.007101  -0.085767  -0.000000  -0.345871  -1.099124
   13  N  3  X    0.514266   0.728784  -0.000000   0.052191   0.584962
   14  N  3  Y   -0.397603  -0.253854  -0.000000   0.574984   0.840880
   15  N  3  Z    0.000000  -0.000000  -0.793343   0.000000   0.000000
 ...... END OF RHF CALCULATION ......
 STEP CPU TIME =     0.00 TOTAL CPU TIME =        0.0 (    0.0 MIN)
 TOTAL WALL CLOCK TIME=        0.0 SECONDS, CPU UTILIZATION IS  60.00%

     ----------------------------------------------------------------
     PROPERTY VALUES FOR THE RHF   SELF-CONSISTENT FIELD WAVEFUNCTION
     ----------------------------------------------------------------

          -----------------
          ENERGY COMPONENTS
          -----------------

         WAVEFUNCTION NORMALIZATION =       1.0000000000

                ONE ELECTRON ENERGY =    -368.3961013566
                TWO ELECTRON ENERGY =     125.3916592568
           NUCLEAR REPULSION ENERGY =      53.8885248845
                                      ------------------
                       TOTAL ENERGY =    -189.1159172153

 ELECTRON-ELECTRON POTENTIAL ENERGY =     125.3916592568
  NUCLEUS-ELECTRON POTENTIAL ENERGY =    -555.1857911662
   NUCLEUS-NUCLEUS POTENTIAL ENERGY =      53.8885248845
                                      ------------------
             TOTAL POTENTIAL ENERGY =    -375.9056070248
               TOTAL KINETIC ENERGY =     186.7896898096
                 VIRIAL RATIO (V/T) =       2.0124537249

  ...... PI ENERGY ANALYSIS ......

 ENERGY ANALYSIS:
            FOCK ENERGY=   -117.6127837427
          BARE H ENERGY=   -368.3961013566
     ELECTRONIC ENERGY =   -243.0044425497
         KINETIC ENERGY=    186.7896898096
          N-N REPULSION=     53.8885248845
           TOTAL ENERGY=   -189.1159176652
        SIGMA PART(1+2)=   -220.4985931636
               (K,V1,2)=    177.5625993122   -503.0501406126    104.9889481368
           PI PART(1+2)=    -22.5058493861
               (K,V1,2)=      9.2270904974    -52.1356505536     20.4027106701
  SIGMA SKELETON, ERROR=   -166.6100682791      0.0000000000
             MIXED PART= 0.00000E+00 0.00000E+00 0.00000E+00 0.00000E+00
 ...... END OF PI ENERGY ANALYSIS ......

          ---------------------------------------
          MULLIKEN AND LOWDIN POPULATION ANALYSES
          ---------------------------------------

     ATOMIC MULLIKEN POPULATION IN EACH MOLECULAR ORBITAL

                      1          2          3          4          5

                  2.000000   2.000000   2.000000   2.000000   2.000000

    1             2.000717  -0.000000  -0.000237   1.768121   0.026990
    2            -0.000715  -0.002266   2.001294   0.226515   0.751055
    3            -0.000002   2.002266  -0.001056   0.005364   1.221955

                      6          7          8          9         10

                  2.000000   2.000000   2.000000   2.000000   2.000000

    1             1.304484   1.581966   1.582689   0.096235   0.343027
    2             0.589239   0.348794   0.348247   0.249517   0.633788
    3             0.106277   0.069240   0.069064   1.654248   1.023185

                     11

                  2.000000

    1             0.342628
    2             0.640843
    3             1.016529

               ----- POPULATIONS IN EACH AO -----
                             MULLIKEN      LOWDIN
              1  F  1  S      1.99886     1.99807
              2  F  1  S      1.93738     1.86025
              3  F  1  X      1.83573     1.83630
              4  F  1  Y      1.34966     1.36701
              5  F  1  Z      1.92499     1.92220
              6  C  2  S      1.99489     1.98726
              7  C  2  S      1.03846     1.03772
              8  C  2  X      0.93515     0.96059
              9  C  2  Y      0.83523     0.90339
             10  C  2  Z      0.98258     0.98413
             11  N  3  S      1.99760     1.99693
             12  N  3  S      1.79071     1.66983
             13  N  3  X      1.06788     1.10127
             14  N  3  Y      1.21844     1.28139
             15  N  3  Z      1.09243     1.09367

          ----- MULLIKEN ATOMIC OVERLAP POPULATIONS -----
          (OFF-DIAGONAL ELEMENTS NEED TO BE MULTIPLIED BY 2)

             1           2           3

    1    8.8145100
    2    0.2374376   4.8851852
    3   -0.0053279   0.6636881   6.5087094

          TOTAL MULLIKEN AND LOWDIN ATOMIC POPULATIONS
       ATOM         MULL.POP.    CHARGE          LOW.POP.     CHARGE
    1 FLUORINE      9.046620   -0.046620         8.983826    0.016174
    2 CARBON        5.786311    0.213689         5.873093    0.126907
    3 NITROGEN      7.167070   -0.167070         7.143081   -0.143081

          -------------------------------
          BOND ORDER AND VALENCE ANALYSIS     BOND ORDER THRESHOLD=0.050
          -------------------------------

                   BOND                       BOND                       BOND
  ATOM PAIR DIST  ORDER      ATOM PAIR DIST  ORDER      ATOM PAIR DIST  ORDER
    1   2  1.300  1.094        1   3  2.491  0.160        2   3  1.200  2.844

                       TOTAL       BONDED        FREE
      ATOM            VALENCE     VALENCE     VALENCE
    1 FLUORINE          1.253       1.253      -0.000
    2 CARBON            3.938       3.938       0.000
    3 NITROGEN          3.003       3.003       0.000

          ---------------------
          ELECTROSTATIC MOMENTS
          ---------------------

 POINT   1           X           Y           Z (BOHR)    CHARGE
                -0.021258   -0.042900    0.000000        0.00 (A.U.)
         DX          DY          DZ         /D/  (DEBYE)
    -0.975188   -1.573196    0.000000    1.850929
 ...... END OF PROPERTY EVALUATION ......
 STEP CPU TIME =     0.00 TOTAL CPU TIME =        0.0 (    0.0 MIN)
 TOTAL WALL CLOCK TIME=        0.0 SECONDS, CPU UTILIZATION IS  60.00%

 BEGINNING ONE ELECTRON GRADIENT...
 ..... END OF 1-ELECTRON GRADIENT ......
 STEP CPU TIME =     0.01 TOTAL CPU TIME =        0.0 (    0.0 MIN)
 TOTAL WALL CLOCK TIME=        0.0 SECONDS, CPU UTILIZATION IS  80.00%

          ----------------------
          GRADIENT OF THE ENERGY
          ----------------------
 THE COARSE/FINE SCHWARZ SCREENINGS SKIPPED            0/           0 BLOCKS.
 THE NUMBER OF GRADIENT INTEGRAL BLOCKS COMPUTED WAS       213
 ...... END OF 2-ELECTRON GRADIENT ......
 STEP CPU TIME =     0.00 TOTAL CPU TIME =        0.0 (    0.0 MIN)
 TOTAL WALL CLOCK TIME=        0.0 SECONDS, CPU UTILIZATION IS  80.00%

          NSERCH=  0     ENERGY=    -189.1159172

                                 -----------------------
                                 GRADIENT (HARTREE/BOHR)
                                 -----------------------
        ATOM     ZNUC       DE/DX         DE/DY         DE/DZ
 --------------------------------------------------------------
    1  FLUORINE     9.0     0.0137440     0.0154843     0.0000000
    2  CARBON       6.0    -0.0786899    -0.1022160     0.0000000
    3  NITROGEN     7.0     0.0649459     0.0867316     0.0000000


                     --------------------
                     INTERNAL COORDINATES
                     --------------------

                 - - ATOMS - -         COORDINATE        GRADIENT
 NO.   TYPE    I  J  K  L  M  N         (ANG,DEG)     (H/B,H/RAD)
 ----------------------------------------------------------------
   1 STRETCH   1  2                     1.3000007      -0.0196297
   2 STRETCH   2  3                     1.1999998       0.1081179
   3 BEND      1  2  3                169.9999784      -0.0161725

 NOTE: CARTESIAN GRADIENTS ARE ALWAYS TAKEN TO TEST CONVERGENCE,
       SO THE FOLLOWING GRADIENTS ARE CARTESIAN.

          MAXIMUM GRADIENT = 0.1022160    RMS GRADIENT = 0.0565776

 NSERCH:   0  E=     -189.1159172153  GRAD. MAX=  0.1022160  R.M.S.=  0.0565776

          FORCE CONSTANT MATRIX NOT UPDATED --- TAKING FIRST STEP
          THE FIRST FEW LOCAL MODES AND EIGENVALUES ARE

  MODE           1           2           3
          0.157119    0.688960    1.276901
  MODE
   1     -0.017967    0.999650   -0.019423
   2     -0.037035   -0.020078   -0.999112
   3      0.999152    0.017232   -0.037383
 LOCAL CURVATURE   1 OF THE APPROXIMATE HESSIAN HAS EIGENVALUE=    0.157119
 *** THIS MODE HAS AN INCORRECT CURVATURE ***
 THE COMPONENTS OF THIS MODE FOLLOWS:
       -0.017967      -0.037035       0.999152
          HESSIAN MODE FOLLOWING SWITCHED ON, FOLLOWING MODE   1
          FOLLOWING MODE  1 WITH EIGENVALUE    0.15712 AND COMPONENTS
             -0.01797 -0.03703  0.99915
          TRIM/QA LAMBDA FOR     TS MODE  =   0.26356507
          TRIM/QA LAMBDA FOR NON-TS MODES =  -0.26356507
          TRIM/QA STEP HAS LENGTH         =   0.200000
          RADIUS OF STEP TAKEN=   0.20000  CURRENT TRUST RADIUS=   0.20000
          TRANSFORMING DISPLACEMENT FROM INTERNALS TO CARTESIANS
          THE ROOT MEAN SQUARE ERROR IN ITERATION   1 IS   0.01256442
          THE ROOT MEAN SQUARE ERROR IN ITERATION   2 IS   0.00000684
          THE ROOT MEAN SQUARE ERROR IN ITERATION   3 IS   0.00000000

 BEGINNING GEOMETRY SEARCH POINT NSERCH=   1 ...

 COORDINATES OF SYMMETRY UNIQUE ATOMS (ANGS)
   ATOM   CHARGE       X              Y              Z
 ------------------------------------------------------------
 FLUORINE    9.0  -0.4789916421  -1.0247156326   0.0000000000
 CARBON      6.0  -0.0658647701   0.2219277964   0.0000000000
 NITROGEN    7.0   0.6701551025   1.1271246625   0.0000000000
 COORDINATES OF ALL ATOMS ARE (ANGS)
   ATOM   CHARGE       X              Y              Z
 ------------------------------------------------------------
 FLUORINE    9.0  -0.4789916421  -1.0247156326   0.0000000000
 CARBON      6.0  -0.0658647701   0.2219277964   0.0000000000
 NITROGEN    7.0   0.6701551025   1.1271246625   0.0000000000


                     --------------------
                     INTERNAL COORDINATES
                     --------------------

                 - - ATOMS - -         COORDINATE      COORDINATE
 NO.   TYPE    I  J  K  L  M  N        (BOHR,RAD)       (ANG,DEG)
 ----------------------------------------------------------------
   1 STRETCH   1  2                     2.4818036       1.3133140
   2 STRETCH   2  3                     2.2046767       1.1666647
   3 BEND      1  2  3                  2.7789137     159.2200267

          INTERNUCLEAR DISTANCES (ANGS.)
          ------------------------------

                1 FLUO       2 CARB       3 NITR  

   1 FLUO    0.0000000    1.3133140 *  2.4394579 *
   2 CARB    1.3133140 *  0.0000000    1.1666647 *
   3 NITR    2.4394579 *  1.1666647 *  0.0000000  

  * ... LESS THAN  3.000

 ...... END OF ONE-ELECTRON INTEGRALS ......
 STEP CPU TIME =     0.00 TOTAL CPU TIME =        0.0 (    0.0 MIN)
 TOTAL WALL CLOCK TIME=        0.0 SECONDS, CPU UTILIZATION IS  80.00%
 TOTAL NUMBER OF NONZERO TWO-ELECTRON INTEGRALS =                3965
          1 INTEGRAL RECORDS WERE STORED ON DISK FILE  8.
  ...... END OF TWO-ELECTRON INTEGRALS .....
 STEP CPU TIME =     0.00 TOTAL CPU TIME =        0.0 (    0.0 MIN)
 TOTAL WALL CLOCK TIME=        0.0 SECONDS, CPU UTILIZATION IS  80.00%

          --------------------------
                 RHF SCF CALCULATION
          --------------------------
     DENSITY MATRIX CONV=  1.00E-05

 ITER EX DEM     TOTAL ENERGY        E CHANGE  DENSITY CHANGE     ORB. GRAD
          ---------------START SECOND ORDER SCF---------------
   1  0  0     -189.1030818934  -189.1030818934   0.072904813   0.054182978
   2  1  0     -189.1134227023    -0.0103408089   0.036784360   0.013250249
   3  2  0     -189.1148364629    -0.0014137606   0.007756131   0.002380928
   4  3  0     -189.1149009414    -0.0000644785   0.007800286   0.001899769
   5  4  0     -189.1149307017    -0.0000297603   0.001582977   0.000395181
   6  5  0     -189.1149326410    -0.0000019393   0.001048853   0.000221636
   7  6  0     -189.1149331212    -0.0000004802   0.000426139   0.000073248
   8  7  0     -189.1149332042    -0.0000000830   0.000222008   0.000042609
   9  8  0     -189.1149332294    -0.0000000252   0.000059028   0.000013098
  10  9  0     -189.1149332325    -0.0000000031   0.000015593   0.000004132
  11 10  0     -189.1149332327    -0.0000000002   0.000002765   0.000000803
  12 11  0     -189.1149332327    -0.0000000000   0.000000560   0.000000198

          -----------------
          DENSITY CONVERGED
          -----------------
     TIME TO FORM FOCK OPERATORS=       0.0 SECONDS (       0.0 SEC/ITER)
     TIME TO SOLVE SCF EQUATIONS=       0.0 SECONDS (       0.0 SEC/ITER)

 FINAL RHF ENERGY IS     -189.1149332327 AFTER  12 ITERATIONS
 ...... END OF RHF CALCULATION ......
 STEP CPU TIME =     0.00 TOTAL CPU TIME =        0.0 (    0.0 MIN)
 TOTAL WALL CLOCK TIME=        0.0 SECONDS, CPU UTILIZATION IS  80.00%
 ..... END OF 1-ELECTRON GRADIENT ......
 STEP CPU TIME =     0.00 TOTAL CPU TIME =        0.0 (    0.0 MIN)
 TOTAL WALL CLOCK TIME=        0.1 SECONDS, CPU UTILIZATION IS  66.67%
 ...... END OF 2-ELECTRON GRADIENT ......
 STEP CPU TIME =     0.01 TOTAL CPU TIME =        0.0 (    0.0 MIN)
 TOTAL WALL CLOCK TIME=        0.1 SECONDS, CPU UTILIZATION IS  83.33%

          NSERCH=  1     ENERGY=    -189.1149332

                                 -----------------------
                                 GRADIENT (HARTREE/BOHR)
                                 -----------------------
        ATOM     ZNUC       DE/DX         DE/DY         DE/DZ
 --------------------------------------------------------------
    1  FLUORINE     9.0     0.0172327     0.0014215     0.0000000
    2  CARBON       6.0    -0.0368174     0.0028826     0.0000000
    3  NITROGEN     7.0     0.0195847    -0.0043041     0.0000000


                     --------------------
                     INTERNAL COORDINATES
                     --------------------

                 - - ATOMS - -         COORDINATE        GRADIENT
 NO.   TYPE    I  J  K  L  M  N         (ANG,DEG)     (H/B,H/RAD)
 ----------------------------------------------------------------
   1 STRETCH   1  2                     1.3133140      -0.0067702
   2 STRETCH   2  3                     1.1666647       0.0090160
   3 BEND      1  2  3                159.2200267      -0.0394874

 NOTE: CARTESIAN GRADIENTS ARE ALWAYS TAKEN TO TEST CONVERGENCE,
       SO THE FOLLOWING GRADIENTS ARE CARTESIAN.

          MAXIMUM GRADIENT = 0.0368174    RMS GRADIENT = 0.0151471

 NSERCH:   1  E=     -189.1149332327  GRAD. MAX=  0.0368174  R.M.S.=  0.0151471

          HESSIAN UPDATED USING THE POWELL FORMULA
 LOCAL CURVATURE   1 OF THE APPROXIMATE HESSIAN HAS EIGENVALUE=    0.090296
 *** THIS MODE HAS AN INCORRECT CURVATURE ***
 THE COMPONENTS OF THIS MODE FOLLOWS:
       -0.035227      -0.071500       0.996818
             ACTUAL ENERGY CHANGE WAS   0.0009839826
          PREDICTED ENERGY CHANGE WAS   0.0017263836 RATIO=  0.570
          OVERLAP OF CURRENT MODE   1 WITH PREVIOUS MODE IS     0.999254
          FOLLOWING MODE  1 WITH EIGENVALUE    0.09030 AND COMPONENTS
             -0.03523 -0.07150  0.99682
          TRIM/QA LAMBDA FOR     TS MODE  =   0.28934797
          TRIM/QA LAMBDA FOR NON-TS MODES =  -0.28934797
          TRIM/QA STEP HAS LENGTH         =   0.200000
          RADIUS OF STEP TAKEN=   0.20000  CURRENT TRUST RADIUS=   0.20000
          TRANSFORMING DISPLACEMENT FROM INTERNALS TO CARTESIANS
          THE ROOT MEAN SQUARE ERROR IN ITERATION   1 IS   0.01358900
          THE ROOT MEAN SQUARE ERROR IN ITERATION   2 IS   0.00000942
          THE ROOT MEAN SQUARE ERROR IN ITERATION   3 IS   0.00000000

 BEGINNING GEOMETRY SEARCH POINT NSERCH=   2 ...

 COORDINATES OF SYMMETRY UNIQUE ATOMS (ANGS)
   ATOM   CHARGE       X              Y              Z
 ------------------------------------------------------------
 FLUORINE    9.0  -0.4474554445  -1.0213165407   0.0000000000
 CARBON      6.0  -0.1428856661   0.2645857525   0.0000000000
 NITROGEN    7.0   0.6933724010   1.0859570628   0.0000000000
 COORDINATES OF ALL ATOMS ARE (ANGS)
   ATOM   CHARGE       X              Y              Z
 ------------------------------------------------------------
 FLUORINE    9.0  -0.4474554445  -1.0213165407   0.0000000000
 CARBON      6.0  -0.1428856661   0.2645857525   0.0000000000
 NITROGEN    7.0   0.6933724010   1.0859570628   0.0000000000


                     --------------------
                     INTERNAL COORDINATES
                     --------------------

                 - - ATOMS - -         COORDINATE      COORDINATE
 NO.   TYPE    I  J  K  L  M  N        (BOHR,RAD)       (ANG,DEG)
 ----------------------------------------------------------------
   1 STRETCH   1  2                     2.4972337       1.3214793
   2 STRETCH   2  3                     2.2150768       1.1721682
   3 BEND      1  2  3                  2.5797812     147.8105754

          INTERNUCLEAR DISTANCES (ANGS.)
          ------------------------------

                1 FLUO       2 CARB       3 NITR  

   1 FLUO    0.0000000    1.3214793 *  2.3962659 *
   2 CARB    1.3214793 *  0.0000000    1.1721682 *
   3 NITR    2.3962659 *  1.1721682 *  0.0000000  

  * ... LESS THAN  3.000

 ...... END OF ONE-ELECTRON INTEGRALS ......
 STEP CPU TIME =     0.00 TOTAL CPU TIME =        0.0 (    0.0 MIN)
 TOTAL WALL CLOCK TIME=        0.1 SECONDS, CPU UTILIZATION IS  83.33%
 TOTAL NUMBER OF NONZERO TWO-ELECTRON INTEGRALS =                3970
          1 INTEGRAL RECORDS WERE STORED ON DISK FILE  8.
  ...... END OF TWO-ELECTRON INTEGRALS .....
 STEP CPU TIME =     0.00 TOTAL CPU TIME =        0.0 (    0.0 MIN)
 TOTAL WALL CLOCK TIME=        0.1 SECONDS, CPU UTILIZATION IS  83.33%

          --------------------------
                 RHF SCF CALCULATION
          --------------------------
     DENSITY MATRIX CONV=  1.00E-05

 ITER EX DEM     TOTAL ENERGY        E CHANGE  DENSITY CHANGE     ORB. GRAD
          ---------------START SECOND ORDER SCF---------------
   1  0  0     -189.0919041543  -189.0919041543   0.080030411   0.054816862
   2  1  0     -189.1027953769    -0.0108912227   0.045229341   0.016339247
   3  2  0     -189.1044905140    -0.0016951371   0.010191894   0.003075521
   4  3  0     -189.1045761478    -0.0000856338   0.008374359   0.002252758
   5  4  0     -189.1046157641    -0.0000396163   0.002018779   0.000759707
   6  5  0     -189.1046204121    -0.0000046480   0.001768877   0.000315340
   7  6  0     -189.1046222087    -0.0000017966   0.000948382   0.000158724
   8  7  0     -189.1046225743    -0.0000003655   0.000259731   0.000067037
   9  8  0     -189.1046226352    -0.0000000609   0.000098233   0.000021557
  10  9  0     -189.1046226413    -0.0000000062   0.000025930   0.000005694
  11 10  0     -189.1046226418    -0.0000000005   0.000003928   0.000001614
  12 11  0     -189.1046226418    -0.0000000000   0.000001473   0.000000466

          -----------------
          DENSITY CONVERGED
          -----------------
     TIME TO FORM FOCK OPERATORS=       0.0 SECONDS (       0.0 SEC/ITER)
     TIME TO SOLVE SCF EQUATIONS=       0.0 SECONDS (       0.0 SEC/ITER)

 FINAL RHF ENERGY IS     -189.1046226418 AFTER  12 ITERATIONS
 ...... END OF RHF CALCULATION ......
 STEP CPU TIME =     0.00 TOTAL CPU TIME =        0.0 (    0.0 MIN)
 TOTAL WALL CLOCK TIME=        0.1 SECONDS, CPU UTILIZATION IS  83.33%
 ..... END OF 1-ELECTRON GRADIENT ......
 STEP CPU TIME =     0.00 TOTAL CPU TIME =        0.0 (    0.0 MIN)
 TOTAL WALL CLOCK TIME=        0.1 SECONDS, CPU UTILIZATION IS  83.33%
 ...... END OF 2-ELECTRON GRADIENT ......
 STEP CPU TIME =     0.00 TOTAL CPU TIME =        0.0 (    0.0 MIN)
 TOTAL WALL CLOCK TIME=        0.1 SECONDS, CPU UTILIZATION IS  71.43%

          NSERCH=  2     ENERGY=    -189.1046226

                                 -----------------------
                                 GRADIENT (HARTREE/BOHR)
                                 -----------------------
        ATOM     ZNUC       DE/DX         DE/DY         DE/DZ
 --------------------------------------------------------------
    1  FLUORINE     9.0     0.0260629    -0.0022350     0.0000000
    2  CARBON       6.0    -0.0514093     0.0182299     0.0000000
    3  NITROGEN     7.0     0.0253464    -0.0159949     0.0000000


                     --------------------
                     INTERNAL COORDINATES
                     --------------------

                 - - ATOMS - -         COORDINATE        GRADIENT
 NO.   TYPE    I  J  K  L  M  N         (ANG,DEG)     (H/B,H/RAD)
 ----------------------------------------------------------------
   1 STRETCH   1  2                     1.3214793      -0.0038321
   2 STRETCH   2  3                     1.1721682       0.0068748
   3 BEND      1  2  3                147.8105754      -0.0646189

 NOTE: CARTESIAN GRADIENTS ARE ALWAYS TAKEN TO TEST CONVERGENCE,
       SO THE FOLLOWING GRADIENTS ARE CARTESIAN.

          MAXIMUM GRADIENT = 0.0514093    RMS GRADIENT = 0.0225038

 NSERCH:   2  E=     -189.1046226418  GRAD. MAX=  0.0514093  R.M.S.=  0.0225038

          HESSIAN UPDATED USING THE POWELL FORMULA
 LOCAL CURVATURE   1 OF THE APPROXIMATE HESSIAN HAS EIGENVALUE=    0.125393
 *** THIS MODE HAS AN INCORRECT CURVATURE ***
 THE COMPONENTS OF THIS MODE FOLLOWS:
       -0.068015      -0.066526       0.995464
             ACTUAL ENERGY CHANGE WAS   0.0103105909
          PREDICTED ENERGY CHANGE WAS   0.0096884780 RATIO=  1.064
          OVERLAP OF CURRENT MODE   1 WITH PREVIOUS MODE IS     0.999449
          FOLLOWING MODE  1 WITH EIGENVALUE    0.12539 AND COMPONENTS
             -0.06801 -0.06653  0.99546
          TRIM/QA LAMBDA FOR     TS MODE  =   0.34054817
          TRIM/QA LAMBDA FOR NON-TS MODES =  -0.34054817
          TRIM/QA STEP HAS LENGTH         =   0.300000
          RADIUS OF STEP TAKEN=   0.30000  CURRENT TRUST RADIUS=   0.30000
          TRANSFORMING DISPLACEMENT FROM INTERNALS TO CARTESIANS

 THE DETERMINANT OF THE G MATRIX IS 10**(    -4)
 * * * WARNING * * *
 YOUR B MATRIX HAS A SMALL DETERMINANT.
 THIS SUGGESTS YOU MAY HAVE BADLY CHOSEN COORDINATES.
          THE ROOT MEAN SQUARE ERROR IN ITERATION   1 IS   0.03070407
          THE ROOT MEAN SQUARE ERROR IN ITERATION   2 IS   0.00006208
          THE ROOT MEAN SQUARE ERROR IN ITERATION   3 IS   0.00000000

 BEGINNING GEOMETRY SEARCH POINT NSERCH=   3 ...

 COORDINATES OF SYMMETRY UNIQUE ATOMS (ANGS)
   ATOM   CHARGE       X              Y              Z
 ------------------------------------------------------------
 FLUORINE    9.0  -0.3925969710  -1.0009022309   0.0000000000
 CARBON      6.0  -0.2550897808   0.3285191744   0.0000000000
 NITROGEN    7.0   0.7150980764   1.0034722728   0.0000000000
 COORDINATES OF ALL ATOMS ARE (ANGS)
   ATOM   CHARGE       X              Y              Z
 ------------------------------------------------------------
 FLUORINE    9.0  -0.3925969710  -1.0009022309   0.0000000000
 CARBON      6.0  -0.2550897808   0.3285191744   0.0000000000
 NITROGEN    7.0   0.7150980764   1.0034722728   0.0000000000


                     --------------------
                     INTERNAL COORDINATES
                     --------------------

                 - - ATOMS - -         COORDINATE      COORDINATE
 NO.   TYPE    I  J  K  L  M  N        (BOHR,RAD)       (ANG,DEG)
 ----------------------------------------------------------------
   1 STRETCH   1  2                     2.5256451       1.3365139
   2 STRETCH   2  3                     2.2334180       1.1818740
   3 BEND      1  2  3                  2.2816933     130.7313973

          INTERNUCLEAR DISTANCES (ANGS.)
          ------------------------------

                1 FLUO       2 CARB       3 NITR  

   1 FLUO    0.0000000    1.3365139 *  2.2900885 *
   2 CARB    1.3365139 *  0.0000000    1.1818740 *
   3 NITR    2.2900885 *  1.1818740 *  0.0000000  

  * ... LESS THAN  3.000

 ...... END OF ONE-ELECTRON INTEGRALS ......
 STEP CPU TIME =     0.00 TOTAL CPU TIME =        0.0 (    0.0 MIN)
 TOTAL WALL CLOCK TIME=        0.1 SECONDS, CPU UTILIZATION IS  71.43%
 TOTAL NUMBER OF NONZERO TWO-ELECTRON INTEGRALS =                3973
          1 INTEGRAL RECORDS WERE STORED ON DISK FILE  8.
  ...... END OF TWO-ELECTRON INTEGRALS .....
 STEP CPU TIME =     0.00 TOTAL CPU TIME =        0.0 (    0.0 MIN)
 TOTAL WALL CLOCK TIME=        0.1 SECONDS, CPU UTILIZATION IS  71.43%

          --------------------------
                 RHF SCF CALCULATION
          --------------------------
     DENSITY MATRIX CONV=  1.00E-05

 ITER EX DEM     TOTAL ENERGY        E CHANGE  DENSITY CHANGE     ORB. GRAD
          ---------------START SECOND ORDER SCF---------------
   1  0  0     -189.0498443172  -189.0498443172   0.133438091   0.075718328
   2  1  0     -189.0737586269    -0.0239143098   0.079650426   0.024497754
   3  2  0     -189.0781463270    -0.0043877000   0.025358110   0.006249517
   4  3  0     -189.0785383774    -0.0003920504   0.019887182   0.005304195
   5  4  0     -189.0787652352    -0.0002268578   0.006576349   0.001845840
   6  5  0     -189.0788002955    -0.0000350603   0.005668000   0.000767629
   7  6  0     -189.0788160000    -0.0000157045   0.001950748   0.000547669
   8  7  0     -189.0788188823    -0.0000028823   0.000718815   0.000283593
   9  8  0     -189.0788193224    -0.0000004402   0.000208666   0.000063817
  10  9  0     -189.0788193581    -0.0000000357   0.000053627   0.000017265
  11 10  0     -189.0788193617    -0.0000000036   0.000016549   0.000005554
  12 11  0     -189.0788193621    -0.0000000004   0.000010709   0.000002590
  13 12  0     -189.0788193622    -0.0000000001   0.000004213   0.000001356

          -----------------
          DENSITY CONVERGED
          -----------------
     TIME TO FORM FOCK OPERATORS=       0.0 SECONDS (       0.0 SEC/ITER)
     TIME TO SOLVE SCF EQUATIONS=       0.0 SECONDS (       0.0 SEC/ITER)

 FINAL RHF ENERGY IS     -189.0788193622 AFTER  13 ITERATIONS
 ...... END OF RHF CALCULATION ......
 STEP CPU TIME =     0.00 TOTAL CPU TIME =        0.0 (    0.0 MIN)
 TOTAL WALL CLOCK TIME=        0.1 SECONDS, CPU UTILIZATION IS  71.43%
 ..... END OF 1-ELECTRON GRADIENT ......
 STEP CPU TIME =     0.00 TOTAL CPU TIME =        0.0 (    0.0 MIN)
 TOTAL WALL CLOCK TIME=        0.1 SECONDS, CPU UTILIZATION IS  71.43%
 ...... END OF 2-ELECTRON GRADIENT ......
 STEP CPU TIME =     0.01 TOTAL CPU TIME =        0.1 (    0.0 MIN)
 TOTAL WALL CLOCK TIME=        0.1 SECONDS, CPU UTILIZATION IS  85.71%

          NSERCH=  3     ENERGY=    -189.0788194

                                 -----------------------
                                 GRADIENT (HARTREE/BOHR)
                                 -----------------------
        ATOM     ZNUC       DE/DX         DE/DY         DE/DZ
 --------------------------------------------------------------
    1  FLUORINE     9.0     0.0446996     0.0028166     0.0000000
    2  CARBON       6.0    -0.0651071     0.0438371     0.0000000
    3  NITROGEN     7.0     0.0204075    -0.0466537     0.0000000


                     --------------------
                     INTERNAL COORDINATES
                     --------------------

                 - - ATOMS - -         COORDINATE        GRADIENT
 NO.   TYPE    I  J  K  L  M  N         (ANG,DEG)     (H/B,H/RAD)
 ----------------------------------------------------------------
   1 STRETCH   1  2                     1.3365139      -0.0074006
   2 STRETCH   2  3                     1.1818740      -0.0098910
   3 BEND      1  2  3                130.7313973      -0.1115640

 NOTE: CARTESIAN GRADIENTS ARE ALWAYS TAKEN TO TEST CONVERGENCE,
       SO THE FOLLOWING GRADIENTS ARE CARTESIAN.

          MAXIMUM GRADIENT = 0.0651071    RMS GRADIENT = 0.0345762

 NSERCH:   3  E=     -189.0788193622  GRAD. MAX=  0.0651071  R.M.S.=  0.0345762

          HESSIAN UPDATED USING THE POWELL FORMULA
 LOCAL CURVATURE   1 OF THE APPROXIMATE HESSIAN HAS EIGENVALUE=    0.146063
 *** THIS MODE HAS AN INCORRECT CURVATURE ***
 THE COMPONENTS OF THIS MODE FOLLOWS:
       -0.141926      -0.115842       0.983076
             ACTUAL ENERGY CHANGE WAS   0.0258032796
          PREDICTED ENERGY CHANGE WAS   0.0249415129 RATIO=  1.035
          OVERLAP OF CURRENT MODE   1 WITH PREVIOUS MODE IS     0.995976
          FOLLOWING MODE  1 WITH EIGENVALUE    0.14606 AND COMPONENTS
             -0.14193 -0.11584  0.98308
          TRIM/QA LAMBDA FOR     TS MODE  =   0.50536837
          TRIM/QA LAMBDA FOR NON-TS MODES =  -0.50536837
          TRIM/QA STEP HAS LENGTH         =   0.300000
          RADIUS OF STEP TAKEN=   0.30000  CURRENT TRUST RADIUS=   0.30000
          TRANSFORMING DISPLACEMENT FROM INTERNALS TO CARTESIANS

 THE DETERMINANT OF THE G MATRIX IS 10**(    -4)
 * * * WARNING * * *
 YOUR B MATRIX HAS A SMALL DETERMINANT.
 THIS SUGGESTS YOU MAY HAVE BADLY CHOSEN COORDINATES.
          THE ROOT MEAN SQUARE ERROR IN ITERATION   1 IS   0.02963688

 THE DETERMINANT OF THE G MATRIX IS 10**(    -4)
 * * * WARNING * * *
 YOUR B MATRIX HAS A SMALL DETERMINANT.
 THIS SUGGESTS YOU MAY HAVE BADLY CHOSEN COORDINATES.
          THE ROOT MEAN SQUARE ERROR IN ITERATION   2 IS   0.00009470

 THE DETERMINANT OF THE G MATRIX IS 10**(    -4)
 * * * WARNING * * *
 YOUR B MATRIX HAS A SMALL DETERMINANT.
 THIS SUGGESTS YOU MAY HAVE BADLY CHOSEN COORDINATES.
          THE ROOT MEAN SQUARE ERROR IN ITERATION   3 IS   0.00000000

 THE DETERMINANT OF THE G MATRIX IS 10**(    -4)
 * * * WARNING * * *
 YOUR B MATRIX HAS A SMALL DETERMINANT.
 THIS SUGGESTS YOU MAY HAVE BADLY CHOSEN COORDINATES.
          THE ROOT MEAN SQUARE ERROR IN ITERATION   4 IS   0.00000000

 THE DETERMINANT OF THE G MATRIX IS 10**(    -4)
 * * * WARNING * * *
 YOUR B MATRIX HAS A SMALL DETERMINANT.
 THIS SUGGESTS YOU MAY HAVE BADLY CHOSEN COORDINATES.

 BEGINNING GEOMETRY SEARCH POINT NSERCH=   4 ...

 COORDINATES OF SYMMETRY UNIQUE ATOMS (ANGS)
   ATOM   CHARGE       X              Y              Z
 ------------------------------------------------------------
 FLUORINE    9.0  -0.3344548708  -0.9740101978   0.0000000000
 CARBON      6.0  -0.3625640422   0.3946947389   0.0000000000
 NITROGEN    7.0   0.7283154822   0.9102775394   0.0000000000
 COORDINATES OF ALL ATOMS ARE (ANGS)
   ATOM   CHARGE       X              Y              Z
 ------------------------------------------------------------
 FLUORINE    9.0  -0.3344548708  -0.9740101978   0.0000000000
 CARBON      6.0  -0.3625640422   0.3946947389   0.0000000000
 NITROGEN    7.0   0.7283154822   0.9102775394   0.0000000000


                     --------------------
                     INTERNAL COORDINATES
                     --------------------

                 - - ATOMS - -         COORDINATE      COORDINATE
 NO.   TYPE    I  J  K  L  M  N        (BOHR,RAD)       (ANG,DEG)
 ----------------------------------------------------------------
   1 STRETCH   1  2                     2.5870227       1.3689935
   2 STRETCH   2  3                     2.2801122       1.2065835
   3 BEND      1  2  3                  1.9917753     114.1203195

          INTERNUCLEAR DISTANCES (ANGS.)
          ------------------------------

                1 FLUO       2 CARB       3 NITR  

   1 FLUO    0.0000000    1.3689935 *  2.1633356 *
   2 CARB    1.3689935 *  0.0000000    1.2065835 *
   3 NITR    2.1633356 *  1.2065835 *  0.0000000  

  * ... LESS THAN  3.000

 ...... END OF ONE-ELECTRON INTEGRALS ......
 STEP CPU TIME =     0.01 TOTAL CPU TIME =        0.1 (    0.0 MIN)
 TOTAL WALL CLOCK TIME=        0.1 SECONDS, CPU UTILIZATION IS 100.00%
 TOTAL NUMBER OF NONZERO TWO-ELECTRON INTEGRALS =                3964
          1 INTEGRAL RECORDS WERE STORED ON DISK FILE  8.
  ...... END OF TWO-ELECTRON INTEGRALS .....
 STEP CPU TIME =     0.00 TOTAL CPU TIME =        0.1 (    0.0 MIN)
 TOTAL WALL CLOCK TIME=        0.1 SECONDS, CPU UTILIZATION IS 100.00%

          --------------------------
                 RHF SCF CALCULATION
          --------------------------
     DENSITY MATRIX CONV=  1.00E-05

 ITER EX DEM     TOTAL ENERGY        E CHANGE  DENSITY CHANGE     ORB. GRAD
          ---------------START SECOND ORDER SCF---------------
   1  0  0     -189.0101003570  -189.0101003570   0.135733874   0.064032675
   2  1  0     -189.0333823314    -0.0232819744   0.086923716   0.022453783
   3  2  0     -189.0389233842    -0.0055410528   0.056242092   0.010529735
   4  3  0     -189.0398532394    -0.0009298552   0.035172711   0.009131812
   5  4  0     -189.0405326690    -0.0006794295   0.026792905   0.004589413
   6  5  0     -189.0407614082    -0.0002287392   0.007427548   0.001271348
   7  6  0     -189.0407992805    -0.0000378723   0.005945240   0.000780762
   8  7  0     -189.0408152386    -0.0000159581   0.001146296   0.000329064
   9  8  0     -189.0408162072    -0.0000009686   0.000464671   0.000114983
  10  9  0     -189.0408163550    -0.0000001477   0.000094698   0.000043348
  11 10  0     -189.0408163664    -0.0000000115   0.000040099   0.000010033
  12 11  0     -189.0408163683    -0.0000000018   0.000021234   0.000005025
  13 12  0     -189.0408163686    -0.0000000004   0.000013657   0.000003848
  14 13  0     -189.0408163687    -0.0000000001   0.000002833   0.000000944

          -----------------
          DENSITY CONVERGED
          -----------------
     TIME TO FORM FOCK OPERATORS=       0.0 SECONDS (       0.0 SEC/ITER)
     TIME TO SOLVE SCF EQUATIONS=       0.0 SECONDS (       0.0 SEC/ITER)

 FINAL RHF ENERGY IS     -189.0408163687 AFTER  14 ITERATIONS
 ...... END OF RHF CALCULATION ......
 STEP CPU TIME =     0.00 TOTAL CPU TIME =        0.1 (    0.0 MIN)
 TOTAL WALL CLOCK TIME=        0.1 SECONDS, CPU UTILIZATION IS  87.50%
 ..... END OF 1-ELECTRON GRADIENT ......
 STEP CPU TIME =     0.00 TOTAL CPU TIME =        0.1 (    0.0 MIN)
 TOTAL WALL CLOCK TIME=        0.1 SECONDS, CPU UTILIZATION IS  87.50%
 ...... END OF 2-ELECTRON GRADIENT ......
 STEP CPU TIME =     0.00 TOTAL CPU TIME =        0.1 (    0.0 MIN)
 TOTAL WALL CLOCK TIME=        0.1 SECONDS, CPU UTILIZATION IS  87.50%

          NSERCH=  4     ENERGY=    -189.0408164

                                 -----------------------
                                 GRADIENT (HARTREE/BOHR)
                                 -----------------------
        ATOM     ZNUC       DE/DX         DE/DY         DE/DZ
 --------------------------------------------------------------
    1  FLUORINE     9.0     0.0596408     0.0090544     0.0000000
    2  CARBON       6.0    -0.0780202     0.0573222     0.0000000
    3  NITROGEN     7.0     0.0183795    -0.0663765     0.0000000


                     --------------------
                     INTERNAL COORDINATES
                     --------------------

                 - - ATOMS - -         COORDINATE        GRADIENT
 NO.   TYPE    I  J  K  L  M  N         (ANG,DEG)     (H/B,H/RAD)
 ----------------------------------------------------------------
   1 STRETCH   1  2                     1.3689935      -0.0078279
   2 STRETCH   2  3                     1.2065835      -0.0117462
   3 BEND      1  2  3                114.1203195      -0.1547402

 NOTE: CARTESIAN GRADIENTS ARE ALWAYS TAKEN TO TEST CONVERGENCE,
       SO THE FOLLOWING GRADIENTS ARE CARTESIAN.

          MAXIMUM GRADIENT = 0.0780202    RMS GRADIENT = 0.0444168

 NSERCH:   4  E=     -189.0408163687  GRAD. MAX=  0.0780202  R.M.S.=  0.0444168

          HESSIAN UPDATED USING THE POWELL FORMULA
 LOCAL CURVATURE   1 OF THE APPROXIMATE HESSIAN HAS EIGENVALUE=    0.135455
 *** THIS MODE HAS AN INCORRECT CURVATURE ***
 THE COMPONENTS OF THIS MODE FOLLOWS:
       -0.258017      -0.177695       0.949659
             ACTUAL ENERGY CHANGE WAS   0.0380029935
          PREDICTED ENERGY CHANGE WAS   0.0381927814 RATIO=  0.995
          OVERLAP OF CURRENT MODE   1 WITH PREVIOUS MODE IS     0.990790
          FOLLOWING MODE  1 WITH EIGENVALUE    0.13545 AND COMPONENTS
             -0.25802 -0.17769  0.94966
          TRIM/QA LAMBDA FOR     TS MODE  =   0.61613781
          TRIM/QA LAMBDA FOR NON-TS MODES =  -0.61613781
          TRIM/QA STEP HAS LENGTH         =   0.300000
          RADIUS OF STEP TAKEN=   0.30000  CURRENT TRUST RADIUS=   0.30000
          TRANSFORMING DISPLACEMENT FROM INTERNALS TO CARTESIANS

 THE DETERMINANT OF THE G MATRIX IS 10**(    -4)
 * * * WARNING * * *
 YOUR B MATRIX HAS A SMALL DETERMINANT.
 THIS SUGGESTS YOU MAY HAVE BADLY CHOSEN COORDINATES.
          THE ROOT MEAN SQUARE ERROR IN ITERATION   1 IS   0.02735459

 THE DETERMINANT OF THE G MATRIX IS 10**(    -4)
 * * * WARNING * * *
 YOUR B MATRIX HAS A SMALL DETERMINANT.
 THIS SUGGESTS YOU MAY HAVE BADLY CHOSEN COORDINATES.
          THE ROOT MEAN SQUARE ERROR IN ITERATION   2 IS   0.00010949

 THE DETERMINANT OF THE G MATRIX IS 10**(    -4)
 * * * WARNING * * *
 YOUR B MATRIX HAS A SMALL DETERMINANT.
 THIS SUGGESTS YOU MAY HAVE BADLY CHOSEN COORDINATES.
          THE ROOT MEAN SQUARE ERROR IN ITERATION   3 IS   0.00000000

 THE DETERMINANT OF THE G MATRIX IS 10**(    -4)
 * * * WARNING * * *
 YOUR B MATRIX HAS A SMALL DETERMINANT.
 THIS SUGGESTS YOU MAY HAVE BADLY CHOSEN COORDINATES.
          THE ROOT MEAN SQUARE ERROR IN ITERATION   4 IS   0.00000000

 THE DETERMINANT OF THE G MATRIX IS 10**(    -4)
 * * * WARNING * * *
 YOUR B MATRIX HAS A SMALL DETERMINANT.
 THIS SUGGESTS YOU MAY HAVE BADLY CHOSEN COORDINATES.

 BEGINNING GEOMETRY SEARCH POINT NSERCH=   5 ...

 COORDINATES OF SYMMETRY UNIQUE ATOMS (ANGS)
   ATOM   CHARGE       X              Y              Z
 ------------------------------------------------------------
 FLUORINE    9.0  -0.2761315971  -0.9483680652   0.0000000000
 CARBON      6.0  -0.4614286077   0.4672937037   0.0000000000
 NITROGEN    7.0   0.7339089630   0.8132740202   0.0000000000
 COORDINATES OF ALL ATOMS ARE (ANGS)
   ATOM   CHARGE       X              Y              Z
 ------------------------------------------------------------
 FLUORINE    9.0  -0.2761315971  -0.9483680652   0.0000000000
 CARBON      6.0  -0.4614286077   0.4672937037   0.0000000000
 NITROGEN    7.0   0.7339089630   0.8132740202   0.0000000000


                     --------------------
                     INTERNAL COORDINATES
                     --------------------

                 - - ATOMS - -         COORDINATE      COORDINATE
 NO.   TYPE    I  J  K  L  M  N        (BOHR,RAD)       (ANG,DEG)
 ----------------------------------------------------------------
   1 STRETCH   1  2                     2.6980319       1.4277371
   2 STRETCH   2  3                     2.3515772       1.2444012
   3 BEND      1  2  3                  1.7223877      98.6855444

          INTERNUCLEAR DISTANCES (ANGS.)
          ------------------------------

                1 FLUO       2 CARB       3 NITR  

   1 FLUO    0.0000000    1.4277371 *  2.0306562 *
   2 CARB    1.4277371 *  0.0000000    1.2444012 *
   3 NITR    2.0306562 *  1.2444012 *  0.0000000  

  * ... LESS THAN  3.000

 ...... END OF ONE-ELECTRON INTEGRALS ......
 STEP CPU TIME =     0.00 TOTAL CPU TIME =        0.1 (    0.0 MIN)
 TOTAL WALL CLOCK TIME=        0.1 SECONDS, CPU UTILIZATION IS  87.50%
 TOTAL NUMBER OF NONZERO TWO-ELECTRON INTEGRALS =                3945
          1 INTEGRAL RECORDS WERE STORED ON DISK FILE  8.
  ...... END OF TWO-ELECTRON INTEGRALS .....
 STEP CPU TIME =     0.00 TOTAL CPU TIME =        0.1 (    0.0 MIN)
 TOTAL WALL CLOCK TIME=        0.1 SECONDS, CPU UTILIZATION IS  87.50%

          --------------------------
                 RHF SCF CALCULATION
          --------------------------
     DENSITY MATRIX CONV=  1.00E-05

 ITER EX DEM     TOTAL ENERGY        E CHANGE  DENSITY CHANGE     ORB. GRAD
          ---------------START SECOND ORDER SCF---------------
   1  0  0     -188.9626936583  -188.9626936583   0.160795880   0.048270504
   2  1  0     -188.9865582227    -0.0238645644   0.112293714   0.018085610
   3  2  0     -188.9950952937    -0.0085370709   0.091195305   0.016282543
   4  3  0     -188.9974861492    -0.0023908555   0.064142538   0.011225476
   5  4  0     -188.9992752011    -0.0017890519   0.040290226   0.007470770
   6  5  0     -188.9998702347    -0.0005950336   0.005526542   0.001731212
   7  6  0     -188.9999173688    -0.0000471341   0.005687585   0.000991916
   8  7  0     -188.9999360753    -0.0000187066   0.000920184   0.000236820
   9  8  0     -188.9999369923    -0.0000009169   0.000404197   0.000125489
  10  9  0     -188.9999372113    -0.0000002190   0.000100810   0.000049511
  11 10  0     -188.9999372192    -0.0000000079   0.000031281   0.000011693
  12 11  0     -188.9999372199    -0.0000000007   0.000003505   0.000001765
  13 12  0     -188.9999372199    -0.0000000000   0.000002099   0.000000498

          -----------------
          DENSITY CONVERGED
          -----------------
     TIME TO FORM FOCK OPERATORS=       0.0 SECONDS (       0.0 SEC/ITER)
     TIME TO SOLVE SCF EQUATIONS=       0.0 SECONDS (       0.0 SEC/ITER)

 FINAL RHF ENERGY IS     -188.9999372199 AFTER  13 ITERATIONS
 ...... END OF RHF CALCULATION ......
 STEP CPU TIME =     0.01 TOTAL CPU TIME =        0.1 (    0.0 MIN)
 TOTAL WALL CLOCK TIME=        0.1 SECONDS, CPU UTILIZATION IS 100.00%
 ..... END OF 1-ELECTRON GRADIENT ......
 STEP CPU TIME =     0.00 TOTAL CPU TIME =        0.1 (    0.0 MIN)
 TOTAL WALL CLOCK TIME=        0.1 SECONDS, CPU UTILIZATION IS 100.00%
 ...... END OF 2-ELECTRON GRADIENT ......
 STEP CPU TIME =     0.00 TOTAL CPU TIME =        0.1 (    0.0 MIN)
 TOTAL WALL CLOCK TIME=        0.1 SECONDS, CPU UTILIZATION IS  88.89%

          NSERCH=  5     ENERGY=    -188.9999372

                                 -----------------------
                                 GRADIENT (HARTREE/BOHR)
                                 -----------------------
        ATOM     ZNUC       DE/DX         DE/DY         DE/DZ
 --------------------------------------------------------------
    1  FLUORINE     9.0     0.0517205    -0.0015306     0.0000000
    2  CARBON       6.0    -0.0593976     0.0603257     0.0000000
    3  NITROGEN     7.0     0.0076771    -0.0587951     0.0000000


                     --------------------
                     INTERNAL COORDINATES
                     --------------------

                 - - ATOMS - -         COORDINATE        GRADIENT
 NO.   TYPE    I  J  K  L  M  N         (ANG,DEG)     (H/B,H/RAD)
 ----------------------------------------------------------------
   1 STRETCH   1  2                     1.4277371       0.0082303
   2 STRETCH   2  3                     1.2444012      -0.0089726
   3 BEND      1  2  3                 98.6855444      -0.1378285

 NOTE: CARTESIAN GRADIENTS ARE ALWAYS TAKEN TO TEST CONVERGENCE,
       SO THE FOLLOWING GRADIENTS ARE CARTESIAN.

          MAXIMUM GRADIENT = 0.0603255    RMS GRADIENT = 0.0385291

 NSERCH:   5  E=     -188.9999372199  GRAD. MAX=  0.0603255  R.M.S.=  0.0385291

          HESSIAN UPDATED USING THE POWELL FORMULA
             ACTUAL ENERGY CHANGE WAS   0.0408791488
          PREDICTED ENERGY CHANGE WAS   0.0466723907 RATIO=  0.876
          OVERLAP OF CURRENT MODE   1 WITH PREVIOUS MODE IS     0.998394
          FOLLOWING MODE  1 WITH EIGENVALUE   -0.03576 AND COMPONENTS
             -0.27849 -0.22785  0.93302
          TS SEARCH, CORRECT HESSIAN, TRYING PURE NR STEP
               NR STEP HAS LENGTH         =   3.603727
          TRIM/QA LAMBDA FOR     TS MODE  =   0.39693020
          TRIM/QA LAMBDA FOR NON-TS MODES =  -0.39693020
          TRIM/QA STEP HAS LENGTH         =   0.300000
          RADIUS OF STEP TAKEN=   0.30000  CURRENT TRUST RADIUS=   0.30000
          TRANSFORMING DISPLACEMENT FROM INTERNALS TO CARTESIANS

 THE DETERMINANT OF THE G MATRIX IS 10**(    -4)
 * * * WARNING * * *
 YOUR B MATRIX HAS A SMALL DETERMINANT.
 THIS SUGGESTS YOU MAY HAVE BADLY CHOSEN COORDINATES.
          THE ROOT MEAN SQUARE ERROR IN ITERATION   1 IS   0.02784025

 THE DETERMINANT OF THE G MATRIX IS 10**(    -4)
 * * * WARNING * * *
 YOUR B MATRIX HAS A SMALL DETERMINANT.
 THIS SUGGESTS YOU MAY HAVE BADLY CHOSEN COORDINATES.
          THE ROOT MEAN SQUARE ERROR IN ITERATION   2 IS   0.00011367

 THE DETERMINANT OF THE G MATRIX IS 10**(    -4)
 * * * WARNING * * *
 YOUR B MATRIX HAS A SMALL DETERMINANT.
 THIS SUGGESTS YOU MAY HAVE BADLY CHOSEN COORDINATES.
          THE ROOT MEAN SQUARE ERROR IN ITERATION   3 IS   0.00000000

 THE DETERMINANT OF THE G MATRIX IS 10**(    -4)
 * * * WARNING * * *
 YOUR B MATRIX HAS A SMALL DETERMINANT.
 THIS SUGGESTS YOU MAY HAVE BADLY CHOSEN COORDINATES.
          THE ROOT MEAN SQUARE ERROR IN ITERATION   4 IS   0.00000000

 THE DETERMINANT OF THE G MATRIX IS 10**(    -4)
 * * * WARNING * * *
 YOUR B MATRIX HAS A SMALL DETERMINANT.
 THIS SUGGESTS YOU MAY HAVE BADLY CHOSEN COORDINATES.

 BEGINNING GEOMETRY SEARCH POINT NSERCH=   6 ...

 COORDINATES OF SYMMETRY UNIQUE ATOMS (ANGS)
   ATOM   CHARGE       X              Y              Z
 ------------------------------------------------------------
 FLUORINE    9.0  -0.2097079017  -0.9064211779   0.0000000000
 CARBON      6.0  -0.5567538158   0.5378112738   0.0000000000
 NITROGEN    7.0   0.7254792802   0.6959329954   0.0000000000
 COORDINATES OF ALL ATOMS ARE (ANGS)
   ATOM   CHARGE       X              Y              Z
 ------------------------------------------------------------
 FLUORINE    9.0  -0.2097079017  -0.9064211779   0.0000000000
 CARBON      6.0  -0.5567538158   0.5378112738   0.0000000000
 NITROGEN    7.0   0.7254792802   0.6959329954   0.0000000000


                     --------------------
                     INTERNAL COORDINATES
                     --------------------

                 - - ATOMS - -         COORDINATE      COORDINATE
 NO.   TYPE    I  J  K  L  M  N        (BOHR,RAD)       (ANG,DEG)
 ----------------------------------------------------------------
   1 STRETCH   1  2                     2.8068941       1.4853445
   2 STRETCH   2  3                     2.4414237       1.2919459
   3 BEND      1  2  3                  1.4576678      83.5182103

          INTERNUCLEAR DISTANCES (ANGS.)
          ------------------------------

                1 FLUO       2 CARB       3 NITR  

   1 FLUO    0.0000000    1.4853445 *  1.8552935 *
   2 CARB    1.4853445 *  0.0000000    1.2919459 *
   3 NITR    1.8552935 *  1.2919459 *  0.0000000  

  * ... LESS THAN  3.000

 ...... END OF ONE-ELECTRON INTEGRALS ......
 STEP CPU TIME =     0.00 TOTAL CPU TIME =        0.1 (    0.0 MIN)
 TOTAL WALL CLOCK TIME=        0.1 SECONDS, CPU UTILIZATION IS  88.89%
 TOTAL NUMBER OF NONZERO TWO-ELECTRON INTEGRALS =                3936
          1 INTEGRAL RECORDS WERE STORED ON DISK FILE  8.
  ...... END OF TWO-ELECTRON INTEGRALS .....
 STEP CPU TIME =     0.00 TOTAL CPU TIME =        0.1 (    0.0 MIN)
 TOTAL WALL CLOCK TIME=        0.1 SECONDS, CPU UTILIZATION IS  88.89%

          --------------------------
                 RHF SCF CALCULATION
          --------------------------
     DENSITY MATRIX CONV=  1.00E-05

 ITER EX DEM     TOTAL ENERGY        E CHANGE  DENSITY CHANGE     ORB. GRAD
          ---------------START SECOND ORDER SCF---------------
   1  0  0     -188.9218972925  -188.9218972925   0.159677679   0.053188137
   2  1  0     -188.9544838977    -0.0325866052   0.158178150   0.026405763
   3  2  0     -188.9706964146    -0.0162125169   0.070130713   0.021853161
   4  3  0     -188.9746553915    -0.0039589768   0.059741051   0.012895447
   5  4  0     -188.9765920385    -0.0019366470   0.016918770   0.004463909
   6  5  0     -188.9768717620    -0.0002797236   0.003655900   0.001206885
   7  6  0     -188.9768908461    -0.0000190841   0.002072752   0.000733797
   8  7  0     -188.9768957897    -0.0000049436   0.000518037   0.000196479
   9  8  0     -188.9768962403    -0.0000004506   0.000332303   0.000094858
  10  9  0     -188.9768963640    -0.0000001237   0.000102384   0.000046438
  11 10  0     -188.9768963783    -0.0000000143   0.000051482   0.000019591
  12 11  0     -188.9768963809    -0.0000000026   0.000012306   0.000003580
  13 12  0     -188.9768963811    -0.0000000003   0.000004045   0.000001486
  14 13  0     -188.9768963812    -0.0000000000   0.000000893   0.000000442

          -----------------
          DENSITY CONVERGED
          -----------------
     TIME TO FORM FOCK OPERATORS=       0.0 SECONDS (       0.0 SEC/ITER)
     TIME TO SOLVE SCF EQUATIONS=       0.0 SECONDS (       0.0 SEC/ITER)

 FINAL RHF ENERGY IS     -188.9768963812 AFTER  14 ITERATIONS
 ...... END OF RHF CALCULATION ......
 STEP CPU TIME =     0.00 TOTAL CPU TIME =        0.1 (    0.0 MIN)
 TOTAL WALL CLOCK TIME=        0.1 SECONDS, CPU UTILIZATION IS  88.89%
 ..... END OF 1-ELECTRON GRADIENT ......
 STEP CPU TIME =     0.00 TOTAL CPU TIME =        0.1 (    0.0 MIN)
 TOTAL WALL CLOCK TIME=        0.1 SECONDS, CPU UTILIZATION IS  88.89%
 ...... END OF 2-ELECTRON GRADIENT ......
 STEP CPU TIME =     0.01 TOTAL CPU TIME =        0.1 (    0.0 MIN)
 TOTAL WALL CLOCK TIME=        0.1 SECONDS, CPU UTILIZATION IS 100.00%

          NSERCH=  6     ENERGY=    -188.9768964

                                 -----------------------
                                 GRADIENT (HARTREE/BOHR)
                                 -----------------------
        ATOM     ZNUC       DE/DX         DE/DY         DE/DZ
 --------------------------------------------------------------
    1  FLUORINE     9.0     0.0097676    -0.0292663     0.0000000
    2  CARBON       6.0    -0.0235051     0.0306530     0.0000000
    3  NITROGEN     7.0     0.0137375    -0.0013867     0.0000000


                     --------------------
                     INTERNAL COORDINATES
                     --------------------

                 - - ATOMS - -         COORDINATE        GRADIENT
 NO.   TYPE    I  J  K  L  M  N         (ANG,DEG)     (H/B,H/RAD)
 ----------------------------------------------------------------
   1 STRETCH   1  2                     1.4853445       0.0307385
   2 STRETCH   2  3                     1.2919459       0.0134644
   3 BEND      1  2  3                 83.5182103      -0.0074647

 NOTE: CARTESIAN GRADIENTS ARE ALWAYS TAKEN TO TEST CONVERGENCE,
       SO THE FOLLOWING GRADIENTS ARE CARTESIAN.

          MAXIMUM GRADIENT = 0.0306529    RMS GRADIENT = 0.0171096

 NSERCH:   6  E=     -188.9768963812  GRAD. MAX=  0.0306529  R.M.S.=  0.0171096

          HESSIAN UPDATED USING THE POWELL FORMULA
             ACTUAL ENERGY CHANGE WAS   0.0230408388
          PREDICTED ENERGY CHANGE WAS   0.0356224354 RATIO=  0.647
          OVERLAP OF CURRENT MODE   1 WITH PREVIOUS MODE IS     0.993347
          FOLLOWING MODE  1 WITH EIGENVALUE   -0.40277 AND COMPONENTS
              0.17253  0.19571 -0.96537
          TS SEARCH, CORRECT HESSIAN, TRYING PURE NR STEP
               NR STEP HAS LENGTH         =   0.055018
          RADIUS OF STEP TAKEN=   0.05502  CURRENT TRUST RADIUS=   0.30000
          TRANSFORMING DISPLACEMENT FROM INTERNALS TO CARTESIANS

 THE DETERMINANT OF THE G MATRIX IS 10**(    -4)
 * * * WARNING * * *
 YOUR B MATRIX HAS A SMALL DETERMINANT.
 THIS SUGGESTS YOU MAY HAVE BADLY CHOSEN COORDINATES.
          THE ROOT MEAN SQUARE ERROR IN ITERATION   1 IS   0.00068165

 THE DETERMINANT OF THE G MATRIX IS 10**(    -4)
 * * * WARNING * * *
 YOUR B MATRIX HAS A SMALL DETERMINANT.
 THIS SUGGESTS YOU MAY HAVE BADLY CHOSEN COORDINATES.
          THE ROOT MEAN SQUARE ERROR IN ITERATION   2 IS   0.00000006

 THE DETERMINANT OF THE G MATRIX IS 10**(    -4)
 * * * WARNING * * *
 YOUR B MATRIX HAS A SMALL DETERMINANT.
 THIS SUGGESTS YOU MAY HAVE BADLY CHOSEN COORDINATES.
          THE ROOT MEAN SQUARE ERROR IN ITERATION   3 IS   0.00000000

 THE DETERMINANT OF THE G MATRIX IS 10**(    -4)
 * * * WARNING * * *
 YOUR B MATRIX HAS A SMALL DETERMINANT.
 THIS SUGGESTS YOU MAY HAVE BADLY CHOSEN COORDINATES.

 BEGINNING GEOMETRY SEARCH POINT NSERCH=   7 ...

 COORDINATES OF SYMMETRY UNIQUE ATOMS (ANGS)
   ATOM   CHARGE       X              Y              Z
 ------------------------------------------------------------
 FLUORINE    9.0  -0.1957452737  -0.8830990852   0.0000000000
 CARBON      6.0  -0.5688818813   0.5370104167   0.0000000000
 NITROGEN    7.0   0.7169289548   0.6649774863   0.0000000000
 COORDINATES OF ALL ATOMS ARE (ANGS)
   ATOM   CHARGE       X              Y              Z
 ------------------------------------------------------------
 FLUORINE    9.0  -0.1957452737  -0.8830990852   0.0000000000
[...]
    1  FLUORINE     9.0     0.0001866     0.0002494     0.0000000
    2  CARBON       6.0     0.0005912     0.0001135     0.0000000
    3  NITROGEN     7.0    -0.0007777    -0.0003629     0.0000000


                     --------------------
                     INTERNAL COORDINATES
                     --------------------

                 - - ATOMS - -         COORDINATE        GRADIENT
 NO.   TYPE    I  J  K  L  M  N         (ANG,DEG)     (H/B,H/RAD)
 ----------------------------------------------------------------
   1 STRETCH   1  2                     1.4485330      -0.0001944
   2 STRETCH   2  3                     1.2900550      -0.0008136
   3 BEND      1  2  3                 81.8603509      -0.0006665

 NOTE: CARTESIAN GRADIENTS ARE ALWAYS TAKEN TO TEST CONVERGENCE,
       SO THE FOLLOWING GRADIENTS ARE CARTESIAN.

          MAXIMUM GRADIENT = 0.0007778    RMS GRADIENT = 0.0003645

 NSERCH:  10  E=     -188.9778966748  GRAD. MAX=  0.0007778  R.M.S.=  0.0003645

          HESSIAN UPDATED USING THE POWELL FORMULA
             ACTUAL ENERGY CHANGE WAS  -0.0000069371
          PREDICTED ENERGY CHANGE WAS  -0.0000057837 RATIO=  1.199
          OVERLAP OF CURRENT MODE   1 WITH PREVIOUS MODE IS     0.991355
          FOLLOWING MODE  1 WITH EIGENVALUE   -0.37099 AND COMPONENTS
              0.25173  0.10047 -0.96257
          TS SEARCH, CORRECT HESSIAN, TRYING PURE NR STEP
               NR STEP HAS LENGTH         =   0.001825
          RADIUS OF STEP TAKEN=   0.00182  CURRENT TRUST RADIUS=   0.05000
          TRANSFORMING DISPLACEMENT FROM INTERNALS TO CARTESIANS

 THE DETERMINANT OF THE G MATRIX IS 10**(    -4)
 * * * WARNING * * *
 YOUR B MATRIX HAS A SMALL DETERMINANT.
 THIS SUGGESTS YOU MAY HAVE BADLY CHOSEN COORDINATES.
          THE ROOT MEAN SQUARE ERROR IN ITERATION   1 IS   0.00000051

 THE DETERMINANT OF THE G MATRIX IS 10**(    -4)
 * * * WARNING * * *
 YOUR B MATRIX HAS A SMALL DETERMINANT.
 THIS SUGGESTS YOU MAY HAVE BADLY CHOSEN COORDINATES.
          THE ROOT MEAN SQUARE ERROR IN ITERATION   2 IS   0.00000000

 THE DETERMINANT OF THE G MATRIX IS 10**(    -4)
 * * * WARNING * * *
 YOUR B MATRIX HAS A SMALL DETERMINANT.
 THIS SUGGESTS YOU MAY HAVE BADLY CHOSEN COORDINATES.

 BEGINNING GEOMETRY SEARCH POINT NSERCH=  11 ...

 COORDINATES OF SYMMETRY UNIQUE ATOMS (ANGS)
   ATOM   CHARGE       X              Y              Z
 ------------------------------------------------------------
 FLUORINE    9.0  -0.1992727262  -0.8775139828   0.0000000000
 CARBON      6.0  -0.5646381755   0.5243706156   0.0000000000
 NITROGEN    7.0   0.7180780946   0.6682317444   0.0000000000
 COORDINATES OF ALL ATOMS ARE (ANGS)
   ATOM   CHARGE       X              Y              Z
 ------------------------------------------------------------
 FLUORINE    9.0  -0.1992727262  -0.8775139828   0.0000000000
 CARBON      6.0  -0.5646381755   0.5243706156   0.0000000000
 NITROGEN    7.0   0.7180780946   0.6682317444   0.0000000000


                     --------------------
                     INTERNAL COORDINATES
                     --------------------

                 - - ATOMS - -         COORDINATE      COORDINATE
 NO.   TYPE    I  J  K  L  M  N        (BOHR,RAD)       (ANG,DEG)
 ----------------------------------------------------------------
   1 STRETCH   1  2                     2.7376726       1.4487140
   2 STRETCH   2  3                     2.4391796       1.2907583
   3 BEND      1  2  3                  1.4275302      81.7914558

          INTERNUCLEAR DISTANCES (ANGS.)
          ------------------------------

                1 FLUO       2 CARB       3 NITR  

   1 FLUO    0.0000000    1.4487140 *  1.7974600 *
   2 CARB    1.4487140 *  0.0000000    1.2907583 *
   3 NITR    1.7974600 *  1.2907583 *  0.0000000  

  * ... LESS THAN  3.000

 ...... END OF ONE-ELECTRON INTEGRALS ......
 STEP CPU TIME =     0.00 TOTAL CPU TIME =        0.1 (    0.0 MIN)
 TOTAL WALL CLOCK TIME=        0.1 SECONDS, CPU UTILIZATION IS  91.67%
 TOTAL NUMBER OF NONZERO TWO-ELECTRON INTEGRALS =                3943
          1 INTEGRAL RECORDS WERE STORED ON DISK FILE  8.
  ...... END OF TWO-ELECTRON INTEGRALS .....
 STEP CPU TIME =     0.00 TOTAL CPU TIME =        0.1 (    0.0 MIN)
 TOTAL WALL CLOCK TIME=        0.1 SECONDS, CPU UTILIZATION IS  91.67%

          --------------------------
                 RHF SCF CALCULATION
          --------------------------
     DENSITY MATRIX CONV=  1.00E-05

 ITER EX DEM     TOTAL ENERGY        E CHANGE  DENSITY CHANGE     ORB. GRAD
          ---------------START SECOND ORDER SCF---------------
   1  0  0     -188.9778954773  -188.9778954773   0.000711609   0.000254569
   2  1  0     -188.9778963573    -0.0000008800   0.000859086   0.000170310
   3  2  0     -188.9778967578    -0.0000004004   0.000273430   0.000060750
   4  3  0     -188.9778968110    -0.0000000533   0.000259464   0.000042817
   5  4  0     -188.9778968353    -0.0000000243   0.000032331   0.000012650
   6  5  0     -188.9778968367    -0.0000000014   0.000018843   0.000005923
   7  6  0     -188.9778968370    -0.0000000003   0.000005823   0.000001767
   8  7  0     -188.9778968371    -0.0000000001   0.000003039   0.000000925

          -----------------
          DENSITY CONVERGED
          -----------------
     TIME TO FORM FOCK OPERATORS=       0.0 SECONDS (       0.0 SEC/ITER)
     TIME TO SOLVE SCF EQUATIONS=       0.0 SECONDS (       0.0 SEC/ITER)

 FINAL RHF ENERGY IS     -188.9778968371 AFTER   8 ITERATIONS
 ...... END OF RHF CALCULATION ......
 STEP CPU TIME =     0.00 TOTAL CPU TIME =        0.1 (    0.0 MIN)
 TOTAL WALL CLOCK TIME=        0.1 SECONDS, CPU UTILIZATION IS  84.62%
 ..... END OF 1-ELECTRON GRADIENT ......
 STEP CPU TIME =     0.00 TOTAL CPU TIME =        0.1 (    0.0 MIN)
 TOTAL WALL CLOCK TIME=        0.1 SECONDS, CPU UTILIZATION IS  84.62%
 ...... END OF 2-ELECTRON GRADIENT ......
 STEP CPU TIME =     0.00 TOTAL CPU TIME =        0.1 (    0.0 MIN)
 TOTAL WALL CLOCK TIME=        0.1 SECONDS, CPU UTILIZATION IS  84.62%

          NSERCH= 11     ENERGY=    -188.9778968

                                 -----------------------
                                 GRADIENT (HARTREE/BOHR)
                                 -----------------------
        ATOM     ZNUC       DE/DX         DE/DY         DE/DZ
 --------------------------------------------------------------
    1  FLUORINE     9.0     0.0000055    -0.0000243     0.0000000
    2  CARBON       6.0    -0.0000201     0.0000217     0.0000000
    3  NITROGEN     7.0     0.0000146     0.0000027     0.0000000


                     --------------------
                     INTERNAL COORDINATES
                     --------------------

                 - - ATOMS - -         COORDINATE        GRADIENT
 NO.   TYPE    I  J  K  L  M  N         (ANG,DEG)     (H/B,H/RAD)
 ----------------------------------------------------------------
   1 STRETCH   1  2                     1.4487140       0.0000249
   2 STRETCH   2  3                     1.2907583       0.0000148
   3 BEND      1  2  3                 81.7914558       0.0000025

 NOTE: CARTESIAN GRADIENTS ARE ALWAYS TAKEN TO TEST CONVERGENCE,
       SO THE FOLLOWING GRADIENTS ARE CARTESIAN.

          MAXIMUM GRADIENT = 0.0000243    RMS GRADIENT = 0.0000138

 NSERCH:  11  E=     -188.9778968371  GRAD. MAX=  0.0000243  R.M.S.=  0.0000138


      ***** SADDLE POINT LOCATED *****
 COORDINATES OF SYMMETRY UNIQUE ATOMS (ANGS)
   ATOM   CHARGE       X              Y              Z
 ------------------------------------------------------------
 FLUORINE    9.0  -0.1992727262  -0.8775139828   0.0000000000
 CARBON      6.0  -0.5646381755   0.5243706156   0.0000000000
 NITROGEN    7.0   0.7180780946   0.6682317444   0.0000000000
 COORDINATES OF ALL ATOMS ARE (ANGS)
   ATOM   CHARGE       X              Y              Z
 ------------------------------------------------------------
 FLUORINE    9.0  -0.1992727262  -0.8775139828   0.0000000000
 CARBON      6.0  -0.5646381755   0.5243706156   0.0000000000
 NITROGEN    7.0   0.7180780946   0.6682317444   0.0000000000


                     --------------------
                     INTERNAL COORDINATES
                     --------------------

                 - - ATOMS - -         COORDINATE      COORDINATE
 NO.   TYPE    I  J  K  L  M  N        (BOHR,RAD)       (ANG,DEG)
 ----------------------------------------------------------------
   1 STRETCH   1  2                     2.7376726       1.4487140
   2 STRETCH   2  3                     2.4391796       1.2907583
   3 BEND      1  2  3                  1.4275302      81.7914558

          INTERNUCLEAR DISTANCES (ANGS.)
          ------------------------------

                1 FLUO       2 CARB       3 NITR  

   1 FLUO    0.0000000    1.4487140 *  1.7974600 *
   2 CARB    1.4487140 *  0.0000000    1.2907583 *
   3 NITR    1.7974600 *  1.2907583 *  0.0000000  

  * ... LESS THAN  3.000


          NUCLEAR ENERGY    =       55.4910650426
          ELECTRONIC ENERGY =     -244.4689618796
          TOTAL ENERGY      =     -188.9778968371

          ------------------
          MOLECULAR ORBITALS
          ------------------

                      1          2          3          4          5
                  -26.0599   -15.4538   -11.0976    -1.5856    -1.1667
                     A'         A'         A'         A'         A'  
    1  F  1  S    0.994851  -0.000117  -0.000522   0.239720  -0.092010
    2  F  1  S    0.021490   0.000363   0.004466  -0.906902   0.398035
    3  F  1  X   -0.000404   0.000892  -0.000618  -0.000629  -0.041597
    4  F  1  Y    0.002191   0.000306   0.002320  -0.084062  -0.109804
    5  F  1  Z    0.000000   0.000000   0.000000   0.000000   0.000000
    6  C  2  S    0.000505  -0.000510  -0.993175   0.062497   0.121564
    7  C  2  S   -0.003185   0.007676  -0.029011  -0.150750  -0.290237
    8  C  2  X   -0.001116   0.005860  -0.007877  -0.051703  -0.188996
    9  C  2  Y    0.003300   0.000680   0.002552   0.080494  -0.040459
   10  C  2  Z    0.000000   0.000000   0.000000   0.000000   0.000000
   11  N  3  S    0.000077  -0.994190  -0.000249   0.042435   0.198305
   12  N  3  S    0.000231  -0.026572   0.008011  -0.123476  -0.676400
   13  N  3  X   -0.000321   0.006328  -0.003954   0.050762   0.205854
   14  N  3  Y    0.000540   0.000900  -0.000512   0.037178   0.011486
   15  N  3  Z    0.000000   0.000000   0.000000   0.000000   0.000000

                      6          7          8          9         10
                   -0.7039    -0.6089    -0.5731    -0.5324    -0.4304
                     A'         A''        A'         A'         A'' 
    1  F  1  S    0.048117   0.000000  -0.020495   0.028402   0.000000
    2  F  1  S   -0.243605   0.000000   0.102050  -0.142220   0.000000
    3  F  1  X   -0.437531   0.000000  -0.745022  -0.143438   0.000000
    4  F  1  Y    0.357396   0.000000  -0.374411   0.489756   0.000000
    5  F  1  Z    0.000000  -0.870571   0.000000   0.000000  -0.465597
    6  C  2  S   -0.153052   0.000000  -0.003991   0.070848   0.000000
    7  C  2  S    0.566445   0.000000   0.030186  -0.221064   0.000000
    8  C  2  X   -0.065867   0.000000  -0.156848  -0.104350   0.000000
    9  C  2  Y   -0.162912   0.000000   0.114258  -0.394115   0.000000
   10  C  2  Z    0.000000  -0.261956   0.000000   0.000000   0.319743
   11  N  3  S    0.117342   0.000000  -0.081888  -0.069254   0.000000
   12  N  3  S   -0.532703   0.000000   0.366059   0.348439   0.000000
   13  N  3  X   -0.230264   0.000000   0.209335   0.521045   0.000000
   14  N  3  Y    0.003011   0.000000   0.245338  -0.173677   0.000000
   15  N  3  Z    0.000000  -0.282796   0.000000   0.000000   0.788561

                     11         12         13         14         15
                   -0.3772     0.1566     0.2677     0.4891     0.8692
                     A'         A'         A''        A'         A'  
    1  F  1  S    0.002120  -0.032691   0.000000  -0.056586   0.026057
    2  F  1  S   -0.005216   0.170349   0.000000   0.342466  -0.178103
    3  F  1  X    0.416566   0.141675   0.000000  -0.250575   0.051359
    4  F  1  Y   -0.001331   0.479729   0.000000   0.557755  -0.235833
    5  F  1  Z    0.000000   0.000000  -0.188193   0.000000   0.000000
    6  C  2  S   -0.141054   0.050065   0.000000   0.045696  -0.147038
    7  C  2  S    0.639790  -0.186973   0.000000  -0.163003   0.974208
    8  C  2  X   -0.575021   0.095014   0.000000   0.134021   1.117232
    9  C  2  Y    0.200190   0.032300   0.000000   0.992903  -0.050205
   10  C  2  Z    0.000000   0.000000   0.943536   0.000000   0.000000
   11  N  3  S    0.002382   0.009732   0.000000   0.022524   0.114637
   12  N  3  S    0.035099  -0.040433   0.000000  -0.134155  -0.905888
   13  N  3  X    0.390854   0.024103   0.000000   0.204167   0.970101
   14  N  3  Y    0.073937   0.912758   0.000000  -0.353115   0.115408
   15  N  3  Z    0.000000   0.000000  -0.591458   0.000000   0.000000

     ----------------------------------------------------------------
     PROPERTY VALUES FOR THE RHF   SELF-CONSISTENT FIELD WAVEFUNCTION
     ----------------------------------------------------------------

          -----------------
          ENERGY COMPONENTS
          -----------------

         WAVEFUNCTION NORMALIZATION =       1.0000000000

                ONE ELECTRON ENERGY =    -371.7588404484
                TWO ELECTRON ENERGY =     127.2898785688
           NUCLEAR REPULSION ENERGY =      55.4910650426
                                      ------------------
                       TOTAL ENERGY =    -188.9778968371

 ELECTRON-ELECTRON POTENTIAL ENERGY =     127.2898785688
  NUCLEUS-ELECTRON POTENTIAL ENERGY =    -559.1639844771
   NUCLEUS-NUCLEUS POTENTIAL ENERGY =      55.4910650426
                                      ------------------
             TOTAL POTENTIAL ENERGY =    -376.3830408657
               TOTAL KINETIC ENERGY =     187.4051440286
                 VIRIAL RATIO (V/T) =       2.0083922606

  ...... PI ENERGY ANALYSIS ......

 ENERGY ANALYSIS:
            FOCK ENERGY=   -117.1790826595
          BARE H ENERGY=   -371.7588404484
     ELECTRONIC ENERGY =   -244.4689615540
         KINETIC ENERGY=    187.4051440286
          N-N REPULSION=     55.4910650426
           TOTAL ENERGY=   -188.9778965114
        SIGMA PART(1+2)=   -221.4191030921
               (K,V1,2)=    177.7748943595   -505.5126500547    106.3186526030
           PI PART(1+2)=    -23.0498584618
               (K,V1,2)=      9.6302496691    -53.6513344223     20.9712262914
  SIGMA SKELETON, ERROR=   -165.9280380496     -0.0000000000
             MIXED PART= 0.00000E+00 0.00000E+00 0.00000E+00 0.00000E+00
 ...... END OF PI ENERGY ANALYSIS ......

          ---------------------------------------
          MULLIKEN AND LOWDIN POPULATION ANALYSES
          ---------------------------------------

     ATOMIC MULLIKEN POPULATION IN EACH MOLECULAR ORBITAL

                      1          2          3          4          5

                  2.000000   2.000000   2.000000   2.000000   2.000000

    1             2.000350  -0.000006  -0.000206   1.708496   0.259539
    2            -0.000347  -0.001477   2.001502   0.197507   0.511706
    3            -0.000003   2.001483  -0.001296   0.093997   1.228755

                      6          7          8          9         10

                  2.000000   2.000000   2.000000   2.000000   2.000000

    1             0.825181   1.576501   1.441264   0.585281   0.381082
    2             0.621680   0.215432   0.094885   0.520580   0.286475
    3             0.553139   0.208067   0.463851   0.894139   1.332444

                     11

                  2.000000

    1             0.291781
    2             1.428386
    3             0.279833

               ----- POPULATIONS IN EACH AO -----
                             MULLIKEN      LOWDIN
              1  F  1  S      1.99934     1.99875
              2  F  1  S      1.96247     1.91818
              3  F  1  X      1.90472     1.90266
              4  F  1  Y      1.24515     1.24799
              5  F  1  Z      1.95758     1.95555
              6  C  2  S      1.99636     1.99303
              7  C  2  S      1.61678     1.57872
              8  C  2  X      1.07274     1.17674
              9  C  2  Y      0.68854     0.73087
             10  C  2  Z      0.50191     0.51550
             11  N  3  S      1.99816     1.99742
             12  N  3  S      1.84799     1.74108
             13  N  3  X      1.37630     1.41462
             14  N  3  Y      0.29145     0.29994
             15  N  3  Z      1.54051     1.52895

          ----- MULLIKEN ATOMIC OVERLAP POPULATIONS -----
          (OFF-DIAGONAL ELEMENTS NEED TO BE MULTIPLIED BY 2)

             1           2           3

    1    8.9105519
    2    0.1558396   5.3212269
    3    0.0028707   0.3992632   6.6522742

          TOTAL MULLIKEN AND LOWDIN ATOMIC POPULATIONS
       ATOM         MULL.POP.    CHARGE          LOW.POP.     CHARGE
    1 FLUORINE      9.069262   -0.069262         9.023139   -0.023139
    2 CARBON        5.876330    0.123670         5.994861    0.005139
    3 NITROGEN      7.054408   -0.054408         6.982000    0.018000

          -------------------------------
          BOND ORDER AND VALENCE ANALYSIS     BOND ORDER THRESHOLD=0.050
          -------------------------------

                   BOND                       BOND                       BOND
  ATOM PAIR DIST  ORDER      ATOM PAIR DIST  ORDER      ATOM PAIR DIST  ORDER
    1   2  1.449  0.866        1   3  1.797  0.347        2   3  1.291  1.806

                       TOTAL       BONDED        FREE
      ATOM            VALENCE     VALENCE     VALENCE
    1 FLUORINE          1.214       1.214       0.000
    2 CARBON            2.673       2.673      -0.000
    3 NITROGEN          2.154       2.154      -0.000

          ---------------------
          ELECTROSTATIC MOMENTS
          ---------------------

 POINT   1           X           Y           Z (BOHR)    CHARGE
                -0.021258   -0.042900    0.000000       -0.00 (A.U.)
         DX          DY          DZ         /D/  (DEBYE)
     0.259270   -0.228022    0.000000    0.345275
 ...... END OF PROPERTY EVALUATION ......
 STEP CPU TIME =     0.01 TOTAL CPU TIME =        0.1 (    0.0 MIN)
 TOTAL WALL CLOCK TIME=        0.1 SECONDS, CPU UTILIZATION IS  92.31%
  $VIB   
          IVIB=   0 IATOM=   0 ICOORD=   0 E=     -188.9778968371
  5.413119915E-06-2.432866620E-05 0.000000000E+00-2.005177509E-05 2.167319347E-05
  0.000000000E+00 1.463865518E-05 2.655472729E-06 0.000000000E+00
  2.592697629E-01-2.280220787E-01 0.000000000E+00
 ......END OF GEOMETRY SEARCH......
 STEP CPU TIME =     0.00 TOTAL CPU TIME =        0.1 (    0.0 MIN)
 TOTAL WALL CLOCK TIME=        0.1 SECONDS, CPU UTILIZATION IS  92.31%
               580000  WORDS OF DYNAMIC MEMORY USED
 EXECUTION OF GAMESS TERMINATED NORMALLY Fri Jun  2 02:09:42 2017
 DDI: 263640 bytes (0.3 MB / 0 MWords) used by master data server.

 ----------------------------------------
 CPU timing information for all processes
 ========================================
 0: 0.102 + 0.28 = 0.131
 ----------------------------------------
 ddikick.x: exited gracefully.
unset echo
----- accounting info -----
Files used on the master node compute-0-8.local were:
-rw-rw-r-- 1 sarom sarom    2414 Jun  2 02:09 /scratch/sadpt-bakerd.F05
-rw-rw-r-- 1 sarom sarom  180016 Jun  2 02:09 /scratch/sadpt-bakerd.F08
-rw-rw-r-- 1 sarom sarom 1963200 Jun  2 02:09 /scratch/sadpt-bakerd.F10
rm: cannot remove `/scratch/sarom': Is a directory
rm: cannot remove `/scratch/tmp': Is a directory
ls: No match.
ls: No match.
ls: No match.
Fri Jun  2 02:09:45 CDT 2017
0.255u 0.161s 0:03.62 11.3%	0+0k 8+376io 0pf+0w
Deleting shmid=2785280.
Deleting shmid=2818049.
/opt/gridengine/default/spool/compute-0-8/active_jobs/23692.1/pe_hostfile compute-0-8.local
