-catch_rsh /opt/gridengine/default/spool/compute-0-6/active_jobs/23694.1/pe_hostfile
compute-0-6
The primary node assigned by SGE to this run is compute-0-6
Warning: no access to tty (Bad file descriptor).
Thus no job control in this shell.
source /home/sarom/gamess.github.2017-05-31.14.06/install.info
setenv GMS_PATH /home/sarom/gamess.github.2017-05-31.14.06
setenv GMS_BUILD_DIR /home/sarom/gamess.github.2017-05-31.14.06
setenv GMS_TARGET linux64
setenv GMS_FORTRAN gfortran
setenv GMS_GFORTRAN_VERNO 4.4
setenv GMS_MATHLIB mkl-so
setenv GMS_MATHLIB_PATH /share/apps/intel/compilers_and_libraries_2017.1.132/linux/mkl/lib/intel64
setenv GMS_MKL_VERNO 12
setenv GMS_DDI_COMM sockets
setenv GMS_LIBCCHEM false
setenv GMS_EIGEN_PATH
setenv GMS_PHI false
setenv GMS_SHMTYPE sysv
setenv GMS_OPENMP false
unset echo
sadpt-bofill3
tests/pes
----- GAMESS execution script 'rungms' -----
This job is running on host compute-0-6.local
under operating system Linux at Fri Jun 2 02:10:12 CDT 2017
Available scratch disk space (Kbyte units) at beginning of the job is
Filesystem           1K-blocks      Used Available Use% Mounted on
/dev/sda1             16126920   3867324  11440396  26% /
GAMESS temporary binary files will be written to /scratch
GAMESS supplementary output files will be written to /home/sarom/restart
Copying input file sadpt-bofill3.inp to your run's scratch directory...
cp tests/pes/sadpt-bofill3.inp /scratch/sadpt-bofill3.F05
unset echo
The generated host list is
compute-0-6.local
/home/sarom/gamess.github.2017-05-31.14.06/ddikick.x /home/sarom/gamess.github.2017-05-31.14.06/gamess.00.x sadpt-bofill3 -ddi 1 1 compute-0-6.local -scr /scratch

 Distributed Data Interface kickoff program.
 Initiating 1 compute processes on 1 nodes to run the following command:
 /home/sarom/gamess.github.2017-05-31.14.06/gamess.00.x sadpt-bofill3 

          ******************************************************
          *         GAMESS VERSION = 20 APR 2017 (R1)          *
          *             FROM IOWA STATE UNIVERSITY             *
          * M.W.SCHMIDT, K.K.BALDRIDGE, J.A.BOATZ, S.T.ELBERT, *
          *   M.S.GORDON, J.H.JENSEN, S.KOSEKI, N.MATSUNAGA,   *
          *          K.A.NGUYEN, S.J.SU, T.L.WINDUS,           *
          *       TOGETHER WITH M.DUPUIS, J.A.MONTGOMERY       *
          *         J.COMPUT.CHEM.  14, 1347-1363(1993)        *
          **************** 64 BIT LINUX VERSION ****************

  SINCE 1993, STUDENTS AND POSTDOCS WORKING AT IOWA STATE UNIVERSITY
  AND ALSO IN THEIR VARIOUS JOBS AFTER LEAVING ISU HAVE MADE IMPORTANT
  CONTRIBUTIONS TO THE CODE:
     IVANA ADAMOVIC, CHRISTINE AIKENS, YURI ALEXEEV, POOJA ARORA,
     ANDREY ASADCHEV, ROB BELL, PRADIPTA BANDYOPADHYAY, JONATHAN BENTZ,
     BRETT BODE, KURT BRORSEN, CALEB CARLIN, GALINA CHABAN, WEI CHEN,
     CHEOL HO CHOI, PAUL DAY, ALBERT DEFUSCO, NUWAN DESILVA, TIM DUDLEY,
     DMITRI FEDOROV, GRAHAM FLETCHER, MARK FREITAG, KURT GLAESEMANN,
     DAN KEMP, GRANT MERRILL, NORIYUKI MINEZAWA, JONATHAN MULLIN,
     TAKESHI NAGATA, SEAN NEDD, HEATHER NETZLOFF, BOSILJKA NJEGIC, RYAN OLSON,
     MIKE PAK, SPENCER PRUITT, LUKE ROSKOP, JIM SHOEMAKER, LYUDMILA SLIPCHENKO,
     TONY SMITH, SAROM SOK LEANG, JIE SONG, TETSUYA TAKETSUGU, SIMON WEBB,
     PENG XU, SOOHAENG YOO, FEDERICO ZAHARIEV

  ADDITIONAL CODE HAS BEEN PROVIDED BY COLLABORATORS IN OTHER GROUPS:
     IOWA STATE UNIVERSITY:
          JOE IVANIC, AARON WEST, LAIMUTIS BYTAUTAS, KLAUS RUEDENBERG
     UNIVERSITY OF TOKYO: KIMIHIKO HIRAO, TAKAHITO NAKAJIMA,
          TAKAO TSUNEDA, MUNEAKI KAMIYA, SUSUMU YANAGISAWA,
          KIYOSHI YAGI, MAHITO CHIBA, SEIKEN TOKURA, NAOAKI KAWAKAMI
     UNIVERSITY OF AARHUS: FRANK JENSEN
     UNIVERSITY OF IOWA: VISVALDAS KAIRYS, HUI LI
     NATIONAL INST. OF STANDARDS AND TECHNOLOGY: WALT STEVENS, DAVID GARMER
     UNIVERSITY OF PISA: BENEDETTA MENNUCCI, JACOPO TOMASI
     UNIVERSITY OF MEMPHIS: HENRY KURTZ, PRAKASHAN KORAMBATH
     UNIVERSITY OF ALBERTA: TOBY ZENG, MARIUSZ KLOBUKOWSKI
     UNIVERSITY OF NEW ENGLAND: MARK SPACKMAN
     MIE UNIVERSITY: HIROAKI UMEDA
     NAT. INST. OF ADVANCED INDUSTRIAL SCIENCE AND TECHNOLOGY: KAZUO KITAURA
     MICHIGAN STATE UNIVERSITY:
          KAROL KOWALSKI, MARTA WLOCH, JEFFREY GOUR, JESSE LUTZ,
          WEI LI, PIOTR PIECUCH
     UNIVERSITY OF SILESIA: MONIKA MUSIAL, STANISLAW KUCHARSKI
     FACULTES UNIVERSITAIRES NOTRE-DAME DE LA PAIX:
          OLIVIER QUINET, BENOIT CHAMPAGNE
     UNIVERSITY OF CALIFORNIA - SANTA BARBARA: BERNARD KIRTMAN
     INSTITUTE FOR MOLECULAR SCIENCE:
          KAZUYA ISHIMURA, MICHIO KATOUDA, AND SHIGERU NAGASE
     UNIVERSITY OF NOTRE DAME: ANNA POMOGAEVA, DAN CHIPMAN
     KYUSHU UNIVERSITY:
          HARUYUKI NAKANO,
          FENG LONG GU, JACEK KORCHOWIEC, MARCIN MAKOWSKI, AND YURIKO AOKI,
          HIROTOSHI MORI AND EISAKU MIYOSHI
     PENNSYLVANIA STATE UNIVERSITY:
          TZVETELIN IORDANOV, CHET SWALINA, JONATHAN SKONE,
          SHARON HAMMES-SCHIFFER
     WASEDA UNIVERSITY:
          MASATO KOBAYASHI, TOMOKO AKAMA, TSUGUKI TOUMA,
          TAKESHI YOSHIKAWA, YASUHIRO IKABATA, JUNJI SEINO,
          YUYA NAKAJIMA, HIROMI NAKAI
     NANJING UNIVERSITY: SHUHUA LI
     UNIVERSITY OF NEBRASKA:
          PEIFENG SU, DEJUN SI, NANDUN THELLAMUREGE, YALI WANG, HUI LI
     UNIVERSITY OF ZURICH: ROBERTO PEVERATI, KIM BALDRIDGE
     N. COPERNICUS UNIVERSITY AND JACKSON STATE UNIVERSITY:
          MARIA BARYSZ
     UNIVERSITY OF COPENHAGEN: Jimmy Kromann, CASPER STEINMANN
     TOKYO INSTITUTE OF TECHNOLOGY: HIROYA NAKATA
     NAGOYA UNIVERSITY: YOSHIO NISHIMOTO, STEPHAN IRLE
     MOSCOW STATE UNIVERSITY: VLADIMIR MIRONOV

 EXECUTION OF GAMESS BEGUN Fri Jun  2 02:10:12 2017

            ECHO OF THE FIRST FEW INPUT CARDS -
 INPUT CARD>!  Bofill's 3rd transition state example.                                       
 INPUT CARD>!  J.M.Bofill  J.Comput.Chem. 15, 1-11(1994)                                    
 INPUT CARD>!  The paper cites 19 steps with his method, 36 using old Baker P-RFO.          
 INPUT CARD>!                                                                               
 INPUT CARD>!  The initial hessian eigenvalues are -.277659, 0.004725                       
 INPUT CARD>!      NSERCH:   0  E=     -115.6762236964  R.M.S.=  0.0375576                  
 INPUT CARD>!      NSERCH:   1  E=     -115.6928515791  R.M.S.=  0.0302936                  
 INPUT CARD>!           ...snipped...                                                       
 INPUT CARD>!      NSERCH:  12  E=     -115.7210037968  R.M.S.=  0.0000861                  
 INPUT CARD>!      NSERCH:  13  E=     -115.7210041025  R.M.S.=  0.0000268                  
 INPUT CARD>!                                                                               
 INPUT CARD>!  This run takes 2 seconds on a 2.66 GHz Cloverton (28 Apr 2015)               
 INPUT CARD>!  results unchanged by much since at least 2005                                
 INPUT CARD>!                                                                               
 INPUT CARD> $contrl scftyp=uhf mult=2 runtyp=sadpoint coord=zmt nzvar=18 $end              
 INPUT CARD> $system mwords=1 $end                                                          
 INPUT CARD> $statpt hess=read $end                                                         
 INPUT CARD> $basis  gbasis=n21 ngauss=3 $end                                               
 INPUT CARD> $guess  guess=huckel $end                                                      
 INPUT CARD> $data                                                                          
 INPUT CARD>ring opening of cyclopropyl radical                                             
 INPUT CARD>C1                                                                              
 INPUT CARD>C                                                                               
 INPUT CARD>C 1 rCCa                                                                        
 INPUT CARD>C 2 rCCb   1 aCCC                                                               
 INPUT CARD>H 1 rCH4   2 aH4CC  3 wH4CCC                                                    
 INPUT CARD>H 1 rCH5   2 aH5CC  3 wH5CCC                                                    
 INPUT CARD>H 3 rCH6   2 aH6CC  1 wH6CCC                                                    
 INPUT CARD>H 3 rCH7   2 aH7CC  1 wH7CCC                                                    
 INPUT CARD>H 2 rCH8   3 aH8CC  1 wH8CCC                                                    
 INPUT CARD>                                                                                
 INPUT CARD>rCCa=1.454                                                                      
 INPUT CARD>rCCb=1.454                                                                      
 INPUT CARD>aCCC=80.0                                                                       
 INPUT CARD>rCH4=1.106                                                                      
 INPUT CARD>rCH5=1.106                                                                      
 INPUT CARD>rCH6=1.106                                                                      
 INPUT CARD>rCH7=1.106                                                                      
 INPUT CARD>rCH8=1.064                                                                      
 INPUT CARD>aH4CC=119.6                                                                     
 INPUT CARD>aH5CC=119.6                                                                     
 INPUT CARD>aH6CC=119.6                                                                     
 INPUT CARD>aH7CC=119.6                                                                     
 INPUT CARD>aH8CC=148.5                                                                     
 INPUT CARD>wH4CCC=40.0                                                                     
 INPUT CARD>wH5CCC=-160.0                                                                   
 INPUT CARD>wH6CCC=108.0                                                                    
 INPUT CARD>wH7CCC=-108.0                                                                   
 INPUT CARD>wH8CCC=-170.0                                                                   
 INPUT CARD> $end                                                                           
    1000000 WORDS OF MEMORY AVAILABLE

     BASIS OPTIONS
     -------------
     GBASIS=N21          IGAUSS=       3      POLAR=NONE    
     NDFUNC=       0     NFFUNC=       0     DIFFSP=       F
     NPFUNC=       0      DIFFS=       F     BASNAM=        


     RUN TITLE
     ---------
 ring opening of cyclopropyl radical                                             

 THE POINT GROUP OF THE MOLECULE IS C1      
 THE ORDER OF THE PRINCIPAL AXIS IS     0

 YOUR FULLY SUBSTITUTED Z-MATRIX IS
 C   
 C      1   1.4540000
 C      2   1.4540000  1   80.0000
 H      1   1.1060000  2  119.6000  3   40.0000  0
 H      1   1.1060000  2  119.6000  3 -160.0000  0
 H      3   1.1060000  2  119.6000  1  108.0000  0
 H      3   1.1060000  2  119.6000  1 -108.0000  0
 H      2   1.0640000  3  148.5000  1 -170.0000  0

 THE MOMENTS OF INERTIA ARE (AMU-ANGSTROM**2)
 IXX=    17.652   IYY=    32.248   IZZ=    45.643

 ATOM      ATOMIC                      COORDINATES (BOHR)
           CHARGE         X                   Y                   Z
 C           6.0    -1.7354081962        0.7546630906        0.0416850239
 C           6.0    -0.0858061390       -1.4389868360       -0.0862104197
 C           6.0     1.7915784676        0.5617084247        0.0630869505
 H           1.0    -1.2307177215        2.4886079599       -1.0104447854
 H           1.0    -3.7267649384        0.5159805214        0.6297185070
 H           1.0     2.8903077198        0.8171913916        1.8225689495
 H           1.0     2.9236083351        1.0433245236       -1.6265309746
 H           1.0    -0.5035641838       -3.4051447332       -0.0363209558

          INTERNUCLEAR DISTANCES (ANGS.)
          ------------------------------

                1 C          2 C          3 C          4 H          5 H     

   1 C       0.0000000    1.4540000 *  1.8692264 *  1.1060000 *  1.1060000 *
   2 C       1.4540000 *  0.0000000    1.4540000 *  2.2194575 *  2.2194575 *
   3 C       1.8692264 *  1.4540000 *  0.0000000    1.9799778 *  2.9356356 *
   4 H       1.1060000 *  2.2194575 *  1.9799778 *  0.0000000    1.8941032 *
   5 H       1.1060000 *  2.2194575 *  2.9356356 *  1.8941032 *  0.0000000  
   6 H       2.6231773 *  2.2194575 *  1.1060000 *  2.7902474 *  3.5616133  
   7 H       2.6231773 *  2.2194575 *  1.1060000 *  2.3503353 *  3.7267087  
   8 H       2.2961370 *  1.0640000 *  2.4257733 *  3.1844861    2.7090493 *

                6 H          7 H          8 H     

   1 C       2.6231773 *  2.6231773 *  2.2961370 *
   2 C       2.2194575 *  2.2194575 *  1.0640000 *
   3 C       1.1060000 *  1.1060000 *  2.4257733 *
   4 H       2.7902474 *  2.3503353 *  3.1844861  
   5 H       3.5616133    3.7267087    2.7090493 *
   6 H       0.0000000    1.8291887 *  3.0307566  
   7 H       1.8291887 *  0.0000000    3.0884717  
   8 H       3.0307566    3.0884717    0.0000000  

  * ... LESS THAN  3.000


     ATOMIC BASIS SET
     ----------------
 THE CONTRACTED PRIMITIVE FUNCTIONS HAVE BEEN UNNORMALIZED
 THE CONTRACTED BASIS FUNCTIONS ARE NOW NORMALIZED TO UNITY

  SHELL TYPE  PRIMITIVE        EXPONENT          CONTRACTION COEFFICIENT(S)

 C         

      1   S       1           172.2560000    0.061766907377
      1   S       2            25.9109000    0.358794042852
      1   S       3             5.5333500    0.700713083689

      2   L       4             3.6649800   -0.395895162119    0.236459946619
      2   L       5             0.7705450    1.215834355681    0.860618805716

      3   L       6             0.1958570    1.000000000000    1.000000000000

 C         

      4   S       7           172.2560000    0.061766907377
      4   S       8            25.9109000    0.358794042852
      4   S       9             5.5333500    0.700713083689

      5   L      10             3.6649800   -0.395895162119    0.236459946619
      5   L      11             0.7705450    1.215834355681    0.860618805716

      6   L      12             0.1958570    1.000000000000    1.000000000000

 C         

      7   S      13           172.2560000    0.061766907377
      7   S      14            25.9109000    0.358794042852
      7   S      15             5.5333500    0.700713083689

      8   L      16             3.6649800   -0.395895162119    0.236459946619
      8   L      17             0.7705450    1.215834355681    0.860618805716

      9   L      18             0.1958570    1.000000000000    1.000000000000

 H         

     10   S      19             5.4471780    0.156284978695
     10   S      20             0.8245472    0.904690876670

     11   S      21             0.1831916    1.000000000000

 H         

     12   S      22             5.4471780    0.156284978695
     12   S      23             0.8245472    0.904690876670

     13   S      24             0.1831916    1.000000000000

 H         

     14   S      25             5.4471780    0.156284978695
     14   S      26             0.8245472    0.904690876670

     15   S      27             0.1831916    1.000000000000

 H         

     16   S      28             5.4471780    0.156284978695
     16   S      29             0.8245472    0.904690876670

     17   S      30             0.1831916    1.000000000000

 H         

     18   S      31             5.4471780    0.156284978695
     18   S      32             0.8245472    0.904690876670

     19   S      33             0.1831916    1.000000000000

 TOTAL NUMBER OF BASIS SET SHELLS             =   19
 NUMBER OF CARTESIAN GAUSSIAN BASIS FUNCTIONS =   37
 NUMBER OF ELECTRONS                          =   23
 CHARGE OF MOLECULE                           =    0
 SPIN MULTIPLICITY                            =    2
 NUMBER OF OCCUPIED ORBITALS (ALPHA)          =   12
 NUMBER OF OCCUPIED ORBITALS (BETA )          =   11
 TOTAL NUMBER OF ATOMS                        =    8
 THE NUCLEAR REPULSION ENERGY IS       66.3641518225

     $CONTRL OPTIONS
     ---------------
 SCFTYP=UHF          RUNTYP=SADPOINT     EXETYP=RUN     
 MPLEVL=       0     CITYP =NONE         CCTYP =NONE         VBTYP =NONE    
 DFTTYP=NONE         TDDFT =NONE    
 MULT  =       2     ICHARG=       0     NZVAR =      18     COORD =ZMT     
 PP    =NONE         RELWFN=NONE         LOCAL =NONE         NUMGRD=       F
 ISPHER=      -1     NOSYM =       0     MAXIT =      30     UNITS =ANGS    
 PLTORB=       F     MOLPLT=       F     AIMPAC=       F     FRIEND=        
 NPRINT=       7     IREST =       0     GEOM  =INPUT   
 NORMF =       0     NORMP =       0     ITOL  =      20     ICUT  =       9
 INTTYP=BEST         GRDTYP=BEST         QMTTOL= 1.0E-06

     $SYSTEM OPTIONS
     ---------------
  REPLICATED MEMORY=     1000000 WORDS (ON EVERY NODE).
 DISTRIBUTED MEMDDI=           0 MILLION WORDS IN AGGREGATE,
 MEMDDI DISTRIBUTED OVER   1 PROCESSORS IS           0 WORDS/PROCESSOR.
 TOTAL MEMORY REQUESTED ON EACH PROCESSOR=     1000000 WORDS.
 TIMLIM=      525600.00 MINUTES, OR     365.0 DAYS.
 PARALL= F  BALTYP=  DLB     KDIAG=    0  COREFL= F
 MXSEQ2=     300 MXSEQ3=     150  mem10=         0

          ----------------
          PROPERTIES INPUT
          ----------------

     MOMENTS            FIELD           POTENTIAL          DENSITY
 IEMOM =       1   IEFLD =       0   IEPOT =       0   IEDEN =       0
 WHERE =COMASS     WHERE =NUCLEI     WHERE =NUCLEI     WHERE =NUCLEI  
 OUTPUT=BOTH       OUTPUT=BOTH       OUTPUT=BOTH       OUTPUT=BOTH    
 IEMINT=       0   IEFINT=       0                     IEDINT=       0
                                                       MORB  =       0
          EXTRAPOLATION IN EFFECT
          SOSCF IN EFFECT
          DIIS or SOSCF will be reset if energy rises
 ORBITAL PRINTING OPTION: NPREO=     1    37     2     1

     -------------------------------
     INTEGRAL TRANSFORMATION OPTIONS
     -------------------------------
     NWORD  =            0
     CUTOFF = 1.0E-09     MPTRAN =       0
     DIRTRF =       F     AOINTS =DUP     

          ----------------------
          INTEGRAL INPUT OPTIONS
          ----------------------
 NOPK  =       1 NORDER=       0 SCHWRZ=       T

   --- ENCODED Z MATRIX ---
 COORD  TYPE   I   J   K   L   M   N
    1      1    2   1
    2      1    3   2
    3      2    3   2   1
    4      1    4   1
    5      2    4   1   2
    6      3    4   1   2   3
    7      1    5   1
    8      2    5   1   2
    9      3    5   1   2   3
   10      1    6   3
   11      2    6   3   2
   12      3    6   3   2   1
   13      1    7   3
   14      2    7   3   2
   15      3    7   3   2   1
   16      1    8   2
   17      2    8   2   3
   18      3    8   2   3   1

 THE DETERMINANT OF THE G MATRIX IS 10**(    -8)


                     --------------------
                     INTERNAL COORDINATES
                     --------------------

                 - - ATOMS - -         COORDINATE      COORDINATE
 NO.   TYPE    I  J  K  L  M  N        (BOHR,RAD)       (ANG,DEG)
 ----------------------------------------------------------------
   1 STRETCH   2  1                     2.7476616       1.4540000
   2 STRETCH   3  2                     2.7476616       1.4540000
   3 BEND      3  2  1                  1.3962634      80.0000000
   4 STRETCH   4  1                     2.0900369       1.1060000
   5 BEND      4  1  2                  2.0874138     119.6000000
   6 TORSION   4  1  2  3               0.6981317      40.0000000
   7 STRETCH   5  1                     2.0900369       1.1060000
   8 BEND      5  1  2                  2.0874138     119.6000000
   9 TORSION   5  1  2  3              -2.7925268    -160.0000000
  10 STRETCH   6  3                     2.0900369       1.1060000
  11 BEND      6  3  2                  2.0874138     119.6000000
  12 TORSION   6  3  2  1               1.8849556     108.0000000
  13 STRETCH   7  3                     2.0900369       1.1060000
  14 BEND      7  3  2                  2.0874138     119.6000000
  15 TORSION   7  3  2  1              -1.8849556    -108.0000000
  16 STRETCH   8  2                     2.0106685       1.0640000
  17 BEND      8  2  3                  2.5918139     148.5000000
  18 TORSION   8  2  3  1              -2.9670597    -170.0000000

     ------------------------------------------
     THE POINT GROUP IS C1 , NAXIS= 0, ORDER= 1
     ------------------------------------------

     DIMENSIONS OF THE SYMMETRY SUBSPACES ARE
 A   =   37

 ..... DONE SETTING UP THE RUN .....
 STEP CPU TIME =     0.02 TOTAL CPU TIME =        0.0 (    0.0 MIN)
 TOTAL WALL CLOCK TIME=        0.0 SECONDS, CPU UTILIZATION IS  66.67%


          -----------------------------
          STATIONARY POINT LOCATION RUN
          -----------------------------

 OBTAINING INITIAL HESSIAN, HESS=READ    

 $HESS GROUP READ FROM CARDS
 ENERGY IS     -115.6762237038 E(NUC) IS       66.3641518225                     

          PARAMETERS CONTROLLING GEOMETRY SEARCH ARE
          METHOD =QA                  UPHESS =POWELL  
          NNEG   =         1          NFRZ   =         0
          NSTEP  =        20          IFOLOW =         1
          HESS   =READ                RESTAR =         F
          IHREP  =         0          HSSEND =         F
          NPRT   =         0          NPUN   =         0
          OPTTOL = 1.000E-04          RMIN   = 1.500E-03
          RMAX   = 1.000E-01          RLIM   = 7.000E-02
          DXMAX  = 2.000E-01          PURIFY =         F
          MOVIE  =         F          TRUPD  =         T
          TRMAX  = 3.000E-01          TRMIN  = 5.000E-02
          ITBMAT =         5          STPT   =         F
          STSTEP = 1.000E-02          PROJCT=          T

 BEGINNING GEOMETRY SEARCH POINT NSERCH=   0 ...

 COORDINATES OF ALL ATOMS ARE (ANGS)
   ATOM   CHARGE       X              Y              Z
 ------------------------------------------------------------
 C           6.0  -0.9183385356   0.3993505384   0.0220587663
 C           6.0  -0.0454066566  -0.7614790956  -0.0456205928
 C           6.0   0.9480625653   0.2972433191   0.0333841789
 H           1.0  -0.6512678185   1.3169147147  -0.5347043920
 H           1.0  -1.9721192187   0.2730451530   0.3332327073
 H           1.0   1.5294850886   0.4324390927   0.9644620232
 H           1.0   1.5471070166   0.5521036015  -0.8607231869
 H           1.0  -0.2664747096  -1.8019251232  -0.0192202235


                     --------------------
                     INTERNAL COORDINATES
                     --------------------

                 - - ATOMS - -         COORDINATE      COORDINATE
 NO.   TYPE    I  J  K  L  M  N        (BOHR,RAD)       (ANG,DEG)
 ----------------------------------------------------------------
   1 STRETCH   2  1                     2.7476616       1.4540000
   2 STRETCH   3  2                     2.7476616       1.4540000
   3 BEND      3  2  1                  1.3962634      80.0000000
   4 STRETCH   4  1                     2.0900369       1.1060000
   5 BEND      4  1  2                  2.0874138     119.6000000
   6 TORSION   4  1  2  3               0.6981317      40.0000000
   7 STRETCH   5  1                     2.0900369       1.1060000
   8 BEND      5  1  2                  2.0874138     119.6000000
   9 TORSION   5  1  2  3              -2.7925268    -160.0000000
  10 STRETCH   6  3                     2.0900369       1.1060000
  11 BEND      6  3  2                  2.0874138     119.6000000
  12 TORSION   6  3  2  1               1.8849556     108.0000000
  13 STRETCH   7  3                     2.0900369       1.1060000
  14 BEND      7  3  2                  2.0874138     119.6000000
  15 TORSION   7  3  2  1              -1.8849556    -108.0000000
  16 STRETCH   8  2                     2.0106685       1.0640000
  17 BEND      8  2  3                  2.5918139     148.5000000
  18 TORSION   8  2  3  1              -2.9670597    -170.0000000

 THE CURRENT FULLY SUBSTITUTED Z-MATRIX IS
 C   
 C      1   1.4540000
 C      2   1.4540000  1    80.0000000
 H      1   1.1060000  2   119.6000000  3    40.0000000  0
 H      1   1.1060000  2   119.6000000  3  -160.0000000  0
 H      3   1.1060000  2   119.6000000  1   108.0000000  0
 H      3   1.1060000  2   119.6000000  1  -108.0000000  0
 H      2   1.0640000  3   148.5000000  1  -170.0000000  0

          ********************
          1 ELECTRON INTEGRALS
          ********************
 ...... END OF ONE-ELECTRON INTEGRALS ......
 STEP CPU TIME =     0.00 TOTAL CPU TIME =        0.0 (    0.0 MIN)
 TOTAL WALL CLOCK TIME=        0.0 SECONDS, CPU UTILIZATION IS  66.67%

          -------------
          GUESS OPTIONS
          -------------
          GUESS =HUCKEL            NORB  =       0          NORDER=       0
          MIX   =       F          PRTMO =       F          PUNMO =       F
          TOLZ  = 1.0E-08          TOLE  = 1.0E-05
          SYMDEN=       F          PURIFY=       F

 INITIAL GUESS ORBITALS GENERATED BY HUCKEL   ROUTINE.
 HUCKEL GUESS REQUIRES     17345 WORDS.

 SYMMETRIES FOR INITIAL GUESS ORBITALS FOLLOW.  ALPHA SET(S).
    12 ORBITALS ARE OCCUPIED (    3 CORE ORBITALS).
     4=A        5=A        6=A        7=A        8=A        9=A       10=A   
    11=A       12=A       13=A       14=A       15=A       16=A       17=A   
    18=A       19=A       20=A       21=A       22=A   

 SYMMETRIES FOR INITIAL GUESS ORBITALS FOLLOW.   BETA SET(S).
    11 ORBITALS ARE OCCUPIED (    3 CORE ORBITALS).
     4=A        5=A        6=A        7=A        8=A        9=A       10=A   
    11=A       12=A       13=A       14=A       15=A       16=A       17=A   
    18=A       19=A       20=A       21=A   
 ...... END OF INITIAL ORBITAL SELECTION ......
 STEP CPU TIME =     0.00 TOTAL CPU TIME =        0.0 (    0.0 MIN)
 TOTAL WALL CLOCK TIME=        0.0 SECONDS, CPU UTILIZATION IS  50.00%

                    ----------------------
                    AO INTEGRAL TECHNOLOGY
                    ----------------------
     S,P,L SHELL ROTATED AXIS INTEGRALS, REPROGRAMMED BY
        KAZUYA ISHIMURA (IMS) AND JOSE SIERRA (SYNSTAR).
     S,P,D,L SHELL ROTATED AXIS INTEGRALS PROGRAMMED BY
        KAZUYA ISHIMURA (INSTITUTE FOR MOLECULAR SCIENCE).
     S,P,D,F,G SHELL TO TOTAL QUARTET ANGULAR MOMENTUM SUM 5,
        ERIC PROGRAM BY GRAHAM FLETCHER (ELORET AND NASA ADVANCED
        SUPERCOMPUTING DIVISION, AMES RESEARCH CENTER).
     S,P,D,F,G,L SHELL GENERAL RYS QUADRATURE PROGRAMMED BY
        MICHEL DUPUIS (PACIFIC NORTHWEST NATIONAL LABORATORY).

          --------------------
          2 ELECTRON INTEGRALS
          --------------------

 THE -PK- OPTION IS OFF, THE INTEGRALS ARE NOT IN SUPERMATRIX FORM.
 STORING   15000 INTEGRALS/RECORD ON DISK, USING 12 BYTES/INTEGRAL.
 TWO ELECTRON INTEGRAL EVALUATION REQUIRES   89546 WORDS OF MEMORY.
 SCHWARZ INEQUALITY OVERHEAD:       703 INTEGRALS, T=        0.00
 II,JST,KST,LST =  1  1  1  1 NREC =         1 INTLOC =    1
 II,JST,KST,LST =  2  1  1  1 NREC =         1 INTLOC =    2
 II,JST,KST,LST =  3  1  1  1 NREC =         1 INTLOC =   34
 II,JST,KST,LST =  4  1  1  1 NREC =         1 INTLOC =  214
 II,JST,KST,LST =  5  1  1  1 NREC =         1 INTLOC =  664
 II,JST,KST,LST =  6  1  1  1 NREC =         1 INTLOC = 4552
 II,JST,KST,LST =  7  1  1  1 NREC =         1 INTLOC =12892
 II,JST,KST,LST =  8  1  1  1 NREC =         2 INTLOC =  921
 II,JST,KST,LST =  9  1  1  1 NREC =         3 INTLOC = 5628
 II,JST,KST,LST = 10  1  1  1 NREC =         5 INTLOC = 7980
 II,JST,KST,LST = 11  1  1  1 NREC =         6 INTLOC = 3837
 II,JST,KST,LST = 12  1  1  1 NREC =         7 INTLOC =  959
 II,JST,KST,LST = 13  1  1  1 NREC =         7 INTLOC =13679
 II,JST,KST,LST = 14  1  1  1 NREC =         8 INTLOC =13449
 II,JST,KST,LST = 15  1  1  1 NREC =         9 INTLOC =13671
 II,JST,KST,LST = 16  1  1  1 NREC =        11 INTLOC = 1449
 II,JST,KST,LST = 17  1  1  1 NREC =        12 INTLOC = 4668
 II,JST,KST,LST = 18  1  1  1 NREC =        13 INTLOC =10831
 II,JST,KST,LST = 19  1  1  1 NREC =        15 INTLOC = 2966
 SCHWARZ INEQUALITY TEST SKIPPED        1420 INTEGRAL BLOCKS.
 TOTAL NUMBER OF NONZERO TWO-ELECTRON INTEGRALS =              237979
         16 INTEGRAL RECORDS WERE STORED ON DISK FILE  8.
  ...... END OF TWO-ELECTRON INTEGRALS .....
 STEP CPU TIME =     0.04 TOTAL CPU TIME =        0.1 (    0.0 MIN)
 TOTAL WALL CLOCK TIME=        0.1 SECONDS, CPU UTILIZATION IS 100.00%

          ---------------------------
                  UHF SCF CALCULATION
          ---------------------------

     NUCLEAR ENERGY =        66.3641518225
     MAXIT = 30     NPUNCH=  2     MULT=  2
     EXTRAP=T  DAMP=F  SHIFT=F  RSTRCT=F  DIIS=F  SOSCF=T
     DENSITY MATRIX CONV=  1.00E-05
     SOSCF WILL OPTIMIZE     300 ALPHA AND     286 BETA ROTATION ANGLES.
     SOGTOL= 2.500E-01
     MEMORY REQUIRED FOR UHF/ROHF ITERS=     48384 WORDS.

 ITER EX      TOTAL ENERGY        E CHANGE  DENSITY CHANGE    ORB. GRAD 
   1  0     -115.3577205828  -115.3577205828   0.457154494   0.000000000
          ---------------START SECOND ORDER SCF---------------
   2  1     -115.6228668651    -0.2651462824   0.119699968   0.035565390
   3  2     -115.6450591402    -0.0221922751   0.168704391   0.022168597
   4  3     -115.6571626017    -0.0121034614   0.152297749   0.020504519
   5  4     -115.6665473657    -0.0093847640   0.084485592   0.018534489
   6  5     -115.6725498789    -0.0060025132   0.071179780   0.013594253
   7  6     -115.6756493130    -0.0030994342   0.022203180   0.003983846
   8  7     -115.6760915133    -0.0004422003   0.006572692   0.001979790
   9  8     -115.6761916243    -0.0001001110   0.006334349   0.000830057
  10  9     -115.6762185210    -0.0000268966   0.002510290   0.000356092
  11 10     -115.6762228060    -0.0000042850   0.000519472   0.000151312
  12 11     -115.6762235254    -0.0000007194   0.000346612   0.000074711
  13 12     -115.6762236607    -0.0000001353   0.000159200   0.000026119
  14 13     -115.6762236907    -0.0000000300   0.000064152   0.000013265
  15 14     -115.6762236956    -0.0000000049   0.000029900   0.000003632
  16 15     -115.6762236963    -0.0000000007   0.000009754   0.000001711
  17 16     -115.6762236964    -0.0000000001   0.000003508   0.000000642

          -----------------
          DENSITY CONVERGED
          -----------------
     TIME TO FORM FOCK OPERATORS=       0.1 SECONDS (       0.0 SEC/ITER)
     TIME TO SOLVE SCF EQUATIONS=       0.0 SECONDS (       0.0 SEC/ITER)

 FINAL UHF ENERGY IS     -115.6762236964 AFTER  17 ITERATIONS

          --------------------
          SPIN SZ   =    0.500
          S-SQUARED =    1.216
          --------------------

  ----- ALPHA SET ----- 

          ------------
          EIGENVECTORS
          ------------

                      1          2          3          4          5
                  -11.1882   -11.1879   -11.1775    -1.1180    -0.8591
                     A          A          A          A          A   
    1  C  1  S    0.004369  -0.009288   0.987246  -0.101808   0.111650
    2  C  1  S   -0.000324  -0.003221   0.096086   0.109062  -0.114355
    3  C  1  X   -0.000048   0.000177   0.001529   0.070138   0.027970
    4  C  1  Y   -0.000280   0.000471  -0.000218  -0.052630   0.055560
    5  C  1  Z    0.000078  -0.000091  -0.000331  -0.016399   0.010157
    6  C  1  S   -0.002244   0.025208  -0.063250   0.143646  -0.284978
    7  C  1  X    0.008319   0.010206  -0.008046   0.011505  -0.003184
    8  C  1  Y    0.003611  -0.011564   0.003371   0.022817   0.017140
    9  C  1  Z   -0.000487  -0.000065   0.002912  -0.015636   0.010796
   10  C  2  S   -0.478095   0.863196   0.010180  -0.156964   0.070257
   11  C  2  S   -0.048403   0.086336  -0.000126   0.163164  -0.068059
   12  C  2  X   -0.000123  -0.000205   0.000319   0.008024   0.143215
   13  C  2  Y   -0.001004   0.001987  -0.000213   0.104833   0.023267
   14  C  2  Z   -0.000201   0.000319   0.000160   0.008431  -0.004852
   15  C  2  S    0.044073  -0.059045   0.012315   0.384656  -0.271198
   16  C  2  X    0.008426   0.003811  -0.009080  -0.004371   0.035783
   17  C  2  Y    0.008940  -0.020780   0.002382   0.106799  -0.024500
   18  C  2  Z    0.001007  -0.001639  -0.001380   0.012943  -0.009836
   19  C  3  S    0.863331   0.478302  -0.000168  -0.137005  -0.160657
   20  C  3  S    0.087858   0.047305  -0.001784   0.143258   0.154455
   21  C  3  X   -0.001105  -0.000103  -0.000790  -0.084895   0.080892
   22  C  3  Y   -0.000937   0.000097   0.000414  -0.035798   0.028703
   23  C  3  Z   -0.000221  -0.000076  -0.000482  -0.003806   0.000604
   24  C  3  S   -0.068755  -0.014908   0.010710   0.290414   0.573227
   25  C  3  X    0.009471  -0.006115  -0.006407  -0.008509   0.010790
   26  C  3  Y    0.008892  -0.007368  -0.001653   0.012092  -0.014632
   27  C  3  Z    0.001349  -0.000133   0.002456  -0.009125   0.005358
   28  H  4  S   -0.000909  -0.001462  -0.000418   0.055255  -0.053229
   29  H  4  S    0.001913   0.003101   0.012536  -0.011324  -0.020387
   30  H  5  S    0.001313  -0.000851  -0.001581   0.035075  -0.096224
   31  H  5  S    0.004244   0.001321   0.009249   0.006684  -0.053702
   32  H  6  S   -0.000331  -0.001467  -0.001003   0.051065   0.121681
   33  H  6  S    0.009329   0.008341  -0.000183  -0.009136   0.040951
   34  H  7  S   -0.000156  -0.001316  -0.000180   0.051346   0.124830
   35  H  7  S    0.009824   0.008459   0.001212  -0.015324   0.049446
   36  H  8  S    0.000829  -0.003534  -0.001216   0.057626  -0.073029
   37  H  8  S   -0.004639   0.003395  -0.001354   0.028906  -0.036338

                      6          7          8          9         10
                   -0.7886    -0.6551    -0.6130    -0.5551    -0.4991
                     A          A          A          A          A   
    1  C  1  S    0.121595   0.035502  -0.009564   0.007211   0.006085
    2  C  1  S   -0.120098  -0.039007   0.011859  -0.012099  -0.000328
    3  C  1  X    0.031459   0.214737  -0.027289   0.105647  -0.166894
    4  C  1  Y   -0.109447  -0.038513  -0.122795   0.239845   0.164245
    5  C  1  Z    0.039637  -0.052718   0.107599  -0.102668   0.029416
    6  C  1  S   -0.390849  -0.153547  -0.008027   0.023724  -0.052027
    7  C  1  X   -0.014674   0.138482  -0.047742   0.123728  -0.178226
    8  C  1  Y   -0.036736  -0.002251  -0.082722   0.173152   0.125969
    9  C  1  Z    0.031343  -0.044899   0.083692  -0.092823   0.030062
   10  C  2  S   -0.129446  -0.011920   0.011637  -0.001929  -0.009927
   11  C  2  S    0.129508   0.012500  -0.013324   0.003457   0.006155
   12  C  2  X    0.026550   0.066065  -0.024297   0.057009   0.347112
   13  C  2  Y   -0.149450   0.255583   0.130883  -0.172933   0.003295
   14  C  2  Z    0.015159  -0.025534   0.178817   0.039336  -0.006762
   15  C  2  S    0.475376   0.042418  -0.030013  -0.020226   0.048477
   16  C  2  X    0.007012   0.059988  -0.001328   0.024131   0.264903
   17  C  2  Y   -0.042341   0.231633   0.138191  -0.194358   0.037085
   18  C  2  Z    0.007147  -0.018364   0.140044   0.037671  -0.007878
   19  C  3  S    0.020187   0.023217  -0.008900   0.010085  -0.006458
   20  C  3  S   -0.017337  -0.014338   0.010344  -0.012539   0.000829
   21  C  3  X    0.012921  -0.239255  -0.027319  -0.054083  -0.054930
   22  C  3  Y   -0.107909  -0.075394  -0.040976   0.048583  -0.311880
   23  C  3  Z    0.008571  -0.045093   0.293773   0.204226  -0.019287
   24  C  3  S   -0.110571  -0.161811   0.001397   0.016103   0.001656
   25  C  3  X    0.028273  -0.139186  -0.002824  -0.073739  -0.038631
   26  C  3  Y   -0.051120  -0.018333  -0.021408   0.032268  -0.268893
   27  C  3  Z    0.019285  -0.030061   0.259474   0.170474  -0.013019
   28  H  4  S   -0.161285  -0.011128  -0.114371   0.204036   0.042126
   29  H  4  S   -0.090611  -0.022654  -0.092319   0.188000   0.042423
   30  H  5  S   -0.102966  -0.173863   0.059266  -0.129950   0.126248
   31  H  5  S   -0.066596  -0.133933   0.044403  -0.110568   0.126999
   32  H  6  S   -0.012291  -0.115498   0.148083   0.091073  -0.054936
   33  H  6  S   -0.011092  -0.091455   0.098301   0.083225  -0.055226
   34  H  7  S   -0.026156  -0.082547  -0.156535  -0.137206  -0.057972
   35  H  7  S   -0.009200  -0.068937  -0.118383  -0.116870  -0.057786
   36  H  8  S    0.172426  -0.131876  -0.085145   0.111693  -0.035494
   37  H  8  S    0.089870  -0.060653  -0.042695   0.066523  -0.011367

                     11         12         13         14         15
                   -0.3766    -0.3048     0.1822     0.2883     0.3107
                     A          A          A          A          A   
    1  C  1  S    0.017558  -0.041317  -0.064021   0.066286  -0.034528
    2  C  1  S   -0.018903   0.043208   0.031093  -0.031822   0.013677
    3  C  1  X   -0.003949   0.112994   0.128494  -0.069028  -0.097760
    4  C  1  Y    0.068716  -0.004148   0.101300  -0.053574   0.008106
    5  C  1  Z    0.155822  -0.078134   0.287995   0.051818   0.018267
    6  C  1  S   -0.085506   0.183418   0.505075  -0.657744   0.602446
    7  C  1  X    0.002418   0.104757   0.232613  -0.267384  -0.324363
    8  C  1  Y    0.051935  -0.001141   0.271797  -0.275821   0.081320
    9  C  1  Z    0.170228  -0.085519   0.698948   0.252699   0.067025
   10  C  2  S    0.014558  -0.011696  -0.002201  -0.115765  -0.056474
   11  C  2  S   -0.010843   0.004730  -0.003541   0.042636   0.040539
   12  C  2  X    0.054095  -0.100090  -0.042552   0.046211  -0.015621
   13  C  2  Y   -0.076208   0.071123  -0.002868  -0.080517  -0.118762
   14  C  2  Z    0.354745   0.270149  -0.175729  -0.005750  -0.000499
   15  C  2  S   -0.110764   0.132191   0.068948   1.403059   0.844406
   16  C  2  X    0.043696  -0.087710  -0.045075   0.162323  -0.112158
   17  C  2  Y   -0.106306   0.115869   0.001190  -0.443860  -0.559277
   18  C  2  Z    0.439622   0.376801  -0.396842  -0.059512  -0.033594
   19  C  3  S   -0.024304   0.056503   0.046800   0.095597  -0.096223
   20  C  3  S    0.018275  -0.050148  -0.043002  -0.050442   0.019769
   21  C  3  X   -0.169380   0.290841   0.100520  -0.045954   0.155994
   22  C  3  Y    0.131676  -0.233972  -0.068077   0.078769   0.089232
   23  C  3  Z   -0.124514  -0.048863  -0.011967   0.031543   0.029925
   24  C  3  S    0.185838  -0.410327  -0.374804  -1.054585   1.501965
   25  C  3  X   -0.232975   0.426472   0.174232  -0.350384   0.535775
   26  C  3  Y    0.158265  -0.308489  -0.143915   0.263763   0.287427
   27  C  3  Z   -0.117524  -0.057258   0.048528   0.124594   0.156062
   28  H  4  S   -0.013495   0.126358  -0.006797   0.014897   0.005898
   29  H  4  S   -0.004135   0.200777  -0.117774   0.813502  -0.152530
   30  H  5  S    0.027480  -0.122343  -0.049422   0.004480  -0.019050
   31  H  5  S    0.045936  -0.215924  -0.276588  -0.065783  -0.683959
   32  H  6  S   -0.149303  -0.000005   0.003966   0.005996  -0.046110
   33  H  6  S   -0.196834   0.007469   0.112411   0.530467  -1.178862
   34  H  7  S    0.079838   0.097319   0.016927  -0.005071  -0.017878
   35  H  7  S    0.105912   0.168928   0.155456   0.715706  -0.889976
   36  H  8  S    0.057138  -0.049714   0.005261  -0.085630  -0.027037
   37  H  8  S    0.058538  -0.073414  -0.015408  -1.321402  -1.105973

                     16         17         18         19         20
                    0.3282     0.3540     0.3882     0.4292     0.4939
                     A          A          A          A          A   
    1  C  1  S   -0.130828  -0.035020   0.021847  -0.061301   0.060349
    2  C  1  S    0.043450   0.010160  -0.017981   0.014845   0.015883
    3  C  1  X   -0.089244   0.012542   0.242470   0.167504  -0.041807
    4  C  1  Y    0.065152   0.031254   0.157086  -0.187414   0.072218
    5  C  1  Z   -0.104678  -0.013894  -0.121269   0.001310  -0.013343
    6  C  1  S    1.716819   0.528519  -0.244296   0.755885  -1.500146
    7  C  1  X   -0.302326   0.206375   1.313427   0.939582  -0.933259
    8  C  1  Y    0.270133   0.163874   0.817399  -1.044857   1.278504
    9  C  1  Z   -0.398808  -0.097191  -0.608639   0.025602   0.021725
   10  C  2  S   -0.000726  -0.022544  -0.049625   0.019053  -0.134793
   11  C  2  S   -0.006444   0.013001   0.030326  -0.007904   0.012021
   12  C  2  X    0.109796   0.027756  -0.047682   0.195585   0.044041
   13  C  2  Y   -0.049583  -0.045488  -0.070937   0.048283   0.258836
   14  C  2  Z    0.039091   0.038794   0.011086  -0.011143   0.011438
   15  C  2  S    0.082321   0.318676   0.682339  -0.351435   2.594121
   16  C  2  X    0.473407   0.136873  -0.341961   1.567975   0.281318
   17  C  2  Y   -0.132179  -0.269138  -0.527784   0.125497   2.684511
   18  C  2  Z    0.068187   0.407543   0.109843  -0.045854   0.125834
   19  C  3  S    0.060488   0.020325   0.022671   0.068379   0.051613
   20  C  3  S   -0.017629  -0.010241  -0.007436  -0.032107   0.047518
   21  C  3  X   -0.071083   0.024107   0.048018   0.156559   0.073701
   22  C  3  Y    0.090335   0.069571   0.031584   0.121841   0.039268
   23  C  3  Z    0.059836  -0.310716   0.064099   0.050377  -0.016243
   24  C  3  S   -0.836675  -0.193375  -0.099648  -0.951523  -1.503210
   25  C  3  X   -0.308343   0.101288   0.319475   1.061773   1.171733
   26  C  3  Y    0.212056   0.229049  -0.098338   0.796359   1.223604
   27  C  3  Z    0.308426  -1.454951   0.227836   0.170630   0.118748
   28  H  4  S   -0.065041   0.011010   0.010557   0.010153  -0.048987
   29  H  4  S   -1.275239  -0.556348  -1.177249   0.479868  -0.198534
   30  H  5  S    0.007032   0.016312  -0.011294   0.025051  -0.030141
   31  H  5  S   -0.905294   0.011256   1.750984   0.539752  -0.098944
   32  H  6  S   -0.013019   0.026417  -0.008612  -0.034696   0.002940
   33  H  6  S    0.176679   1.461114  -0.327554  -0.462459  -0.272133
   34  H  7  S    0.055149  -0.022755   0.022672  -0.061586   0.018606
   35  H  7  S    0.849683  -1.401674   0.223844  -0.248309  -0.269686
   36  H  8  S    0.009203   0.003933   0.020487  -0.062513  -0.035115
   37  H  8  S   -0.080688  -0.417341  -0.909312   0.564291   1.393375

                     21         22         23         24         25
                    0.9391     0.9484     0.9688     0.9728     1.0256
                     A          A          A          A          A   
    1  C  1  S    0.009419  -0.021115  -0.006328   0.011937  -0.038434
    2  C  1  S   -0.064979   0.156022  -0.078943  -0.013491  -0.178630
    3  C  1  X    0.080651   0.128565  -0.412324  -0.008364   0.115120
    4  C  1  Y   -0.376637  -0.345348   0.186717   0.449891  -0.176304
    5  C  1  Z    0.104966   0.127640   0.029961   0.261769  -0.272098
    6  C  1  S    0.197586  -0.171216   0.470174  -0.046073   0.287443
    7  C  1  X   -0.132451  -0.067394   1.248207  -0.021390  -0.126901
    8  C  1  Y    0.682547   0.392206  -0.204074  -0.474343   0.146779
    9  C  1  Z   -0.155038  -0.134974  -0.071340   0.040446   0.286269
   10  C  2  S    0.009370   0.033987   0.008584  -0.033701   0.038006
   11  C  2  S   -0.057242   0.159034   0.021892  -0.040428  -0.203630
   12  C  2  X   -0.616446  -0.044466  -0.106627   0.190847   0.412233
   13  C  2  Y    0.091109  -0.213418   0.036016   0.096374  -0.084149
   14  C  2  Z    0.294458   0.457048   0.084340   0.754241   0.400359
   15  C  2  S    0.051328   0.214101   0.176012  -0.233140   0.199792
   16  C  2  X    0.421571   0.219381   0.119176  -0.230962  -0.500118
   17  C  2  Y   -0.089675   0.535793   0.004867  -0.222284  -0.300321
   18  C  2  Z   -0.257130  -0.365786   0.002100  -0.689385  -0.699686
   19  C  3  S   -0.015451  -0.003182  -0.011418   0.015824  -0.007951
   20  C  3  S   -0.004193   0.050726   0.029883  -0.041516  -0.045992
   21  C  3  X   -0.145514   0.071236  -0.765245   0.166768  -0.192138
   22  C  3  Y    0.561547  -0.581041  -0.119991   0.200163  -0.096094
   23  C  3  Z   -0.026275   0.050582   0.120040   0.169886  -0.433955
   24  C  3  S   -0.048119  -0.309463  -0.220180   0.183645   0.418219
   25  C  3  X    0.030829   0.068486   1.748526  -0.329059   0.306451
   26  C  3  Y   -0.667516   0.630306   0.285984  -0.187105  -0.040059
   27  C  3  Z    0.099491  -0.083627  -0.221655  -0.297330   0.920531
   28  H  4  S   -0.341536  -0.189448   0.102964   0.152383  -0.307021
   29  H  4  S    0.082292  -0.084944  -0.091489  -0.008753   0.247327
   30  H  5  S   -0.021233   0.229133   0.144309   0.018705  -0.553322
   31  H  5  S    0.021447  -0.090663   0.414655  -0.059277   0.227898
   32  H  6  S   -0.030310   0.152991  -0.285257   0.321317  -0.396453
   33  H  6  S    0.007016  -0.057208  -0.170847   0.012713  -0.171066
   34  H  7  S   -0.084639  -0.120152  -0.483786  -0.124515   0.038136
   35  H  7  S    0.108872  -0.002798  -0.208486   0.024363   0.135692
   36  H  8  S   -0.039327   0.606648   0.073764  -0.327467  -0.163866
   37  H  8  S    0.042969  -0.176788  -0.112841   0.150424  -0.171692

                     26         27         28         29         30
                    1.0540     1.1132     1.1769     1.2655     1.3125
                     A          A          A          A          A   
    1  C  1  S   -0.055482   0.004379   0.039000   0.006406  -0.012857
    2  C  1  S    0.027948   0.092510   0.014367   0.018169   0.023382
    3  C  1  X    0.211580  -0.183091  -0.052878  -0.124113   0.306234
    4  C  1  Y   -0.106596  -0.384627  -0.128329   0.198544   0.342682
    5  C  1  Z    0.589206  -0.682364   0.348288  -0.135889  -0.236344
    6  C  1  S   -0.215341  -0.393392   0.021395  -1.082692  -0.237115
    7  C  1  X   -0.066699   0.182072   0.571178   0.162433  -0.653928
    8  C  1  Y    0.431266   0.385110  -0.029022   0.014575  -0.759571
    9  C  1  Z   -0.615619   0.830212  -0.383135   0.101072   0.471710
   10  C  2  S    0.004251  -0.008346  -0.006709  -0.044969  -0.015617
   11  C  2  S    0.034809   0.160581   0.268265   0.059367   0.105643
   12  C  2  X    0.523832   0.357462   0.172357   0.117759  -0.344567
   13  C  2  Y   -0.304940  -0.069744   0.226399  -0.689405  -0.578431
   14  C  2  Z   -0.256635   0.136934   0.148697   0.031478   0.001847
   15  C  2  S    0.211877  -0.107468  -0.419515  -0.078224   0.140511
   16  C  2  X   -0.561560  -0.489943  -0.231480  -0.114336   1.005005
   17  C  2  Y    0.807506   0.418332  -0.347254   2.120258   1.574779
   18  C  2  Z    0.516011  -0.166261  -0.453055  -0.136930  -0.170658
   19  C  3  S    0.014823   0.023788   0.034252  -0.025195   0.023285
   20  C  3  S    0.054813   0.076409   0.002623   0.000092   0.030317
   21  C  3  X   -0.280251  -0.128276  -0.211596   0.397263  -0.500767
   22  C  3  Y    0.333325   0.376776   0.190708   0.341505  -0.138304
   23  C  3  Z    0.157086   0.306119  -0.482605  -0.212029  -0.349576
   24  C  3  S   -0.188424  -0.139423   0.148637  -0.884832  -0.655676
   25  C  3  X    0.625954   0.180991   0.284786   0.177032   0.831986
   26  C  3  Y   -0.348218  -0.499315  -0.349039  -0.335886   0.554400
   27  C  3  Z   -0.352780  -0.661244   1.296393   0.574883   0.589976
   28  H  4  S   -0.266683   0.273663   0.445438  -0.249124  -0.099622
   29  H  4  S    0.027294  -0.012768  -0.163778   0.528956   0.798706
   30  H  5  S   -0.249621   0.065417   0.457801   0.553489   0.061256
   31  H  5  S    0.223191  -0.016168   0.057427  -0.186279  -0.444537
   32  H  6  S    0.230733   0.356765  -0.139196  -0.464067   0.660148
   33  H  6  S   -0.131739   0.077326  -0.457671   0.136698  -0.968744
   34  H  7  S   -0.069873   0.115904   0.631155  -0.301482   0.315244
   35  H  7  S   -0.124852  -0.280489   0.037433   0.515217  -0.193231
   36  H  8  S    0.218447   0.224966   0.251487  -0.034609  -0.234199
   37  H  8  S    0.162777   0.083010  -0.288323   1.289794   1.123890

                     31         32         33         34         35
                    1.3272     1.3449     1.3791     1.4590     1.8029
                     A          A          A          A          A   
    1  C  1  S   -0.005136  -0.013539  -0.045254   0.003996   0.030452
    2  C  1  S    0.063463   0.024197   0.137984   0.027346  -1.434876
    3  C  1  X   -0.256181  -0.721075  -0.619101   0.270631  -0.108022
    4  C  1  Y    0.073893  -0.404501   0.466964   0.325149   0.049742
    5  C  1  Z   -0.061926   0.320135  -0.052811  -0.034712   0.025812
    6  C  1  S    0.082915  -0.400438  -0.261154  -0.297154   1.731323
    7  C  1  X    0.573076   1.019138   1.238614  -1.465979  -0.210600
    8  C  1  Y   -0.116315   0.613579  -0.784263  -1.037421  -0.018997
    9  C  1  Z   -0.109294  -0.504588  -0.000725   0.570369  -0.059555
   10  C  2  S    0.005035  -0.031607  -0.013726   0.008142   0.002492
   11  C  2  S    0.063909   0.003368   0.177671   0.178721  -0.559636
   12  C  2  X    0.089630  -0.168650  -0.096737  -0.263930  -0.050041
   13  C  2  Y    0.378107  -0.507433   0.135276  -0.119919  -0.179690
   14  C  2  Z   -0.119508   0.021009   0.058132   0.084506  -0.019590
   15  C  2  S   -0.353675   0.166858  -0.667687  -0.148239   0.442416
   16  C  2  X   -0.182986   0.347701   0.511468   1.102288   0.466938
   17  C  2  Y   -0.791833   1.073676   0.122885   1.516650   1.028312
   18  C  2  Z    0.064905   0.031189  -0.125239  -0.330506   0.096172
   19  C  3  S    0.012479   0.002997   0.052318  -0.047084   0.031195
   20  C  3  S   -0.010537   0.137129  -0.040045   0.457634  -0.832358
   21  C  3  X    0.164508   0.150618   0.075628   0.103149   0.092786
   22  C  3  Y    0.137177  -0.126773   0.073934   0.210033   0.021060
   23  C  3  Z   -0.743362  -0.125486   0.147795  -0.042561   0.049442
   24  C  3  S    0.168053  -1.001369  -0.550369  -1.213460   0.461883
   25  C  3  X   -0.225212   0.149287   0.357830  -0.214316   0.451597
   26  C  3  Y   -0.316941   0.253527  -0.090143   0.323781   0.296770
   27  C  3  Z    0.912727   0.256534   0.045109   0.235093  -0.145853
   28  H  4  S   -0.124880   0.433993  -0.685356   0.620816   0.149817
   29  H  4  S    0.083774  -0.866260   0.991968   0.312077  -0.629761
   30  H  5  S   -0.074493  -0.524648  -0.334440  -0.614408  -0.023753
   31  H  5  S    0.361327   1.225618   0.943776  -0.326705  -0.525642
   32  H  6  S    0.630937   0.163005  -0.031342  -0.289155   0.146341
   33  H  6  S   -0.956414  -0.166969   0.041832   0.373025  -0.424371
   34  H  7  S   -0.697728   0.043049   0.601492  -0.146053   0.050462
   35  H  7  S    1.148330   0.199410  -0.545038   0.407006  -0.475868
   36  H  8  S    0.313478  -0.388777   0.447824   0.679743   0.400232
   37  H  8  S   -0.626952   0.950318  -0.054650   0.538985   0.257408

                     36         37
                    1.9388     2.0172
                     A          A   
    1  C  1  S    0.011858   0.029356
    2  C  1  S    0.655704   1.083859
    3  C  1  X   -0.114825   0.127580
    4  C  1  Y    0.070630  -0.003807
    5  C  1  Z    0.011111  -0.012353
    6  C  1  S   -2.516884  -2.313452
    7  C  1  X   -0.198507  -1.402925
    8  C  1  Y    0.716309   0.146565
    9  C  1  Z    0.051803   0.249797
   10  C  2  S   -0.017702   0.002847
   11  C  2  S   -1.836036   0.054171
   12  C  2  X   -0.009248  -0.100317
   13  C  2  Y   -0.112550  -0.089104
   14  C  2  Z    0.006382   0.016204
   15  C  2  S    4.309381  -0.214982
   16  C  2  X    0.108964  -0.678316
   17  C  2  Y    1.891866   0.461414
   18  C  2  Z    0.044873  -0.117438
   19  C  3  S    0.013675  -0.042402
   20  C  3  S    0.358348  -1.728457
   21  C  3  X    0.002907  -0.018129
   22  C  3  Y    0.073716   0.081445
   23  C  3  Z   -0.049414  -0.017934
   24  C  3  S   -1.958845   3.438637
   25  C  3  X    0.731628  -0.620649
   26  C  3  Y    0.719091  -0.263922
   27  C  3  Z    0.245038   0.051573
   28  H  4  S    0.107320   0.323235
   29  H  4  S    0.209802   0.141912
   30  H  5  S    0.177391  -0.201563
   31  H  5  S    0.314198  -0.138728
   32  H  6  S    0.105478  -0.155955
   33  H  6  S   -0.158168  -0.498331
   34  H  7  S    0.173188  -0.128952
   35  H  7  S   -0.039794  -0.462608
   36  H  8  S    0.247937   0.067572
   37  H  8  S   -0.115220   0.235427

  ----- BETA SET ----- 

          ------------
          EIGENVECTORS
          ------------

                      1          2          3          4          5
                  -11.1967   -11.1677   -11.1666    -1.0747    -0.8416
                     A          A          A          A          A   
    1  C  1  S    0.986735   0.003577  -0.000951  -0.151524  -0.143559
    2  C  1  S    0.097721  -0.001186  -0.001826   0.159668   0.137531
    3  C  1  X    0.001547   0.000308   0.000145   0.076173  -0.086280
    4  C  1  Y   -0.000178   0.000431   0.000088  -0.046555   0.016116
    5  C  1  Z   -0.000177  -0.000125  -0.000014  -0.001466  -0.001118
    6  C  1  S   -0.062453   0.022237   0.011077   0.364025   0.514975
    7  C  1  X   -0.007845   0.004049   0.011851   0.034670   0.007168
    8  C  1  Y    0.003369  -0.011927  -0.003205   0.003053  -0.010756
    9  C  1  Z    0.002868   0.000199  -0.000305  -0.010946  -0.011305
   10  C  2  S   -0.003549   0.984937   0.069937  -0.134158   0.037224
   11  C  2  S   -0.001473   0.097131   0.006207   0.141889  -0.035749
   12  C  2  X    0.000402  -0.000032  -0.000157  -0.001459  -0.132721
   13  C  2  Y   -0.000332   0.002292   0.000264   0.112220  -0.009324
   14  C  2  Z    0.000133   0.000385   0.000015   0.007323  -0.004218
   15  C  2  S    0.012779  -0.075124   0.005953   0.255077  -0.134010
   16  C  2  X   -0.008932  -0.001645   0.009453   0.012757  -0.033528
   17  C  2  Y    0.002362  -0.023207  -0.002641   0.087803  -0.055630
   18  C  2  Z   -0.001406  -0.001956  -0.000046   0.009847  -0.001211
   19  C  3  S    0.000363  -0.069912   0.985022  -0.106400   0.147756
   20  C  3  S   -0.001670  -0.008198   0.097851   0.108802  -0.146498
   21  C  3  X   -0.000810   0.000350  -0.000743  -0.061162  -0.046865
   22  C  3  Y    0.000402   0.000490  -0.001006  -0.062072   0.054902
   23  C  3  Z   -0.000522   0.000053  -0.000247  -0.005470   0.002570
   24  C  3  S    0.010364   0.026196  -0.067045   0.192078  -0.418265
   25  C  3  X   -0.006254  -0.010682   0.004734  -0.000515  -0.011483
   26  C  3  Y   -0.001551  -0.011415   0.003831  -0.005884   0.026699
   27  C  3  Z    0.002615  -0.000881   0.001080  -0.008553  -0.000634
   28  H  4  S   -0.000658  -0.000758  -0.001408   0.071796   0.079263
   29  H  4  S    0.012449   0.001698   0.003427  -0.014665   0.024709
   30  H  5  S   -0.001768  -0.001470   0.000592   0.054959   0.123870
   31  H  5  S    0.009245  -0.001125   0.004043   0.004237   0.061569
   32  H  6  S   -0.001001  -0.001085  -0.000880   0.044751  -0.111933
   33  H  6  S   -0.000277   0.001884   0.012435  -0.000125  -0.045994
   34  H  7  S   -0.000156  -0.001048  -0.000660   0.044632  -0.109953
   35  H  7  S    0.001275   0.001698   0.012899  -0.003970  -0.045892
   36  H  8  S   -0.001173  -0.003197  -0.001125   0.053810  -0.017477
   37  H  8  S   -0.001485   0.005094  -0.001612   0.036895  -0.025495

                      6          7          8          9         10
                   -0.7462    -0.6370    -0.5807    -0.5388    -0.4640
                     A          A          A          A          A   
    1  C  1  S    0.052019   0.015262  -0.009024   0.000905   0.020906
    2  C  1  S   -0.050382  -0.016295   0.014514  -0.007364  -0.014394
    3  C  1  X    0.025366   0.244284  -0.052145   0.101521  -0.207897
    4  C  1  Y   -0.161736  -0.037823  -0.174232   0.258183   0.164634
    5  C  1  Z    0.017808  -0.049950   0.184212  -0.046656   0.105568
    6  C  1  S   -0.201375  -0.096234   0.000772   0.038912  -0.115645
    7  C  1  X    0.002529   0.201871  -0.082622   0.140471  -0.255893
    8  C  1  Y   -0.090539   0.000154  -0.135217   0.214667   0.139984
    9  C  1  Z    0.011127  -0.047692   0.174135  -0.044111   0.115374
   10  C  2  S   -0.143070  -0.009313   0.013213  -0.003196  -0.014838
   11  C  2  S    0.152025   0.010891  -0.015992   0.005532   0.016720
   12  C  2  X   -0.053248   0.051602  -0.021444   0.075478   0.331450
   13  C  2  Y   -0.125026   0.261129   0.139011  -0.133019  -0.005585
   14  C  2  Z    0.011116  -0.007750   0.070396   0.037815   0.015120
   15  C  2  S    0.421510   0.026771  -0.028211  -0.007725   0.080460
   16  C  2  X   -0.027815   0.046651   0.008207   0.031415   0.245826
   17  C  2  Y   -0.061565   0.210919   0.151377  -0.145578   0.012725
   18  C  2  Z    0.007470  -0.002362   0.031120   0.030113   0.009849
   19  C  3  S    0.072725   0.035915  -0.012017   0.012668  -0.020942
   20  C  3  S   -0.067919  -0.031187   0.016149  -0.017140   0.017397
   21  C  3  X   -0.080564  -0.205156  -0.010760  -0.037380  -0.132228
   22  C  3  Y   -0.071455  -0.102710  -0.038591  -0.018583  -0.233481
   23  C  3  Z    0.008256  -0.035431   0.243508   0.246411  -0.065383
   24  C  3  S   -0.229169  -0.193496   0.003251  -0.015852   0.123175
   25  C  3  X   -0.031518  -0.093758   0.009908  -0.038902  -0.135706
   26  C  3  Y   -0.033982  -0.051381  -0.017473  -0.030504  -0.189396
   27  C  3  Z    0.010543  -0.020446   0.225174   0.207298  -0.056371
   28  H  4  S   -0.109433   0.008639  -0.152935   0.159500  -0.006273
   29  H  4  S   -0.059440  -0.008453  -0.112566   0.130707  -0.006784
   30  H  5  S   -0.037654  -0.143453   0.080068  -0.090482   0.135615
   31  H  5  S   -0.019084  -0.081133   0.044700  -0.054420   0.112491
   32  H  6  S   -0.079148  -0.123367   0.146288   0.123109  -0.105206
   33  H  6  S   -0.053261  -0.107524   0.110541   0.118182  -0.122294
   34  H  7  S   -0.092012  -0.094926  -0.133770  -0.176810  -0.038746
   35  H  7  S   -0.059261  -0.081295  -0.113028  -0.159933  -0.053353
   36  H  8  S    0.214786  -0.153134  -0.108076   0.094813  -0.022733
   37  H  8  S    0.129729  -0.095925  -0.065123   0.066005  -0.014029

                     11         12         13         14         15
                   -0.3775     0.1576     0.1894     0.3061     0.3320
                     A          A          A          A          A   
    1  C  1  S   -0.015346  -0.024088  -0.080466   0.109482   0.008953
    2  C  1  S    0.010339   0.024298   0.040505  -0.049494  -0.005461
    3  C  1  X    0.164486  -0.008734   0.072113  -0.002187  -0.094960
    4  C  1  Y    0.109420  -0.038716   0.061243  -0.086048  -0.028058
    5  C  1  Z    0.388492  -0.071429   0.146060   0.096519   0.043326
    6  C  1  S    0.121804   0.162438   0.833055  -1.310242   0.094758
    7  C  1  X    0.233502  -0.135157   0.106827  -0.039824  -0.303300
    8  C  1  Y    0.119432  -0.144814   0.172628  -0.419617  -0.072884
    9  C  1  Z    0.481274  -0.096871   0.324178   0.404480   0.178920
   10  C  2  S    0.015749  -0.015280  -0.019249  -0.083037  -0.071035
   11  C  2  S   -0.014157   0.007522   0.011427   0.033122   0.045875
   12  C  2  X   -0.041278  -0.041067  -0.050259  -0.014069  -0.022395
   13  C  2  Y   -0.065926   0.011098  -0.006795  -0.030872  -0.122580
   14  C  2  Z    0.108459   0.279942  -0.196160  -0.045823  -0.014060
   15  C  2  S   -0.098496   0.146787   0.170397   0.853818   0.971490
   16  C  2  X   -0.033591  -0.046005  -0.064216  -0.070517  -0.164947
   17  C  2  Y   -0.079835  -0.059767  -0.183333  -0.334208  -0.599124
   18  C  2  Z    0.109848   0.580579  -0.454478  -0.158003  -0.078167
   19  C  3  S    0.006260   0.044378   0.069054   0.079169  -0.101581
   20  C  3  S   -0.012561  -0.022491  -0.042443  -0.041747   0.018353
   21  C  3  X   -0.021272   0.137896   0.189738  -0.061311   0.131145
   22  C  3  Y    0.102320  -0.139325  -0.142402  -0.001761   0.092169
   23  C  3  Z   -0.095030   0.010146  -0.028420  -0.004286   0.022680
   24  C  3  S   -0.027165  -0.281115  -0.418545  -0.840738   1.537231
   25  C  3  X   -0.033974   0.250701   0.364949  -0.384170   0.474233
   26  C  3  Y    0.101199  -0.325863  -0.402569  -0.009983   0.341464
   27  C  3  Z   -0.064667   0.110898  -0.108635  -0.076777   0.098538
   28  H  4  S   -0.023895   0.091349   0.003762   0.044619   0.016986
   29  H  4  S   -0.020280   0.342987  -0.202882   1.312130   0.279390
   30  H  5  S   -0.033084  -0.076963  -0.075896   0.010958  -0.012022
   31  H  5  S   -0.028648  -0.370122  -0.495467   0.410645  -0.489989
   32  H  6  S   -0.090906  -0.045296   0.053000   0.019123  -0.024679
   33  H  6  S   -0.114454  -0.165391   0.308695   0.717060  -1.091777
   34  H  7  S    0.086006   0.080009  -0.009123  -0.041101  -0.025077
   35  H  7  S    0.128558   0.361841  -0.004124   0.477882  -0.963201
   36  H  8  S    0.057425  -0.046870  -0.040757  -0.055007  -0.015252
   37  H  8  S    0.065785  -0.245346  -0.315271  -0.907394  -1.229714

                     16         17         18         19         20
                    0.3400     0.3820     0.3900     0.4364     0.5224
                     A          A          A          A          A   
    1  C  1  S   -0.075727   0.026835   0.026365  -0.064942   0.041834
    2  C  1  S    0.012495  -0.007548  -0.018984   0.008193   0.015590
    3  C  1  X   -0.121005  -0.052782   0.237260   0.170241  -0.002246
    4  C  1  Y    0.028514  -0.038522   0.143298  -0.190387   0.016206
    5  C  1  Z   -0.063688   0.056024  -0.108057   0.010820  -0.020507
    6  C  1  S    1.241890  -0.479597  -0.317896   0.934597  -1.283114
    7  C  1  X   -0.333709  -0.471054   1.202932   1.078659  -0.680916
    8  C  1  Y    0.066772  -0.177145   0.722635  -1.210810   1.155374
    9  C  1  Z   -0.210672   0.261282  -0.549263  -0.001336   0.028861
   10  C  2  S   -0.052663   0.026973  -0.048369   0.043004  -0.145594
   11  C  2  S    0.022827  -0.019293   0.027462  -0.012918   0.020319
   12  C  2  X    0.120754  -0.025639  -0.064449   0.186510   0.051319
   13  C  2  Y   -0.113637   0.068555  -0.070181  -0.010121   0.253476
   14  C  2  Z    0.023894  -0.075097   0.004491  -0.016656   0.008390
   15  C  2  S    0.666785  -0.337994   0.611929  -0.747287   2.695526
   16  C  2  X    0.487869  -0.109697  -0.439948   1.506246   0.522692
   17  C  2  Y   -0.528526   0.479991  -0.606064  -0.270893   2.589844
   18  C  2  Z    0.005330  -0.561617   0.028657  -0.095920   0.134635
   19  C  3  S    0.070758  -0.022115   0.018782   0.062087   0.078209
   20  C  3  S   -0.032982   0.010475  -0.008612  -0.029536   0.040085
   21  C  3  X   -0.110497  -0.024187   0.056924   0.136874   0.067749
   22  C  3  Y    0.140570  -0.073712   0.001524   0.104118   0.053087
   23  C  3  Z    0.072317   0.288367   0.116198   0.061954  -0.011880
   24  C  3  S   -0.896799   0.160996   0.027614  -0.746407  -1.789660
   25  C  3  X   -0.531418  -0.119882   0.270224   0.915357   1.433495
   26  C  3  Y    0.410456  -0.193004  -0.253231   0.539675   1.310840
   27  C  3  Z    0.373361   1.392274   0.482233   0.210447   0.118484
   28  H  4  S   -0.071445  -0.025515   0.006218   0.016089  -0.052145
   29  H  4  S   -0.788239   0.682237  -0.979334   0.541902  -0.152653
   30  H  5  S    0.016102  -0.018930  -0.012454   0.026330  -0.035348
   31  H  5  S   -0.802841  -0.364367   1.674752   0.592109   0.029832
   32  H  6  S   -0.028002   0.006742  -0.003798  -0.029022  -0.020746
   33  H  6  S    0.233745  -1.350072  -0.577520  -0.460403  -0.271019
   34  H  7  S    0.024951  -0.008388   0.023087  -0.066772  -0.004902
   35  H  7  S    0.978867   1.310688   0.485668  -0.141767  -0.275535
   36  H  8  S   -0.001239  -0.011992   0.015770  -0.065090  -0.043803
   37  H  8  S   -0.838980   0.644136  -0.971791   0.354540   1.275883

                     21         22         23         24         25
                    0.9488     0.9614     0.9757     1.0180     1.0547
                     A          A          A          A          A   
    1  C  1  S   -0.004497   0.002400  -0.025879   0.034165  -0.040810
    2  C  1  S    0.025977  -0.095430   0.147106  -0.068557  -0.243798
    3  C  1  X    0.217586  -0.330038  -0.125918  -0.363563   0.083806
    4  C  1  Y   -0.735837  -0.134769  -0.138389   0.183858  -0.010808
    5  C  1  Z   -0.126506  -0.830531   0.213440   0.119891   0.304552
    6  C  1  S   -0.028602   0.284437  -0.023752   0.412312   0.559320
    7  C  1  X   -0.490203   0.634029   0.697979   0.803926   0.189955
    8  C  1  Y    1.001608  -0.104458   0.158346  -0.096345   0.138398
    9  C  1  Z   -0.013854   0.848922  -0.306455  -0.180594  -0.450671
   10  C  2  S    0.039851   0.021675   0.035852  -0.019613   0.039803
   11  C  2  S    0.008057  -0.035377   0.170789  -0.026419  -0.221045
   12  C  2  X   -0.460357   0.006864   0.030048  -0.711192   0.173300
   13  C  2  Y   -0.080469   0.054465  -0.198500   0.254621  -0.087939
   14  C  2  Z    0.036206  -0.212268   0.119549   0.086714   0.115082
   15  C  2  S    0.132010  -0.048203   0.251289  -0.115981   0.218953
   16  C  2  X    0.336722  -0.031801   0.143307   0.559745  -0.286272
   17  C  2  Y    0.165462  -0.332013   0.602767  -0.428036  -0.282749
   18  C  2  Z   -0.060585  -0.113512   0.080760   0.070662  -0.180195
   19  C  3  S   -0.019396  -0.010390  -0.004826  -0.026163  -0.029408
   20  C  3  S    0.021225   0.001253   0.092015  -0.027897  -0.045845
   21  C  3  X    0.088351  -0.230719  -0.361817  -0.357540  -0.496877
   22  C  3  Y    0.143455  -0.223060  -0.599250   0.354207   0.043896
   23  C  3  Z   -0.122745  -0.142734   0.151965   0.186430  -0.353556
   24  C  3  S   -0.063679   0.069517  -0.469624  -0.037649   0.379849
   25  C  3  X   -0.406483   0.532094   1.082357   0.593047   0.854714
   26  C  3  Y   -0.317745   0.163242   0.713275  -0.237943  -0.072267
   27  C  3  Z    0.235496   0.257145  -0.309861  -0.356166   0.756645
   28  H  4  S   -0.389262   0.152626  -0.015399   0.078121  -0.444988
   29  H  4  S    0.018106   0.076335  -0.176207  -0.145086   0.138722
   30  H  5  S   -0.005749  -0.054484   0.295175   0.275689  -0.511546
   31  H  5  S   -0.124455   0.174534   0.212850   0.191649   0.395712
   32  H  6  S   -0.027695  -0.376687  -0.000672  -0.117338  -0.515281
   33  H  6  S    0.050084  -0.001501  -0.128501   0.025685  -0.213789
   34  H  7  S    0.122146  -0.009602  -0.327344  -0.360076  -0.196394
   35  H  7  S    0.117296  -0.074459  -0.150358  -0.051512   0.108924
   36  H  8  S    0.312914  -0.017417   0.636414  -0.205231  -0.177613
   37  H  8  S   -0.102658  -0.164144  -0.201686  -0.001820  -0.157956

                     26         27         28         29         30
                    1.0955     1.1339     1.1987     1.2814     1.3265
                     A          A          A          A          A   
    1  C  1  S   -0.004629   0.030751   0.034829   0.006013  -0.007925
    2  C  1  S   -0.037124  -0.025605   0.009580   0.030829   0.011319
    3  C  1  X   -0.038309   0.157846  -0.179083  -0.111277   0.412810
    4  C  1  Y   -0.053549   0.274020  -0.229687   0.224614   0.392218
    5  C  1  Z   -0.330424   0.104445   0.244938  -0.106070  -0.284493
    6  C  1  S    0.038536   0.274177   0.023176  -1.117862  -0.102670
    7  C  1  X   -0.001415  -0.352468   0.805189   0.132713  -0.745686
    8  C  1  Y    0.060951  -0.581933   0.164004  -0.020329  -0.842235
    9  C  1  Z    0.573827  -0.122616  -0.299893   0.090827   0.541502
   10  C  2  S    0.002529   0.006219  -0.006300  -0.048140  -0.006358
   11  C  2  S   -0.050965  -0.056003   0.247875   0.070439   0.127255
   12  C  2  X    0.151422  -0.470935   0.269297   0.118956  -0.264371
   13  C  2  Y    0.006193   0.207013   0.260535  -0.685442  -0.390492
   14  C  2  Z    1.018676   0.260815   0.246162   0.041009  -0.006786
   15  C  2  S   -0.044969  -0.038189  -0.431683  -0.059113   0.036106
   16  C  2  X   -0.246442   0.679242  -0.445728  -0.092185   0.816474
   17  C  2  Y   -0.158609  -0.619161  -0.466649   2.147778   1.176768
   18  C  2  Z   -0.942427  -0.454248  -0.513548  -0.149285  -0.179018
   19  C  3  S    0.005807  -0.010487   0.036880  -0.024832   0.025444
   20  C  3  S   -0.021861  -0.038879  -0.017758   0.004451  -0.024637
   21  C  3  X    0.053817   0.363567  -0.255500   0.400594  -0.601098
   22  C  3  Y    0.052746  -0.627198   0.314795   0.351462  -0.017579
   23  C  3  Z    0.068995  -0.412969  -0.401753  -0.222292  -0.376353
   24  C  3  S    0.163704   0.100287   0.231948  -0.897644  -0.326959
   25  C  3  X   -0.116518  -0.619879   0.339095   0.188377   0.851937
   26  C  3  Y   -0.133611   0.683249  -0.532074  -0.331730   0.364755
   27  C  3  Z   -0.204381   0.939952   1.128687   0.603140   0.607333
   28  H  4  S   -0.051005   0.036932   0.461245  -0.268794  -0.188437
   29  H  4  S    0.069592   0.071428  -0.257625   0.573669   0.963974
   30  H  5  S   -0.106295   0.194901   0.401159   0.555199   0.196701
   31  H  5  S   -0.016261  -0.301394   0.216521  -0.186447  -0.664469
   32  H  6  S    0.211822  -0.333897  -0.115212  -0.454509   0.644960
   33  H  6  S    0.016827  -0.044022  -0.411327   0.117052  -1.003249
   34  H  7  S   -0.189315   0.146250   0.584988  -0.279781   0.271674
   35  H  7  S    0.018571   0.283966   0.004513   0.504701  -0.181554
   36  H  8  S   -0.111042  -0.153685   0.239513  -0.002296  -0.060202
   37  H  8  S   -0.009855  -0.163163  -0.360059   1.273920   0.760793

                     31         32         33         34         35
                    1.3394     1.3491     1.3820     1.4757     1.7951
                     A          A          A          A          A   
    1  C  1  S   -0.014528  -0.015717  -0.041358   0.006852   0.023429
    2  C  1  S    0.088478   0.026387   0.142343  -0.009897  -1.587971
    3  C  1  X   -0.495489  -0.543023  -0.497595   0.240453  -0.122858
    4  C  1  Y    0.028807  -0.280638   0.474282   0.266277   0.045463
    5  C  1  Z    0.060150   0.247010  -0.055022  -0.038481   0.047650
    6  C  1  S   -0.088529  -0.498107  -0.281476  -0.275488   2.199885
    7  C  1  X    0.951068   0.736087   1.005782  -1.455806   0.022991
    8  C  1  Y   -0.040660   0.427059  -0.817268  -0.950334  -0.081105
    9  C  1  Z   -0.287196  -0.346585   0.057619   0.565618  -0.125063
   10  C  2  S   -0.006587  -0.039332  -0.010552   0.007330   0.002908
   11  C  2  S    0.064114   0.010932   0.152944   0.160736  -0.396109
   12  C  2  X    0.011123  -0.257853  -0.108112  -0.269593  -0.032535
   13  C  2  Y    0.234677  -0.724651   0.155863  -0.154274  -0.153031
   14  C  2  Z   -0.125469   0.062620   0.089200   0.103935  -0.025539
   15  C  2  S   -0.320609   0.297759  -0.574620  -0.111318   0.069974
   16  C  2  X    0.019678   0.578989   0.539266   1.092687   0.513291
   17  C  2  Y   -0.426620   1.553661   0.143464   1.602416   0.769785
   18  C  2  Z    0.086387  -0.028933  -0.151810  -0.347694   0.120965
   19  C  3  S    0.020024   0.011164   0.049906  -0.048473   0.038284
   20  C  3  S    0.033593   0.112057  -0.017053   0.423568  -0.684286
   21  C  3  X    0.251975  -0.011487   0.071542   0.067909   0.117769
   22  C  3  Y    0.064359  -0.222920   0.058534   0.246577  -0.025357
   23  C  3  Z   -0.742519   0.012386   0.245784  -0.046771   0.060091
   24  C  3  S   -0.235978  -1.118001  -0.560588  -1.171410   0.258391
   25  C  3  X   -0.171652   0.408596   0.318181  -0.173071   0.445210
   26  C  3  Y   -0.191701   0.457402  -0.046916   0.311256   0.264887
   27  C  3  Z    0.947659   0.127752  -0.074266   0.245293  -0.186425
   28  H  4  S   -0.102723   0.335161  -0.690020   0.695853   0.084711
   29  H  4  S   -0.037736  -0.578327   1.041908   0.210709  -0.673555
   30  H  5  S   -0.279906  -0.429043  -0.328134  -0.633963   0.001083
   31  H  5  S    0.816157   0.978534   0.807609  -0.313579  -0.510809
   32  H  6  S    0.629515   0.147647  -0.119006  -0.261905   0.159266
   33  H  6  S   -0.921513  -0.135403   0.191865   0.320188  -0.347995
   34  H  7  S   -0.567723   0.350042   0.662691  -0.138549   0.053315
   35  H  7  S    1.080490  -0.218517  -0.647702   0.384742  -0.424437
   36  H  8  S    0.226790  -0.528315   0.470857   0.648105   0.353542
   37  H  8  S   -0.327965   1.310259  -0.082506   0.604404   0.232585

                     36         37
                    1.9692     2.0351
                     A          A   
    1  C  1  S    0.019698   0.028964
    2  C  1  S    0.657584   0.823557
    3  C  1  X   -0.097712   0.126003
    4  C  1  Y    0.072274  -0.013978
    5  C  1  Z    0.006588  -0.017304
    6  C  1  S   -2.643925  -1.683385
    7  C  1  X   -0.458311  -1.332332
    8  C  1  Y    0.733455   0.028953
    9  C  1  Z    0.087947   0.227488
   10  C  2  S   -0.016231   0.005741
   11  C  2  S   -1.862556   0.308812
   12  C  2  X   -0.021058  -0.098569
   13  C  2  Y   -0.142005  -0.076147
   14  C  2  Z    0.009294   0.015271
   15  C  2  S    4.246450  -0.889672
   16  C  2  X    0.033317  -0.646874
   17  C  2  Y    2.018949   0.192675
   18  C  2  Z    0.032487  -0.115312
   19  C  3  S    0.010533  -0.038536
   20  C  3  S   -0.017624  -1.840648
   21  C  3  X    0.009284   0.010704
   22  C  3  Y    0.087316   0.046830
   23  C  3  Z   -0.046427  -0.007367
   24  C  3  S   -1.308988   3.743994
   25  C  3  X    0.652213  -0.698254
   26  C  3  Y    0.689735  -0.344653
   27  C  3  Z    0.231506   0.000060
   28  H  4  S    0.173209   0.300148
   29  H  4  S    0.155180   0.049014
   30  H  5  S    0.135679  -0.230378
   31  H  5  S    0.220920  -0.221712
   32  H  6  S    0.090981  -0.159910
   33  H  6  S   -0.273417  -0.496983
   34  H  7  S    0.150622  -0.151173
   35  H  7  S   -0.157579  -0.485791
   36  H  8  S    0.276156   0.053555
   37  H  8  S   -0.046313   0.254837
 ...... END OF UHF CALCULATION ......
 STEP CPU TIME =     0.07 TOTAL CPU TIME =        0.1 (    0.0 MIN)
 TOTAL WALL CLOCK TIME=        0.1 SECONDS, CPU UTILIZATION IS  92.86%

     ----------------------------------------------------------------
     PROPERTY VALUES FOR THE UHF   SELF-CONSISTENT FIELD WAVEFUNCTION
     ----------------------------------------------------------------

          -----------------
          ENERGY COMPONENTS
          -----------------

         WAVEFUNCTION NORMALIZATION =       1.0000000000

                ONE ELECTRON ENERGY =    -285.9662668364
                TWO ELECTRON ENERGY =     103.9258913175
           NUCLEAR REPULSION ENERGY =      66.3641518225
                                      ------------------
                       TOTAL ENERGY =    -115.6762236964

 ELECTRON-ELECTRON POTENTIAL ENERGY =     103.9258913175
  NUCLEUS-ELECTRON POTENTIAL ENERGY =    -401.4132084109
   NUCLEUS-NUCLEUS POTENTIAL ENERGY =      66.3641518225
                                      ------------------
             TOTAL POTENTIAL ENERGY =    -231.1231652709
               TOTAL KINETIC ENERGY =     115.4469415745
                 VIRIAL RATIO (V/T) =       2.0019860389

          ---------------------------------------
          MULLIKEN AND LOWDIN POPULATION ANALYSES
          ---------------------------------------

     ATOMIC MULLIKEN POPULATION IN EACH MOLECULAR ORBITAL
        ALPHA ORBITALS

                      1          2          3          4          5

                  1.000000   1.000000   1.000000   1.000000   1.000000

    1             0.000360   0.003492   0.995610   0.160278   0.191262
    2             0.235667   0.759219   0.001686   0.484026   0.145030
    3             0.762229   0.236095   0.000644   0.316302   0.440351
    4             0.000022   0.000052   0.001209   0.005299   0.011454
    5            -0.000015   0.000011   0.000860   0.005303   0.047586
    6             0.000748   0.000450  -0.000001   0.005294   0.066495
    7             0.000791   0.000459   0.000004   0.003211   0.072537
    8             0.000198   0.000221  -0.000013   0.020287   0.025284

                      6          7          8          9         10

                  1.000000   1.000000   1.000000   1.000000   1.000000

    1             0.294229   0.223460   0.115867   0.297083   0.191267
    2             0.334364   0.239479   0.198480   0.116837   0.365586
    3             0.061063   0.225998   0.382417   0.179477   0.336788
    4             0.121361   0.001832   0.059052   0.174426   0.005820
    5             0.053520   0.140314   0.014789   0.070297   0.068105
    6             0.000939   0.066364   0.092268   0.037794   0.013538
    7             0.002984   0.034805   0.109941   0.078200   0.014942
    8             0.131539   0.067749   0.027186   0.045886   0.003954

                     11         12

                  1.000000   1.000000

    1             0.150754   0.051757
    2             0.505046   0.284256
    3             0.209963   0.484145
    4             0.000266   0.053630
    5             0.003763   0.068734
    6             0.093851   0.000169
    7             0.024572   0.046591
    8             0.011785   0.010718

     ATOMIC MULLIKEN POPULATION IN EACH MOLECULAR ORBITAL
         BETA ORBITALS

                      1          2          3          4          5

                  1.000000   1.000000   1.000000   1.000000   1.000000

    1             0.995754   0.002629   0.001124   0.410609   0.344869
    2             0.001573   0.988969   0.006052   0.344027   0.083932
    3             0.000618   0.007962   0.990340   0.192999   0.349470
    4             0.001203   0.000015   0.000064   0.010641   0.028192
    5             0.000861  -0.000012   0.000007   0.011668   0.077330
    6            -0.000001   0.000007   0.001193   0.005967   0.057741
    7             0.000004   0.000007   0.001244   0.004950   0.056144
    8            -0.000011   0.000423  -0.000023   0.019138   0.002323

                      6          7          8          9         10

                  1.000000   1.000000   1.000000   1.000000   1.000000

    1             0.150206   0.246826   0.268709   0.286582   0.274916
    2             0.380052   0.238160   0.101357   0.088633   0.338614
    3             0.129932   0.205672   0.281549   0.248227   0.249736
    4             0.056539   0.000421   0.104605   0.106947   0.000313
    5             0.006433   0.089311   0.025367   0.031823   0.075814
    6             0.031991   0.077652   0.091439   0.069292   0.051014
    7             0.042463   0.046478   0.083021   0.134980   0.007979
    8             0.202385   0.095480   0.043953   0.033516   0.001614

                     11

                  1.000000

    1             0.762054
    2             0.084478
    3             0.071293
    4             0.001801
    5             0.004222
    6             0.031985
    7             0.032509
    8             0.011658

     ATOMIC SPIN POPULATION (ALPHA MINUS BETA)
       ATOM         MULL.POP.                    LOW.POP.
    1 C            -1.068855                    -0.801062
    2 C             1.013830                     0.858410
    3 C             0.907668                     0.800747
    4 H             0.123680                     0.090869
    5 H             0.150444                     0.098161
    6 H            -0.040367                    -0.012565
    7 H            -0.020739                     0.000645
    8 H            -0.065661                    -0.035204


          ********* ALL ELECTRONS ********

               ----- POPULATIONS IN EACH AO -----
                             MULLIKEN      LOWDIN
              1  C  1  S      1.98730     1.97684
              2  C  1  S      0.37307     0.42628
              3  C  1  X      0.50678     0.47848
              4  C  1  Y      0.55272     0.52484
              5  C  1  Z      0.46793     0.46097
              6  C  1  S      1.01020     0.60057
[...]
                     A          A          A          A          A   
    1  C  1  S   -0.012930   0.001860  -0.063768  -0.111929  -0.029595
    2  C  1  S    0.001482  -0.021402   0.051175   0.039952   0.021715
    3  C  1  X    0.319054   0.081820   0.184400  -0.091574   0.073478
    4  C  1  Y    0.195318   0.092420   0.053266   0.075890   0.014282
    5  C  1  Z    0.150475   0.051710   0.090004  -0.008043  -0.141428
    6  C  1  S    0.124624   0.160117   0.548279   1.597600   0.209285
    7  C  1  X    0.438535   0.302467   0.420593  -0.411520   0.256725
    8  C  1  Y    0.240042   0.150276   0.112451   0.409662   0.032952
    9  C  1  Z    0.213862  -0.038863   0.243933  -0.093975  -0.550421
   10  C  2  S    0.025853  -0.047325  -0.007660   0.007320   0.111727
   11  C  2  S   -0.022087   0.041975   0.000410   0.001633  -0.043199
   12  C  2  X   -0.086183  -0.009625  -0.086785   0.017966   0.000735
   13  C  2  Y   -0.070750  -0.079740   0.002826  -0.063482   0.144737
   14  C  2  Z    0.104810  -0.316105   0.009318   0.008188  -0.043971
   15  C  2  S   -0.142416   0.111875   0.097417   0.131927  -1.374962
   16  C  2  X   -0.071466  -0.017373  -0.015119   0.034964   0.068927
   17  C  2  Y   -0.083112  -0.300597  -0.055829  -0.244607   0.633363
   18  C  2  Z    0.111839  -0.632360   0.037429   0.084277  -0.140783
   19  C  3  S    0.029222   0.021924   0.054392  -0.085513  -0.022666
   20  C  3  S   -0.036256  -0.029979  -0.024251   0.029780   0.019694
   21  C  3  X   -0.031824   0.021290   0.282370   0.041351   0.022356
   22  C  3  Y    0.179338   0.063494  -0.200848   0.059575  -0.022217
   23  C  3  Z    0.002051   0.004019  -0.034969   0.007570  -0.112607
   24  C  3  S   -0.124757  -0.024395  -0.443241   1.145563   0.140858
   25  C  3  X   -0.047763  -0.015491   0.692346   0.267037   0.164792
   26  C  3  Y    0.194646   0.075800  -0.485575   0.284688  -0.097901
   27  C  3  Z    0.017475  -0.178939  -0.087110   0.050440  -0.406644
   28  H  4  S    0.001307  -0.077866   0.043353  -0.036057  -0.006785
   29  H  4  S    0.010231  -0.309608   0.007581  -1.161176  -0.733947
   30  H  5  S   -0.054088   0.063267  -0.019146  -0.032120   0.019914
   31  H  5  S   -0.073493   0.299333  -0.275203  -1.037612   0.630632
   32  H  6  S   -0.037818   0.067839  -0.003117  -0.025208   0.004732
   33  H  6  S   -0.038889   0.352382   0.084656  -0.771131   0.347360
   34  H  7  S    0.031512  -0.076639   0.007007   0.002453  -0.006003
   35  H  7  S    0.054883  -0.282090   0.119288  -0.748661  -0.573443
   36  H  8  S    0.096136  -0.015836  -0.035806   0.021191   0.047386
   37  H  8  S    0.118418  -0.010969  -0.186066  -0.251813   1.536527

                     16         17         18         19         20
                    0.3470     0.3869     0.4010     0.4512     0.5231
                     A          A          A          A          A   
    1  C  1  S    0.089124   0.004690  -0.020538  -0.059678   0.054657
    2  C  1  S   -0.026356  -0.005510  -0.008983   0.020660   0.031069
    3  C  1  X    0.105209  -0.086144   0.007308   0.058572  -0.066408
    4  C  1  Y   -0.027985  -0.067425  -0.037346  -0.183695   0.036779
    5  C  1  Z   -0.005185   0.233571   0.088050   0.019239   0.067017
    6  C  1  S   -1.265754  -0.028193   0.364916   0.882130  -1.400719
    7  C  1  X    0.313964  -0.464452   0.080935   0.627026  -1.130104
    8  C  1  Y   -0.099788  -0.444767  -0.486147  -1.090800   1.204695
    9  C  1  Z   -0.061602   1.229154   0.453176   0.038043   0.464331
   10  C  2  S   -0.013720   0.050572   0.089387  -0.002097  -0.133436
   11  C  2  S    0.002575  -0.015972  -0.018138   0.005859   0.019970
   12  C  2  X   -0.097031  -0.023203   0.008837   0.242836   0.006611
   13  C  2  Y   -0.010601   0.021906   0.043807  -0.005080   0.274361
   14  C  2  Z    0.006878  -0.049779  -0.120309   0.004640  -0.057930
   15  C  2  S    0.256955  -0.736371  -1.524236  -0.082236   2.482822
   16  C  2  X   -0.336611  -0.172336   0.069000   1.690942   0.030167
   17  C  2  Y   -0.045294   0.117327   0.093818  -0.081125   2.287568
   18  C  2  Z    0.075330  -0.348122  -0.899514   0.026747  -0.170180
   19  C  3  S   -0.121699  -0.043770  -0.030751   0.063160   0.049198
   20  C  3  S    0.042075   0.003024  -0.010047  -0.021249   0.024268
   21  C  3  X    0.131799  -0.020293  -0.012478   0.108869   0.051396
   22  C  3  Y    0.027560   0.002294  -0.061881   0.172873   0.035548
   23  C  3  Z    0.027833  -0.165224   0.242617   0.016356   0.052668
   24  C  3  S    1.658858   0.573779   0.486744  -0.826650  -1.100118
   25  C  3  X    0.515006  -0.240291  -0.231803   0.874868   1.018322
   26  C  3  Y    0.223988  -0.000372  -0.513913   0.968177   0.840371
   27  C  3  Z    0.058938  -0.837155   1.297289   0.117059   0.472863
   28  H  4  S    0.035829   0.005103  -0.036862   0.026659  -0.043824
   29  H  4  S    0.702900   1.321541   0.515311   0.521195   0.025922
   30  H  5  S    0.011635  -0.014443   0.007523   0.050209   0.026439
   31  H  5  S    0.895255  -1.375475  -0.424786   0.095220  -0.619970
   32  H  6  S   -0.006623   0.014853   0.014060  -0.038071   0.017761
   33  H  6  S   -1.131355   0.740226  -1.398068  -0.216815  -0.464978
   34  H  7  S   -0.028110  -0.020669  -0.031344  -0.043551  -0.025892
   35  H  7  S   -1.111929  -0.960813   1.229434  -0.450603  -0.014630
   36  H  8  S    0.000392  -0.021360  -0.058435  -0.001586   0.017614
   37  H  8  S   -0.227176   0.580658   1.156759   0.090577   1.066403

                     21         22
                    0.9149     0.9254
                     A          A   
    1  C  1  S   -0.006098   0.012975
    2  C  1  S    0.102253  -0.107058
    3  C  1  X   -0.289504  -0.593472
    4  C  1  Y    0.018752   0.098679
    5  C  1  Z    0.272569  -0.297791
    6  C  1  S   -0.188356   0.181401
    7  C  1  X    0.636482   1.010542
    8  C  1  Y   -0.115228  -0.325823
    9  C  1  Z   -0.553635   0.412597
   10  C  2  S    0.018882  -0.009462
   11  C  2  S    0.051308  -0.038824
   12  C  2  X   -0.101050   0.067883
   13  C  2  Y   -0.258236   0.078824
   14  C  2  Z    0.189241  -0.113757
   15  C  2  S   -0.145825   0.106298
   16  C  2  X    0.089005  -0.077661
   17  C  2  Y    0.512750  -0.190767
   18  C  2  Z    0.035463  -0.009442
   19  C  3  S   -0.015463  -0.013077
   20  C  3  S    0.108023   0.021184
   21  C  3  X   -0.228937  -0.472696
   22  C  3  Y   -0.146401  -0.167746
   23  C  3  Z    0.293470  -0.134121
   24  C  3  S   -0.331152  -0.008108
   25  C  3  X    0.472427   0.985194
   26  C  3  Y    0.177373   0.337663
   27  C  3  Z   -0.599655   0.284723
   28  H  4  S   -0.059881   0.324705
   29  H  4  S   -0.063011   0.084807
   30  H  5  S    0.510062   0.038465
   31  H  5  S    0.085999   0.120406
   32  H  6  S    0.255161  -0.426350
   33  H  6  S    0.032064  -0.072063
   34  H  7  S   -0.354813  -0.213419
   35  H  7  S   -0.064119  -0.054195
   36  H  8  S    0.509041  -0.202924
   37  H  8  S   -0.114056   0.042878

     ----------------------------------------------------------------
     PROPERTY VALUES FOR THE UHF   SELF-CONSISTENT FIELD WAVEFUNCTION
     ----------------------------------------------------------------

          -----------------
          ENERGY COMPONENTS
          -----------------

         WAVEFUNCTION NORMALIZATION =       1.0000000000

                ONE ELECTRON ENERGY =    -285.3663898375
                TWO ELECTRON ENERGY =     103.5924981343
           NUCLEAR REPULSION ENERGY =      66.0528876006
                                      ------------------
                       TOTAL ENERGY =    -115.7210041025

 ELECTRON-ELECTRON POTENTIAL ENERGY =     103.5924981343
  NUCLEUS-ELECTRON POTENTIAL ENERGY =    -400.8749627103
   NUCLEUS-NUCLEUS POTENTIAL ENERGY =      66.0528876006
                                      ------------------
             TOTAL POTENTIAL ENERGY =    -231.2295769753
               TOTAL KINETIC ENERGY =     115.5085728728
                 VIRIAL RATIO (V/T) =       2.0018390949

          ---------------------------------------
          MULLIKEN AND LOWDIN POPULATION ANALYSES
          ---------------------------------------

     ATOMIC MULLIKEN POPULATION IN EACH MOLECULAR ORBITAL
        ALPHA ORBITALS

                      1          2          3          4          5

                  1.000000   1.000000   1.000000   1.000000   1.000000

    1             0.002849   0.001395   0.994472   0.171306   0.239210
    2             0.993225   0.001149   0.001634   0.523840   0.090906
    3             0.002526   0.994767   0.001279   0.265535   0.453400
    4             0.000045  -0.000002   0.001419   0.005637   0.030053
    5             0.000006   0.000000   0.001199   0.006504   0.045097
    6             0.000009   0.001385  -0.000002   0.006644   0.066923
    7             0.000031   0.001318  -0.000001   0.005408   0.068923
    8             0.001309  -0.000011   0.000001   0.015127   0.005487

                      6          7          8          9         10

                  1.000000   1.000000   1.000000   1.000000   1.000000

    1             0.273421   0.242920   0.127774   0.322850   0.187131
    2             0.326297   0.211219   0.318061   0.043729   0.368363
    3             0.093904   0.231945   0.263255   0.200861   0.315663
    4             0.099402   0.015458   0.051336   0.190052   0.001569
    5             0.063462   0.131478   0.010722   0.078617   0.060252
    6             0.010798   0.103814   0.012475   0.068662   0.045939
    7             0.023716   0.013995   0.117402   0.084190   0.017477
    8             0.109001   0.049171   0.098975   0.011039   0.003607

                     11         12

                  1.000000   1.000000

    1             0.091729   0.085179
    2             0.500521   0.303661
    3             0.250717   0.557434
    4             0.015729   0.015751
    5             0.021955   0.018793
    6             0.045032   0.003614
    7             0.014593   0.014123
    8             0.059724   0.001445

     ATOMIC MULLIKEN POPULATION IN EACH MOLECULAR ORBITAL
         BETA ORBITALS

                      1          2          3          4          5

                  1.000000   1.000000   1.000000   1.000000   1.000000

    1             0.995178   0.000644   0.002972   0.424048   0.338518
    2             0.001587   0.001772   0.992608   0.354950   0.079040
    3             0.000632   0.994908   0.003017   0.170365   0.356882
    4             0.001415  -0.000005   0.000046   0.010022   0.044359
    5             0.001190   0.000002   0.000008   0.015005   0.062212
    6            -0.000002   0.001382   0.000019   0.008470   0.060823
    7            -0.000001   0.001306   0.000046   0.005255   0.053498
    8             0.000001  -0.000009   0.001285   0.011886   0.004669

                      6          7          8          9         10

                  1.000000   1.000000   1.000000   1.000000   1.000000

    1             0.148456   0.339822   0.165889   0.301506   0.292616
    2             0.327410   0.141190   0.217213   0.036348   0.320974
    3             0.190589   0.190006   0.236767   0.245117   0.264568
    4             0.052477   0.018483   0.063797   0.136837   0.002595
    5             0.011006   0.138182   0.000851   0.057111   0.045151
    6             0.037793   0.112530   0.028877   0.092020   0.060444
    7             0.083760   0.000781   0.132121   0.114677   0.013633
    8             0.148508   0.059006   0.154486   0.016382   0.000020

                     11

                  1.000000

    1             0.675860
    2             0.097943
    3             0.173208
    4            -0.000041
    5             0.011398
    6             0.003905
    7             0.004763
    8             0.032965

     ATOMIC SPIN POPULATION (ALPHA MINUS BETA)
       ATOM         MULL.POP.                    LOW.POP.
    1 C            -0.945263                    -0.699774
    2 C             1.111568                     0.955296
    3 C             0.805216                     0.695618
    4 H             0.096462                     0.061544
    5 H             0.095969                     0.058881
    6 H            -0.040966                    -0.012554
    7 H            -0.048662                    -0.019622
    8 H            -0.074324                    -0.039387


          ********* ALL ELECTRONS ********

               ----- POPULATIONS IN EACH AO -----
                             MULLIKEN      LOWDIN
              1  C  1  S      1.98774     1.97729
              2  C  1  S      0.37828     0.42975
              3  C  1  X      0.44829     0.42993
              4  C  1  Y      0.56137     0.53987
              5  C  1  Z      0.54508     0.51439
              6  C  1  S      1.01427     0.59031
              7  C  1  X      0.43708     0.52105
              8  C  1  Y      0.45992     0.58217
              9  C  1  Z      0.59371     0.59798
             10  C  2  S      1.98812     1.97681
             11  C  2  S      0.37218     0.42159
             12  C  2  X      0.53427     0.51305
             13  C  2  Y      0.56489     0.53048
             14  C  2  Z      0.47216     0.47217
             15  C  2  S      1.07021     0.59665
             16  C  2  X      0.31856     0.51655
             17  C  2  Y      0.39646     0.53106
             18  C  2  Z      0.53678     0.54528
             19  C  3  S      1.98755     1.97707
             20  C  3  S      0.36967     0.42541
             21  C  3  X      0.44033     0.42334
             22  C  3  Y      0.53996     0.53037
             23  C  3  Z      0.56663     0.52940
             24  C  3  S      1.02793     0.60110
             25  C  3  X      0.41379     0.51774
             26  C  3  Y      0.54216     0.62769
             27  C  3  Z      0.56932     0.59031
             28  H  4  S      0.47192     0.46796
             29  H  4  S      0.28452     0.42287
             30  H  5  S      0.47282     0.46495
             31  H  5  S      0.30738     0.43562
             32  H  6  S      0.47225     0.46555
             33  H  6  S      0.29931     0.43249
             34  H  7  S      0.47117     0.46338
             35  H  7  S      0.29985     0.43083
             36  H  8  S      0.47550     0.47202
             37  H  8  S      0.30858     0.43550

          ----- MULLIKEN ATOMIC OVERLAP POPULATIONS -----
          (OFF-DIAGONAL ELEMENTS NEED TO BE MULTIPLIED BY 2)

             1           2           3           4           5

    1    5.5371684
    2    0.2502169   5.5713988
    3   -0.0771427   0.2192638   5.5960807
    4    0.3861553  -0.0491113  -0.0143938   0.4539822
    5    0.3710884  -0.0424081   0.0064582  -0.0225872   0.4689659
    6   -0.0078648  -0.0419083   0.3815742   0.0002634  -0.0001111
    7    0.0012822  -0.0440542   0.3780125   0.0006839  -0.0001023
    8   -0.0351606   0.3902412  -0.0325083   0.0014393  -0.0011044

             6           7           8

    6    0.4601746
    7   -0.0201995   0.4543272
    8   -0.0003763   0.0010657   0.4604785

          TOTAL MULLIKEN AND LOWDIN ATOMIC POPULATIONS
       ATOM         MULL.POP.    CHARGE          LOW.POP.     CHARGE
    1 C             6.425743   -0.425743         6.182751   -0.182751
    2 C             6.253639   -0.253639         6.103641   -0.103641
    3 C             6.457344   -0.457344         6.222431   -0.222431
    4 H             0.756432    0.243568         0.890838    0.109162
    5 H             0.780199    0.219801         0.900565    0.099435
    6 H             0.771552    0.228448         0.898033    0.101967
    7 H             0.771015    0.228985         0.894213    0.105787
    8 H             0.784075    0.215925         0.907527    0.092473

          -------------------------------
          BOND ORDER AND VALENCE ANALYSIS     BOND ORDER THRESHOLD=0.050
          -------------------------------

                   BOND                       BOND                       BOND
  ATOM PAIR DIST  ORDER      ATOM PAIR DIST  ORDER      ATOM PAIR DIST  ORDER
    1   2  1.436  1.022        1   3  1.980  0.387        1   4  1.072  0.902
    1   5  1.075  0.914        2   3  1.484  0.927        2   8  1.071  0.925
    3   6  1.071  0.910        3   7  1.071  0.916

                       TOTAL       BONDED        FREE
      ATOM            VALENCE     VALENCE     VALENCE
    1 C                 3.666       3.223       0.443
    2 C                 3.668       2.865       0.803
    3 C                 3.665       3.136       0.530
    4 H                 0.904       0.895       0.009
    5 H                 0.920       0.911       0.009
    6 H                 0.914       0.912       0.002
    7 H                 0.916       0.914       0.002
    8 H                 0.925       0.919       0.006

          -----------------------------------------
          ATOMIC SPIN DENSITY AT THE NUCLEUS (A.U.)
          -----------------------------------------
                            SPIN DENS    ALPHA DENS     BETA DENS
    1  C            6.0    -0.1544096      46.92574      47.08015
    2  C            6.0     0.2976457      47.15929      46.86164
    3  C            6.0     0.1046725      47.03814      46.93346
    4  H            1.0     0.0302273       0.19992       0.16969
    5  H            1.0     0.0263541       0.19774       0.17138
    6  H            1.0    -0.0073112       0.18100       0.18831
    7  H            1.0    -0.0091573       0.17952       0.18868
    8  H            1.0    -0.0172894       0.17729       0.19458

          ---------------------
          ELECTROSTATIC MOMENTS
          ---------------------

 POINT   1           X           Y           Z (BOHR)    CHARGE
                -0.000000    0.000000    0.000000       -0.00 (A.U.)
         DX          DY          DZ         /D/  (DEBYE)
    -0.263600    0.377766    0.563481    0.727807
 ...... END OF PROPERTY EVALUATION ......
 STEP CPU TIME =     0.01 TOTAL CPU TIME =        1.3 (    0.0 MIN)
 TOTAL WALL CLOCK TIME=        1.4 SECONDS, CPU UTILIZATION IS  98.53%
  $VIB   
          IVIB=   0 IATOM=   0 ICOORD=   0 E=     -115.7210041025
 -1.509604943E-05 2.731089720E-05-9.167729435E-06 4.808512852E-05-5.219965173E-05
 -1.572512099E-05-6.396103983E-05 4.587537017E-05 1.088753178E-05-1.332885428E-05
  1.479298257E-05-1.396966903E-05-2.166352456E-06 5.087573141E-06 1.526595234E-05
  3.202831655E-05-1.039943418E-05-2.494465540E-05 1.358790125E-05-2.565591926E-05
  3.197760286E-05 8.509496738E-07-4.811817912E-06 5.676087880E-06
 -2.636000343E-01 3.777658597E-01 5.634807041E-01
 ......END OF GEOMETRY SEARCH......
 STEP CPU TIME =     0.00 TOTAL CPU TIME =        1.3 (    0.0 MIN)
 TOTAL WALL CLOCK TIME=        1.4 SECONDS, CPU UTILIZATION IS  98.53%
               580000  WORDS OF DYNAMIC MEMORY USED
 EXECUTION OF GAMESS TERMINATED NORMALLY Fri Jun  2 02:10:14 2017
 DDI: 263640 bytes (0.3 MB / 0 MWords) used by master data server.

 ----------------------------------------
 CPU timing information for all processes
 ========================================
 0: 1.258 + 0.96 = 1.355
 ----------------------------------------
 ddikick.x: exited gracefully.
unset echo
----- accounting info -----
Files used on the master node compute-0-6.local were:
-rw-rw-r-- 1 sarom sarom   10706 Jun  2 02:10 /scratch/sadpt-bofill3.F05
-rw-rw-r-- 1 sarom sarom 2880256 Jun  2 02:10 /scratch/sadpt-bofill3.F08
-rw-rw-r-- 1 sarom sarom 2388560 Jun  2 02:10 /scratch/sadpt-bofill3.F10
rm: cannot remove `/scratch/sarom': Is a directory
rm: cannot remove `/scratch/tmp': Is a directory
ls: No match.
ls: No match.
ls: No match.
Fri Jun  2 02:10:17 CDT 2017
0.256u 0.154s 0:04.86 8.2%	0+0k 24+376io 0pf+0w
/opt/gridengine/default/spool/compute-0-6/active_jobs/23694.1/pe_hostfile compute-0-6.local
