-catch_rsh /opt/gridengine/default/spool/compute-0-8/active_jobs/23696.1/pe_hostfile
compute-0-8
The primary node assigned by SGE to this run is compute-0-8
Warning: no access to tty (Bad file descriptor).
Thus no job control in this shell.
Deleting shmid=2785280.
Deleting shmid=2818049.
source /home/sarom/gamess.github.2017-05-31.14.06/install.info
setenv GMS_PATH /home/sarom/gamess.github.2017-05-31.14.06
setenv GMS_BUILD_DIR /home/sarom/gamess.github.2017-05-31.14.06
setenv GMS_TARGET linux64
setenv GMS_FORTRAN gfortran
setenv GMS_GFORTRAN_VERNO 4.4
setenv GMS_MATHLIB mkl-so
setenv GMS_MATHLIB_PATH /share/apps/intel/compilers_and_libraries_2017.1.132/linux/mkl/lib/intel64
setenv GMS_MKL_VERNO 12
setenv GMS_DDI_COMM sockets
setenv GMS_LIBCCHEM false
setenv GMS_EIGEN_PATH
setenv GMS_PHI false
setenv GMS_SHMTYPE sysv
setenv GMS_OPENMP false
unset echo
sadpt-cerjan8
tests/pes
----- GAMESS execution script 'rungms' -----
This job is running on host compute-0-8.local
under operating system Linux at Fri Jun 2 02:10:12 CDT 2017
Available scratch disk space (Kbyte units) at beginning of the job is
Filesystem           1K-blocks      Used Available Use% Mounted on
/dev/sda1             16126920   3867344  11440376  26% /
GAMESS temporary binary files will be written to /scratch
GAMESS supplementary output files will be written to /home/sarom/restart
Copying input file sadpt-cerjan8.inp to your run's scratch directory...
cp tests/pes/sadpt-cerjan8.inp /scratch/sadpt-cerjan8.F05
unset echo
The generated host list is
compute-0-8.local
/home/sarom/gamess.github.2017-05-31.14.06/ddikick.x /home/sarom/gamess.github.2017-05-31.14.06/gamess.00.x sadpt-cerjan8 -ddi 1 1 compute-0-8.local -scr /scratch

 Distributed Data Interface kickoff program.
 Initiating 1 compute processes on 1 nodes to run the following command:
 /home/sarom/gamess.github.2017-05-31.14.06/gamess.00.x sadpt-cerjan8 

          ******************************************************
          *         GAMESS VERSION = 20 APR 2017 (R1)          *
          *             FROM IOWA STATE UNIVERSITY             *
          * M.W.SCHMIDT, K.K.BALDRIDGE, J.A.BOATZ, S.T.ELBERT, *
          *   M.S.GORDON, J.H.JENSEN, S.KOSEKI, N.MATSUNAGA,   *
          *          K.A.NGUYEN, S.J.SU, T.L.WINDUS,           *
          *       TOGETHER WITH M.DUPUIS, J.A.MONTGOMERY       *
          *         J.COMPUT.CHEM.  14, 1347-1363(1993)        *
          **************** 64 BIT LINUX VERSION ****************

  SINCE 1993, STUDENTS AND POSTDOCS WORKING AT IOWA STATE UNIVERSITY
  AND ALSO IN THEIR VARIOUS JOBS AFTER LEAVING ISU HAVE MADE IMPORTANT
  CONTRIBUTIONS TO THE CODE:
     IVANA ADAMOVIC, CHRISTINE AIKENS, YURI ALEXEEV, POOJA ARORA,
     ANDREY ASADCHEV, ROB BELL, PRADIPTA BANDYOPADHYAY, JONATHAN BENTZ,
     BRETT BODE, KURT BRORSEN, CALEB CARLIN, GALINA CHABAN, WEI CHEN,
     CHEOL HO CHOI, PAUL DAY, ALBERT DEFUSCO, NUWAN DESILVA, TIM DUDLEY,
     DMITRI FEDOROV, GRAHAM FLETCHER, MARK FREITAG, KURT GLAESEMANN,
     DAN KEMP, GRANT MERRILL, NORIYUKI MINEZAWA, JONATHAN MULLIN,
     TAKESHI NAGATA, SEAN NEDD, HEATHER NETZLOFF, BOSILJKA NJEGIC, RYAN OLSON,
     MIKE PAK, SPENCER PRUITT, LUKE ROSKOP, JIM SHOEMAKER, LYUDMILA SLIPCHENKO,
     TONY SMITH, SAROM SOK LEANG, JIE SONG, TETSUYA TAKETSUGU, SIMON WEBB,
     PENG XU, SOOHAENG YOO, FEDERICO ZAHARIEV

  ADDITIONAL CODE HAS BEEN PROVIDED BY COLLABORATORS IN OTHER GROUPS:
     IOWA STATE UNIVERSITY:
          JOE IVANIC, AARON WEST, LAIMUTIS BYTAUTAS, KLAUS RUEDENBERG
     UNIVERSITY OF TOKYO: KIMIHIKO HIRAO, TAKAHITO NAKAJIMA,
          TAKAO TSUNEDA, MUNEAKI KAMIYA, SUSUMU YANAGISAWA,
          KIYOSHI YAGI, MAHITO CHIBA, SEIKEN TOKURA, NAOAKI KAWAKAMI
     UNIVERSITY OF AARHUS: FRANK JENSEN
     UNIVERSITY OF IOWA: VISVALDAS KAIRYS, HUI LI
     NATIONAL INST. OF STANDARDS AND TECHNOLOGY: WALT STEVENS, DAVID GARMER
     UNIVERSITY OF PISA: BENEDETTA MENNUCCI, JACOPO TOMASI
     UNIVERSITY OF MEMPHIS: HENRY KURTZ, PRAKASHAN KORAMBATH
     UNIVERSITY OF ALBERTA: TOBY ZENG, MARIUSZ KLOBUKOWSKI
     UNIVERSITY OF NEW ENGLAND: MARK SPACKMAN
     MIE UNIVERSITY: HIROAKI UMEDA
     NAT. INST. OF ADVANCED INDUSTRIAL SCIENCE AND TECHNOLOGY: KAZUO KITAURA
     MICHIGAN STATE UNIVERSITY:
          KAROL KOWALSKI, MARTA WLOCH, JEFFREY GOUR, JESSE LUTZ,
          WEI LI, PIOTR PIECUCH
     UNIVERSITY OF SILESIA: MONIKA MUSIAL, STANISLAW KUCHARSKI
     FACULTES UNIVERSITAIRES NOTRE-DAME DE LA PAIX:
          OLIVIER QUINET, BENOIT CHAMPAGNE
     UNIVERSITY OF CALIFORNIA - SANTA BARBARA: BERNARD KIRTMAN
     INSTITUTE FOR MOLECULAR SCIENCE:
          KAZUYA ISHIMURA, MICHIO KATOUDA, AND SHIGERU NAGASE
     UNIVERSITY OF NOTRE DAME: ANNA POMOGAEVA, DAN CHIPMAN
     KYUSHU UNIVERSITY:
          HARUYUKI NAKANO,
          FENG LONG GU, JACEK KORCHOWIEC, MARCIN MAKOWSKI, AND YURIKO AOKI,
          HIROTOSHI MORI AND EISAKU MIYOSHI
     PENNSYLVANIA STATE UNIVERSITY:
          TZVETELIN IORDANOV, CHET SWALINA, JONATHAN SKONE,
          SHARON HAMMES-SCHIFFER
     WASEDA UNIVERSITY:
          MASATO KOBAYASHI, TOMOKO AKAMA, TSUGUKI TOUMA,
          TAKESHI YOSHIKAWA, YASUHIRO IKABATA, JUNJI SEINO,
          YUYA NAKAJIMA, HIROMI NAKAI
     NANJING UNIVERSITY: SHUHUA LI
     UNIVERSITY OF NEBRASKA:
          PEIFENG SU, DEJUN SI, NANDUN THELLAMUREGE, YALI WANG, HUI LI
     UNIVERSITY OF ZURICH: ROBERTO PEVERATI, KIM BALDRIDGE
     N. COPERNICUS UNIVERSITY AND JACKSON STATE UNIVERSITY:
          MARIA BARYSZ
     UNIVERSITY OF COPENHAGEN: Jimmy Kromann, CASPER STEINMANN
     TOKYO INSTITUTE OF TECHNOLOGY: HIROYA NAKATA
     NAGOYA UNIVERSITY: YOSHIO NISHIMOTO, STEPHAN IRLE
     MOSCOW STATE UNIVERSITY: VLADIMIR MIRONOV

 EXECUTION OF GAMESS BEGUN Fri Jun  2 02:10:12 2017

            ECHO OF THE FIRST FEW INPUT CARDS -
 INPUT CARD>!  CH2O STO-2G isomerization test case, see figure 8 of                         
 INPUT CARD>!  C.J.Cerjan and W.H.Miller, J.Chem.Phys. 75, 2800-2806.                       
 INPUT CARD>!                                                                               
 INPUT CARD>!  Following mode 5 leads to the isomerization T.S. in 16 steps                 
 INPUT CARD>!     NSERCH:   0  E=     -109.0237436138  R.M.S.=  0.0078187                   
 INPUT CARD>!     NSERCH:   1  E=     -108.9986852432  R.M.S.=  0.0388943                   
 INPUT CARD>!         ...snipped...                                                         
 INPUT CARD>!     NSERCH:  15  E=     -108.8080811874  R.M.S.=  0.0000393                   
 INPUT CARD>!     NSERCH:  16  E=     -108.8080811941  R.M.S.=  0.0000065                   
 INPUT CARD>!  Behaviour with DXMAX=0.2 is much less satisfactory                           
 INPUT CARD>!                                                                               
 INPUT CARD>!  This run takes 0 seconds on almost anything (27 Apr 2015)                    
 INPUT CARD>!  answers unchanged since 2005.                                                
 INPUT CARD>!                                                                               
 INPUT CARD> $contrl scftyp=rhf runtyp=sadpoint nzvar=6 $end                                
 INPUT CARD> $system mwords=1 $end                                                          
 INPUT CARD> $statpt dxmax=0.3 ifolow=5 hess=read $end                                      
 INPUT CARD> $basis  gbasis=sto ngauss=2 $end                                               
 INPUT CARD> $zmat   izmat(1)=1,1,2,  1,1,3,  1,1,4,                                        
 INPUT CARD>                  2,2,1,3,  2,2,1,4,  4,2,1,3,4 $end                            
 INPUT CARD> $guess  guess=huckel $end                                                      
 INPUT CARD> $data                                                                          
 INPUT CARD>CH2O STO-2G Cerjan-Miller isomerization test case                               
 INPUT CARD>C1                                                                              
 INPUT CARD>CARBON       6.                                                                 
 INPUT CARD>OXYGEN       8.        0.0000000000        0.0000000000        1.220436         
 INPUT CARD>HYDROGEN     1.        0.0000000000        0.9345580000       -0.571397         
 INPUT CARD>HYDROGEN     1.        0.0000000000       -0.9192800000       -0.595665         
 INPUT CARD> $end                                                                           
 INPUT CARD> $HESS                                                                          
 INPUT CARD>hessian title card...                                                           
 INPUT CARD> 1  1 1.97908536E-01 0.00000000E+00 0.00000000E+00-6.60829252E-02 0.00000000E+00
 INPUT CARD> 1  2 0.00000000E+00-6.59128055E-02 0.00000000E+00 0.00000000E+00-6.59128055E-02
 INPUT CARD> 1  3 0.00000000E+00 0.00000000E+00                                             
 INPUT CARD> 2  1 0.00000000E+00 8.16844266E-01 0.00000000E+00 0.00000000E+00-1.25476106E-01
 INPUT CARD> 2  2 0.00000000E+00 0.00000000E+00-3.45684080E-01 1.45709266E-01 0.00000000E+00
 INPUT CARD> 2  3-3.45684080E-01-1.45709266E-01                                             
 INPUT CARD> 3  1 0.00000000E+00 0.00000000E+00 1.51872563E+00 0.00000000E+00 0.00000000E+00
 INPUT CARD> 3  2-1.17318061E+00 0.00000000E+00 1.37839140E-01-1.72772507E-01 0.00000000E+00
 INPUT CARD> 3  3-1.37839140E-01-1.72772507E-01                                             
 INPUT CARD> 4  1-6.60829252E-02 0.00000000E+00 0.00000000E+00 2.20655111E-02 0.00000000E+00
 INPUT CARD> 4  2 0.00000000E+00 2.20087070E-02 0.00000000E+00 0.00000000E+00 2.20087070E-02
 INPUT CARD> 4  3 0.00000000E+00 0.00000000E+00                                             
 INPUT CARD> 5  1 0.00000000E+00-1.25476106E-01 0.00000000E+00 0.00000000E+00 8.84145670E-02
 INPUT CARD> 5  2 0.00000000E+00 0.00000000E+00 1.85307693E-02 4.60232460E-02 0.00000000E+00
 INPUT CARD> 5  3 1.85307693E-02-4.60232460E-02                                             
 INPUT CARD> 6  1 0.00000000E+00 0.00000000E+00-1.17318061E+00 0.00000000E+00 0.00000000E+00
 INPUT CARD> 6  2 1.26065120E+00 0.00000000E+00 1.32227552E-02-4.37352936E-02 0.00000000E+00
 INPUT CARD> 6  3-1.32227552E-02-4.37352936E-02                                             
 INPUT CARD> 7  1-6.59128055E-02 0.00000000E+00 0.00000000E+00 2.20087070E-02 0.00000000E+00
    1000000 WORDS OF MEMORY AVAILABLE

     BASIS OPTIONS
     -------------
     GBASIS=STO          IGAUSS=       2      POLAR=NONE    
     NDFUNC=       0     NFFUNC=       0     DIFFSP=       F
     NPFUNC=       0      DIFFS=       F     BASNAM=        


     RUN TITLE
     ---------
 CH2O STO-2G Cerjan-Miller isomerization test case                               

 THE POINT GROUP OF THE MOLECULE IS C1      
 THE ORDER OF THE PRINCIPAL AXIS IS     0

 ATOM      ATOMIC                      COORDINATES (BOHR)
           CHARGE         X                   Y                   Z
 CARBON      6.0     0.0000000000        0.0000000000        0.0000000000
 OXYGEN      8.0     0.0000000000        0.0000000000        2.3062896256
 HYDROGEN    1.0     0.0000000000        1.7660585396       -1.0797837602
 HYDROGEN    1.0     0.0000000000       -1.7371873060       -1.1256436305

          INTERNUCLEAR DISTANCES (ANGS.)
          ------------------------------

                1 CARB       2 OXYG       3 HYDR       4 HYDR  

   1 CARB    0.0000000    1.2204360 *  1.0953964 *  1.0953961 *
   2 OXYG    1.2204360 *  0.0000000    2.0209068 *  2.0355094 *
   3 HYDR    1.0953964 *  2.0209068 *  0.0000000    1.8539968 *
   4 HYDR    1.0953961 *  2.0355094 *  1.8539968 *  0.0000000  

  * ... LESS THAN  3.000


     ATOMIC BASIS SET
     ----------------
 THE CONTRACTED PRIMITIVE FUNCTIONS HAVE BEEN UNNORMALIZED
 THE CONTRACTED BASIS FUNCTIONS ARE NOW NORMALIZED TO UNITY

  SHELL TYPE  PRIMITIVE        EXPONENT          CONTRACTION COEFFICIENT(S)

 CARBON    

      1   S       1            27.3850330    0.430128498301
      1   S       2             4.8745221    0.678913530502

      2   L       3             1.1367482    0.049471769201    0.511540707616
      2   L       4             0.2883094    0.963782408119    0.612819896119

 OXYGEN    

      3   S       5            49.9809712    0.430128498301
      3   S       6             8.8965877    0.678913530502

      4   L       7             1.9452365    0.049471769201    0.511540707616
      4   L       8             0.4933634    0.963782408119    0.612819896119

 HYDROGEN  

      5   S       9             1.3097564    0.430128498301
      5   S      10             0.2331360    0.678913530502

 HYDROGEN  

      6   S      11             1.3097564    0.430128498301
      6   S      12             0.2331360    0.678913530502

 TOTAL NUMBER OF BASIS SET SHELLS             =    6
 NUMBER OF CARTESIAN GAUSSIAN BASIS FUNCTIONS =   12
 NUMBER OF ELECTRONS                          =   16
 CHARGE OF MOLECULE                           =    0
 SPIN MULTIPLICITY                            =    1
 NUMBER OF OCCUPIED ORBITALS (ALPHA)          =    8
 NUMBER OF OCCUPIED ORBITALS (BETA )          =    8
 TOTAL NUMBER OF ATOMS                        =    4
 THE NUCLEAR REPULSION ENERGY IS       31.0697749880

     $CONTRL OPTIONS
     ---------------
 SCFTYP=RHF          RUNTYP=SADPOINT     EXETYP=RUN     
 MPLEVL=       0     CITYP =NONE         CCTYP =NONE         VBTYP =NONE    
 DFTTYP=NONE         TDDFT =NONE    
 MULT  =       1     ICHARG=       0     NZVAR =       6     COORD =UNIQUE  
 PP    =NONE         RELWFN=NONE         LOCAL =NONE         NUMGRD=       F
 ISPHER=      -1     NOSYM =       0     MAXIT =      30     UNITS =ANGS    
 PLTORB=       F     MOLPLT=       F     AIMPAC=       F     FRIEND=        
 NPRINT=       7     IREST =       0     GEOM  =INPUT   
 NORMF =       0     NORMP =       0     ITOL  =      20     ICUT  =       9
 INTTYP=BEST         GRDTYP=BEST         QMTTOL= 1.0E-06

     $SYSTEM OPTIONS
     ---------------
  REPLICATED MEMORY=     1000000 WORDS (ON EVERY NODE).
 DISTRIBUTED MEMDDI=           0 MILLION WORDS IN AGGREGATE,
 MEMDDI DISTRIBUTED OVER   1 PROCESSORS IS           0 WORDS/PROCESSOR.
 TOTAL MEMORY REQUESTED ON EACH PROCESSOR=     1000000 WORDS.
 TIMLIM=      525600.00 MINUTES, OR     365.0 DAYS.
 PARALL= F  BALTYP=  DLB     KDIAG=    0  COREFL= F
 MXSEQ2=     300 MXSEQ3=     150  mem10=         0

          ----------------
          PROPERTIES INPUT
          ----------------

     MOMENTS            FIELD           POTENTIAL          DENSITY
 IEMOM =       1   IEFLD =       0   IEPOT =       0   IEDEN =       0
 WHERE =COMASS     WHERE =NUCLEI     WHERE =NUCLEI     WHERE =NUCLEI  
 OUTPUT=BOTH       OUTPUT=BOTH       OUTPUT=BOTH       OUTPUT=BOTH    
 IEMINT=       0   IEFINT=       0                     IEDINT=       0
                                                       MORB  =       0
          EXTRAPOLATION IN EFFECT
          SOSCF IN EFFECT
 ORBITAL PRINTING OPTION: NPREO=     1    12     2     1

     -------------------------------
     INTEGRAL TRANSFORMATION OPTIONS
     -------------------------------
     NWORD  =            0
     CUTOFF = 1.0E-09     MPTRAN =       0
     DIRTRF =       F     AOINTS =DUP     

          ----------------------
          INTEGRAL INPUT OPTIONS
          ----------------------
 NOPK  =       1 NORDER=       0 SCHWRZ=       F

   --- ENCODED Z MATRIX ---
 COORD  TYPE   I   J   K   L   M   N
    1      1    1   2
    2      1    1   3
    3      1    1   4
    4      2    2   1   3
    5      2    2   1   4
    6      4    2   1   3   4

 THE DETERMINANT OF THE G MATRIX IS 10**(    -3)


                     --------------------
                     INTERNAL COORDINATES
                     --------------------

                 - - ATOMS - -         COORDINATE      COORDINATE
 NO.   TYPE    I  J  K  L  M  N        (BOHR,RAD)       (ANG,DEG)
 ----------------------------------------------------------------
   1 STRETCH   1  2                     2.3062896       1.2204360
   2 STRETCH   1  3                     2.0699990       1.0953964
   3 STRETCH   1  4                     2.0699984       1.0953961
   4 BEND      2  1  3                  2.1195625     121.4419832
   5 BEND      2  1  4                  2.1457425     122.9419891
   6 PLA.BEND  2  1  3  4               0.0000000       0.0000000

     ------------------------------------------
     THE POINT GROUP IS C1 , NAXIS= 0, ORDER= 1
     ------------------------------------------

     DIMENSIONS OF THE SYMMETRY SUBSPACES ARE
 A   =   12

 ..... DONE SETTING UP THE RUN .....
 STEP CPU TIME =     0.02 TOTAL CPU TIME =        0.0 (    0.0 MIN)
 TOTAL WALL CLOCK TIME=        0.0 SECONDS, CPU UTILIZATION IS  66.67%


          -----------------------------
          STATIONARY POINT LOCATION RUN
          -----------------------------

 OBTAINING INITIAL HESSIAN, HESS=READ    

 $HESS GROUP READ FROM CARDS
 hessian title card...                                                           

          PARAMETERS CONTROLLING GEOMETRY SEARCH ARE
          METHOD =QA                  UPHESS =POWELL  
          NNEG   =         1          NFRZ   =         0
          NSTEP  =        20          IFOLOW =         5
          HESS   =READ                RESTAR =         F
          IHREP  =         0          HSSEND =         F
          NPRT   =         0          NPUN   =         0
          OPTTOL = 1.000E-04          RMIN   = 1.500E-03
          RMAX   = 1.000E-01          RLIM   = 7.000E-02
          DXMAX  = 3.000E-01          PURIFY =         F
          MOVIE  =         F          TRUPD  =         T
          TRMAX  = 3.000E-01          TRMIN  = 5.000E-02
          ITBMAT =         5          STPT   =         F
          STSTEP = 1.000E-02          PROJCT=          T

 BEGINNING GEOMETRY SEARCH POINT NSERCH=   0 ...

 COORDINATES OF ALL ATOMS ARE (ANGS)
   ATOM   CHARGE       X              Y              Z
 ------------------------------------------------------------
 CARBON      6.0   0.0000000000   0.0000000000   0.0000000000
 OXYGEN      8.0   0.0000000000   0.0000000000   1.2204360000
 HYDROGEN    1.0   0.0000000000   0.9345580000  -0.5713970000
 HYDROGEN    1.0   0.0000000000  -0.9192800000  -0.5956650000


                     --------------------
                     INTERNAL COORDINATES
                     --------------------

                 - - ATOMS - -         COORDINATE      COORDINATE
 NO.   TYPE    I  J  K  L  M  N        (BOHR,RAD)       (ANG,DEG)
 ----------------------------------------------------------------
   1 STRETCH   1  2                     2.3062896       1.2204360
   2 STRETCH   1  3                     2.0699990       1.0953964
   3 STRETCH   1  4                     2.0699984       1.0953961
   4 BEND      2  1  3                  2.1195625     121.4419832
   5 BEND      2  1  4                  2.1457425     122.9419891
   6 PLA.BEND  2  1  3  4               0.0000000       0.0000000

          ********************
          1 ELECTRON INTEGRALS
          ********************
 ...... END OF ONE-ELECTRON INTEGRALS ......
 STEP CPU TIME =     0.00 TOTAL CPU TIME =        0.0 (    0.0 MIN)
 TOTAL WALL CLOCK TIME=        0.0 SECONDS, CPU UTILIZATION IS  66.67%

          -------------
          GUESS OPTIONS
          -------------
          GUESS =HUCKEL            NORB  =       0          NORDER=       0
          MIX   =       F          PRTMO =       F          PUNMO =       F
          TOLZ  = 1.0E-08          TOLE  = 1.0E-05
          SYMDEN=       F          PURIFY=       F

 INITIAL GUESS ORBITALS GENERATED BY HUCKEL   ROUTINE.
 HUCKEL GUESS REQUIRES      4428 WORDS.

 SYMMETRIES FOR INITIAL GUESS ORBITALS FOLLOW.   BOTH SET(S).
     8 ORBITALS ARE OCCUPIED (    2 CORE ORBITALS).
     3=A        4=A        5=A        6=A        7=A        8=A        9=A   
    10=A       11=A       12=A   
 ...... END OF INITIAL ORBITAL SELECTION ......
 STEP CPU TIME =     0.00 TOTAL CPU TIME =        0.0 (    0.0 MIN)
 TOTAL WALL CLOCK TIME=        0.0 SECONDS, CPU UTILIZATION IS  66.67%

                    ----------------------
                    AO INTEGRAL TECHNOLOGY
                    ----------------------
     S,P,L SHELL ROTATED AXIS INTEGRALS, REPROGRAMMED BY
        KAZUYA ISHIMURA (IMS) AND JOSE SIERRA (SYNSTAR).
     S,P,D,L SHELL ROTATED AXIS INTEGRALS PROGRAMMED BY
        KAZUYA ISHIMURA (INSTITUTE FOR MOLECULAR SCIENCE).
     S,P,D,F,G SHELL TO TOTAL QUARTET ANGULAR MOMENTUM SUM 5,
        ERIC PROGRAM BY GRAHAM FLETCHER (ELORET AND NASA ADVANCED
        SUPERCOMPUTING DIVISION, AMES RESEARCH CENTER).
     S,P,D,F,G,L SHELL GENERAL RYS QUADRATURE PROGRAMMED BY
        MICHEL DUPUIS (PACIFIC NORTHWEST NATIONAL LABORATORY).

          --------------------
          2 ELECTRON INTEGRALS
          --------------------

 THE -PK- OPTION IS OFF, THE INTEGRALS ARE NOT IN SUPERMATRIX FORM.
 STORING   15000 INTEGRALS/RECORD ON DISK, USING 12 BYTES/INTEGRAL.
 TWO ELECTRON INTEGRAL EVALUATION REQUIRES   89377 WORDS OF MEMORY.
 II,JST,KST,LST =  1  1  1  1 NREC =         1 INTLOC =    1
 II,JST,KST,LST =  2  1  1  1 NREC =         1 INTLOC =    2
 II,JST,KST,LST =  3  1  1  1 NREC =         1 INTLOC =   34
 II,JST,KST,LST =  4  1  1  1 NREC =         1 INTLOC =   82
 II,JST,KST,LST =  5  1  1  1 NREC =         1 INTLOC =  510
 II,JST,KST,LST =  6  1  1  1 NREC =         1 INTLOC =  937
 TOTAL NUMBER OF NONZERO TWO-ELECTRON INTEGRALS =                1507
          1 INTEGRAL RECORDS WERE STORED ON DISK FILE  8.
  ...... END OF TWO-ELECTRON INTEGRALS .....
 STEP CPU TIME =     0.02 TOTAL CPU TIME =        0.0 (    0.0 MIN)
 TOTAL WALL CLOCK TIME=        0.1 SECONDS, CPU UTILIZATION IS  80.00%

          --------------------------
                 RHF SCF CALCULATION
          --------------------------

     NUCLEAR ENERGY =        31.0697749880
     MAXIT =   30     NPUNCH=    2
     EXTRAP=T  DAMP=F  SHIFT=F  RSTRCT=F  DIIS=F  DEM=F  SOSCF=T
     DENSITY MATRIX CONV=  1.00E-05
     SOSCF WILL OPTIMIZE      32 ORBITAL ROTATIONS, SOGTOL=   0.250
     MEMORY REQUIRED FOR RHF ITERS=     31304 WORDS.

 ITER EX DEM     TOTAL ENERGY        E CHANGE  DENSITY CHANGE     ORB. GRAD
   1  0  0     -108.8085901897  -108.8085901897   0.559875349   0.000000000
          ---------------START SECOND ORDER SCF---------------
   2  1  0     -109.0059178978    -0.1973277082   0.157871230   0.089827045
   3  2  0     -109.0188660575    -0.0129481597   0.063734294   0.037156557
   4  3  0     -109.0237295986    -0.0048635411   0.004668022   0.001203040
   5  4  0     -109.0237432463    -0.0000136477   0.000915701   0.000257984
   6  5  0     -109.0237436022    -0.0000003559   0.000141168   0.000035905
   7  6  0     -109.0237436131    -0.0000000109   0.000027125   0.000008000
   8  7  0     -109.0237436137    -0.0000000006   0.000014542   0.000004043
   9  8  0     -109.0237436138    -0.0000000001   0.000002996   0.000001094

          -----------------
          DENSITY CONVERGED
          -----------------
     TIME TO FORM FOCK OPERATORS=       0.0 SECONDS (       0.0 SEC/ITER)
     TIME TO SOLVE SCF EQUATIONS=       0.0 SECONDS (       0.0 SEC/ITER)

 FINAL RHF ENERGY IS     -109.0237436138 AFTER   9 ITERATIONS

          ------------
          EIGENVECTORS
          ------------

                      1          2          3          4          5
                  -19.6405   -10.7197    -1.3055    -0.7745    -0.6107
                     A          A          A          A          A   
    1  C  1  S    0.001604   0.982452  -0.139404  -0.208540   0.000209
    2  C  1  S   -0.015181   0.070261   0.291548   0.553252  -0.001049
    3  C  1  X    0.000000   0.000000   0.000000   0.000000   0.000000
    4  C  1  Y   -0.000048   0.000137   0.000181   0.000917   0.527245
    5  C  1  Z   -0.014509   0.001058   0.163855  -0.223470   0.005116
    6  O  2  S    0.986348   0.001267  -0.251761   0.115055   0.001349
    7  O  2  S    0.054519  -0.013902   0.760122  -0.422072  -0.005816
    8  O  2  X    0.000000   0.000000   0.000000   0.000000   0.000000
    9  O  2  Y    0.000002   0.000004   0.000080   0.000847   0.421767
   10  O  2  Z   -0.010760   0.006104  -0.169141  -0.142457  -0.004423
   11  H  3  S    0.000554  -0.015728   0.035773   0.282226   0.315631
   12  H  4  S    0.000446  -0.015645   0.035453   0.284758  -0.315354

                      6          7          8          9         10
                   -0.5125    -0.4118    -0.3143     0.3283     0.6623
                     A          A          A          A          A   
    1  C  1  S    0.045518   0.000000   0.000326  -0.000000  -0.266068
    2  C  1  S   -0.127131   0.000000  -0.001474  -0.000000   1.353426
    3  C  1  X   -0.000000   0.625314  -0.000000   0.808499  -0.000000
    4  C  1  Y    0.005590   0.000000  -0.153232  -0.000000  -0.008359
    5  C  1  Z   -0.448282   0.000000   0.001249  -0.000000  -0.426863
    6  O  2  S   -0.120223   0.000000  -0.000182  -0.000000   0.036114
    7  O  2  S    0.527172   0.000000   0.000801  -0.000000  -0.190465
    8  O  2  X   -0.000000   0.661688  -0.000000  -0.779010  -0.000000
    9  O  2  Y    0.006079   0.000000   0.877632  -0.000000   0.005300
   10  O  2  Z    0.672078   0.000000  -0.004721  -0.000000   0.272287
   11  H  3  S    0.157014   0.000000  -0.359244  -0.000000  -0.885986
   12  H  4  S    0.156141   0.000000   0.355998  -0.000000  -0.908727

                     11         12
                    0.8099     1.0116
                     A          A   
    1  C  1  S    0.000094  -0.113771
    2  C  1  S   -0.000380   0.612442
    3  C  1  X   -0.000000   0.000000
    4  C  1  Y    1.159520   0.034052
    5  C  1  Z   -0.031222   1.183334
    6  O  2  S   -0.003734   0.147894
    7  O  2  S    0.020958  -0.867594
    8  O  2  X   -0.000000   0.000000
    9  O  2  Y   -0.324165  -0.008196
   10  O  2  Z   -0.024471   0.931301
   11  H  3  S   -0.849761   0.128334
   12  H  4  S    0.814615   0.187760
 ...... END OF RHF CALCULATION ......
 STEP CPU TIME =     0.00 TOTAL CPU TIME =        0.0 (    0.0 MIN)
 TOTAL WALL CLOCK TIME=        0.1 SECONDS, CPU UTILIZATION IS  80.00%

     ----------------------------------------------------------------
     PROPERTY VALUES FOR THE RHF   SELF-CONSISTENT FIELD WAVEFUNCTION
     ----------------------------------------------------------------

          -----------------
          ENERGY COMPONENTS
          -----------------

         WAVEFUNCTION NORMALIZATION =       1.0000000000

                ONE ELECTRON ENERGY =    -211.6078188214
                TWO ELECTRON ENERGY =      71.5143002197
           NUCLEAR REPULSION ENERGY =      31.0697749880
                                      ------------------
                       TOTAL ENERGY =    -109.0237436138

 ELECTRON-ELECTRON POTENTIAL ENERGY =      71.5143002197
  NUCLEUS-ELECTRON POTENTIAL ENERGY =    -318.7729113207
   NUCLEUS-NUCLEUS POTENTIAL ENERGY =      31.0697749880
                                      ------------------
             TOTAL POTENTIAL ENERGY =    -216.1888361131
               TOTAL KINETIC ENERGY =     107.1650924993
                 VIRIAL RATIO (V/T) =       2.0173438110

  ...... PI ENERGY ANALYSIS ......

 ENERGY ANALYSIS:
            FOCK ENERGY=    -68.5792153918
          BARE H ENERGY=   -211.6078188214
     ELECTRONIC ENERGY =   -140.0935171066
         KINETIC ENERGY=    107.1650924993
          N-N REPULSION=     31.0697749880
           TOTAL ENERGY=   -109.0237421186
        SIGMA PART(1+2)=   -131.1319872247
               (K,V1,2)=    103.7361993578   -298.2445256423     63.3763390598
           PI PART(1+2)=     -8.9615298819
               (K,V1,2)=      3.4288931415    -20.5283856784      8.1379626550
  SIGMA SKELETON, ERROR=   -100.0622122367     -0.0000000000
             MIXED PART= 0.00000E+00 0.00000E+00 0.00000E+00 0.00000E+00
 ...... END OF PI ENERGY ANALYSIS ......

          ---------------------------------------
          MULLIKEN AND LOWDIN POPULATION ANALYSES
          ---------------------------------------

     ATOMIC MULLIKEN POPULATION IN EACH MOLECULAR ORBITAL

                      1          2          3          4          5

                  2.000000   2.000000   2.000000   2.000000   2.000000

    1            -0.003388   2.006570   0.527652   0.984523   0.910447
    2             2.003379  -0.001995   1.445284   0.311946   0.466570
    3             0.000005  -0.002294   0.013733   0.348965   0.311918
    4             0.000004  -0.002282   0.013331   0.354566   0.311065

                      6          7          8

                  2.000000   2.000000   2.000000

    1             0.458001   0.953187   0.077787
    2             1.406524   1.046813   1.440723
    3             0.068076   0.000000   0.243382
    4             0.067400   0.000000   0.238109

               ----- POPULATIONS IN EACH AO -----
                             MULLIKEN      LOWDIN
              1  C  1  S      1.98207     1.97536
              2  C  1  S      1.14026     1.04874
              3  C  1  X      0.95319     0.95420
              4  C  1  Y      0.98825     1.01004
              5  C  1  Z      0.85101     0.92337
              6  O  2  S      1.99493     1.99438
              7  O  2  S      1.86952     1.75225
              8  O  2  X      1.04681     1.04580
              9  O  2  Y      1.90726     1.91037
             10  O  2  Z      1.30071     1.35312
             11  H  3  S      0.98378     1.01693
             12  H  4  S      0.98219     1.01544

          ----- MULLIKEN ATOMIC OVERLAP POPULATIONS -----
          (OFF-DIAGONAL ELEMENTS NEED TO BE MULTIPLIED BY 2)

             1           2           3           4

    1    4.7260144
    2    0.4458203   7.7172337
    3    0.3716254  -0.0226213   0.6690225
    4    0.3713193  -0.0211889  -0.0342418   0.6663033

          TOTAL MULLIKEN AND LOWDIN ATOMIC POPULATIONS
       ATOM         MULL.POP.    CHARGE          LOW.POP.     CHARGE
    1 CARBON        5.914779    0.085221         5.911706    0.088294
    2 OXYGEN        8.119244   -0.119244         8.055921   -0.055921
    3 HYDROGEN      0.983785    0.016215         1.016930   -0.016930
    4 HYDROGEN      0.982192    0.017808         1.015443   -0.015443

          -------------------------------
          BOND ORDER AND VALENCE ANALYSIS     BOND ORDER THRESHOLD=0.050
          -------------------------------

                   BOND                       BOND                       BOND
  ATOM PAIR DIST  ORDER      ATOM PAIR DIST  ORDER      ATOM PAIR DIST  ORDER
    1   2  1.220  2.057        1   3  1.095  0.939        1   4  1.095  0.939

                       TOTAL       BONDED        FREE
      ATOM            VALENCE     VALENCE     VALENCE
    1 CARBON            3.935       3.935      -0.000
    2 OXYGEN            2.148       2.148      -0.000
    3 HYDROGEN          1.000       1.000      -0.000
    4 HYDROGEN          1.000       1.000      -0.000

          ---------------------
          ELECTROSTATIC MOMENTS
          ---------------------

 POINT   1           X           Y           Z (BOHR)    CHARGE
                 0.000000    0.000970    1.155134       -0.00 (A.U.)
         DX          DY          DZ         /D/  (DEBYE)
     0.000000   -0.011922   -1.115928    1.115992
 ...... END OF PROPERTY EVALUATION ......
 STEP CPU TIME =     0.00 TOTAL CPU TIME =        0.0 (    0.0 MIN)
 TOTAL WALL CLOCK TIME=        0.1 SECONDS, CPU UTILIZATION IS  80.00%

 BEGINNING ONE ELECTRON GRADIENT...
 ..... END OF 1-ELECTRON GRADIENT ......
 STEP CPU TIME =     0.00 TOTAL CPU TIME =        0.0 (    0.0 MIN)
 TOTAL WALL CLOCK TIME=        0.1 SECONDS, CPU UTILIZATION IS  80.00%

          ----------------------
          GRADIENT OF THE ENERGY
          ----------------------
 THE COARSE/FINE SCHWARZ SCREENINGS SKIPPED            0/           0 BLOCKS.
 THE NUMBER OF GRADIENT INTEGRAL BLOCKS COMPUTED WAS       217
 ...... END OF 2-ELECTRON GRADIENT ......
 STEP CPU TIME =     0.00 TOTAL CPU TIME =        0.0 (    0.0 MIN)
 TOTAL WALL CLOCK TIME=        0.1 SECONDS, CPU UTILIZATION IS  80.00%

          NSERCH=  0     ENERGY=    -109.0237436

                                 -----------------------
                                 GRADIENT (HARTREE/BOHR)
                                 -----------------------
        ATOM     ZNUC       DE/DX         DE/DY         DE/DZ
 --------------------------------------------------------------
    1  CARBON       6.0     0.0000000    -0.0035905    -0.0177231
    2  OXYGEN       8.0     0.0000000     0.0027565    -0.0047462
    3  HYDROGEN     1.0     0.0000000    -0.0073289     0.0125928
    4  HYDROGEN     1.0     0.0000000     0.0081629     0.0098764


                     --------------------
                     INTERNAL COORDINATES
                     --------------------

                 - - ATOMS - -         COORDINATE        GRADIENT
 NO.   TYPE    I  J  K  L  M  N         (ANG,DEG)     (H/B,H/RAD)
 ----------------------------------------------------------------
   1 STRETCH   1  2                     1.2204360      -0.0047462
   2 STRETCH   1  3                     1.0953964      -0.0128216
   3 STRETCH   1  4                     1.0953961      -0.0122212
   4 BEND      2  1  3                121.4419832      -0.0143259
   5 BEND      2  1  4                122.9419891      -0.0079687
   6 PLA.BEND  2  1  3  4               0.0000000       0.0000000

 NOTE: CARTESIAN GRADIENTS ARE ALWAYS TAKEN TO TEST CONVERGENCE,
       SO THE FOLLOWING GRADIENTS ARE CARTESIAN.

          MAXIMUM GRADIENT = 0.0177231    RMS GRADIENT = 0.0078187

 NSERCH:   0  E=     -109.0237436138  GRAD. MAX=  0.0177231  R.M.S.=  0.0078187

          FORCE CONSTANT MATRIX NOT UPDATED --- TAKING FIRST STEP
          THE FIRST FEW LOCAL MODES AND EIGENVALUES ARE

  MODE           1           2           3           4           5
          0.107891    0.226613    0.450082    0.465515    0.506567
  MODE
   1      0.000000   -0.000482   -0.062992   -0.019209   -0.111466
   2      0.000000    0.134512    0.628552   -0.749420    0.152899
   3      0.000000   -0.083624    0.774384    0.601934   -0.171124
   4      0.000000   -0.699340    0.035171    0.052947    0.707171
   5      0.000000    0.697020    0.006850    0.269950    0.659411
   6      1.000000    0.000000    0.000000    0.000000    0.000000

  MODE           6
          1.273749
  MODE
   1     -0.991584
   2     -0.042665
   3     -0.041578
   4     -0.082415
   5     -0.080129
   6      0.000000
 LOCAL CURVATURE   5 OF THE APPROXIMATE HESSIAN HAS EIGENVALUE=    0.506567
 *** THIS MODE HAS AN INCORRECT CURVATURE ***
 THE COMPONENTS OF THIS MODE FOLLOWS:
       -0.111466       0.152899      -0.171124       0.707171       0.659411
        0.000000
          HESSIAN MODE FOLLOWING SWITCHED ON, FOLLOWING MODE   5
          FOLLOWING MODE  5 WITH EIGENVALUE    0.50657 AND COMPONENTS
             -0.11147  0.15290 -0.17112  0.70717  0.65941  0.00000
          TRIM/QA LAMBDA FOR     TS MODE  =   0.55574850
          TRIM/QA LAMBDA FOR NON-TS MODES =  -0.55574850
          TRIM/QA STEP HAS LENGTH         =   0.300000
          RADIUS OF STEP TAKEN=   0.30000  CURRENT TRUST RADIUS=   0.30000
          TRANSFORMING DISPLACEMENT FROM INTERNALS TO CARTESIANS
          THE ROOT MEAN SQUARE ERROR IN ITERATION   1 IS   0.04536608
          THE ROOT MEAN SQUARE ERROR IN ITERATION   2 IS   0.00013575
          THE ROOT MEAN SQUARE ERROR IN ITERATION   3 IS   0.00000002
          THE ROOT MEAN SQUARE ERROR IN ITERATION   4 IS   0.00000000

 BEGINNING GEOMETRY SEARCH POINT NSERCH=   1 ...

 COORDINATES OF ALL ATOMS ARE (ANGS)
   ATOM   CHARGE       X              Y              Z
 ------------------------------------------------------------
 CARBON      6.0   0.0000000000   0.0032880868  -0.0234449786
 OXYGEN      8.0   0.0000000000   0.0003171271   1.2162287799
 HYDROGEN    1.0   0.0000000000   1.0186025795  -0.3814482240
 HYDROGEN    1.0   0.0000000000  -1.0475083018  -0.4396868038


                     --------------------
                     INTERNAL COORDINATES
                     --------------------

                 - - ATOMS - -         COORDINATE      COORDINATE
 NO.   TYPE    I  J  K  L  M  N        (BOHR,RAD)       (ANG,DEG)
 ----------------------------------------------------------------
   1 STRETCH   1  2                     2.3426504       1.2396773
   2 STRETCH   1  3                     2.0344459       1.0765825
   3 STRETCH   1  4                     2.1358337       1.1302346
   4 BEND      2  1  3                  1.9121850     109.5601316
   5 BEND      2  1  4                  1.9455571     111.4722131
   6 PLA.BEND  2  1  3  4               0.0000000       0.0000000

          INTERNUCLEAR DISTANCES (ANGS.)
          ------------------------------

                1 CARB       2 OXYG       3 HYDR       4 HYDR  

   1 CARB    0.0000000    1.2396773 *  1.0765825 *  1.1302346 *
   2 OXYG    1.2396773 *  0.0000000    1.8945915 *  1.9595904 *
   3 HYDR    1.0765825 *  1.8945915 *  0.0000000    2.0669315 *
   4 HYDR    1.1302346 *  1.9595904 *  2.0669315 *  0.0000000  

  * ... LESS THAN  3.000

 ...... END OF ONE-ELECTRON INTEGRALS ......
 STEP CPU TIME =     0.00 TOTAL CPU TIME =        0.0 (    0.0 MIN)
 TOTAL WALL CLOCK TIME=        0.1 SECONDS, CPU UTILIZATION IS  80.00%
 TOTAL NUMBER OF NONZERO TWO-ELECTRON INTEGRALS =                1804
          1 INTEGRAL RECORDS WERE STORED ON DISK FILE  8.
  ...... END OF TWO-ELECTRON INTEGRALS .....
 STEP CPU TIME =     0.00 TOTAL CPU TIME =        0.0 (    0.0 MIN)
 TOTAL WALL CLOCK TIME=        0.1 SECONDS, CPU UTILIZATION IS  80.00%

          --------------------------
                 RHF SCF CALCULATION
          --------------------------
     DENSITY MATRIX CONV=  1.00E-05

 ITER EX DEM     TOTAL ENERGY        E CHANGE  DENSITY CHANGE     ORB. GRAD
          ---------------START SECOND ORDER SCF---------------
   1  0  0     -108.9963392063  -108.9963392063   0.046999860   0.022590569
   2  1  0     -108.9984655257    -0.0021263194   0.016740453   0.004947307
   3  2  0     -108.9986705375    -0.0002050118   0.003159033   0.001407134
   4  3  0     -108.9986821430    -0.0000116055   0.002962039   0.000564607
   5  4  0     -108.9986850236    -0.0000028806   0.000584813   0.000281364
   6  5  0     -108.9986852271    -0.0000002035   0.000180082   0.000061509
   7  6  0     -108.9986852428    -0.0000000157   0.000034079   0.000008289
   8  7  0     -108.9986852432    -0.0000000004   0.000003467   0.000001122
   9  8  0     -108.9986852432    -0.0000000000   0.000000980   0.000000312

          -----------------
          DENSITY CONVERGED
          -----------------
     TIME TO FORM FOCK OPERATORS=       0.0 SECONDS (       0.0 SEC/ITER)
     TIME TO SOLVE SCF EQUATIONS=       0.0 SECONDS (       0.0 SEC/ITER)

 FINAL RHF ENERGY IS     -108.9986852432 AFTER   9 ITERATIONS
 ...... END OF RHF CALCULATION ......
 STEP CPU TIME =     0.00 TOTAL CPU TIME =        0.0 (    0.0 MIN)
 TOTAL WALL CLOCK TIME=        0.1 SECONDS, CPU UTILIZATION IS  66.67%
 ..... END OF 1-ELECTRON GRADIENT ......
 STEP CPU TIME =     0.00 TOTAL CPU TIME =        0.0 (    0.0 MIN)
 TOTAL WALL CLOCK TIME=        0.1 SECONDS, CPU UTILIZATION IS  66.67%
 ...... END OF 2-ELECTRON GRADIENT ......
 STEP CPU TIME =     0.00 TOTAL CPU TIME =        0.0 (    0.0 MIN)
 TOTAL WALL CLOCK TIME=        0.1 SECONDS, CPU UTILIZATION IS  66.67%

          NSERCH=  1     ENERGY=    -108.9986852

                                 -----------------------
                                 GRADIENT (HARTREE/BOHR)
                                 -----------------------
        ATOM     ZNUC       DE/DX         DE/DY         DE/DZ
 --------------------------------------------------------------
    1  CARBON       6.0     0.0000000     0.0397269    -0.1015947
    2  OXYGEN       8.0     0.0000000     0.0051018     0.0063142
    3  HYDROGEN     1.0     0.0000000    -0.0096918     0.0602866
    4  HYDROGEN     1.0     0.0000000    -0.0351370     0.0349939


                     --------------------
                     INTERNAL COORDINATES
                     --------------------

                 - - ATOMS - -         COORDINATE        GRADIENT
 NO.   TYPE    I  J  K  L  M  N         (ANG,DEG)     (H/B,H/RAD)
 ----------------------------------------------------------------
   1 STRETCH   1  2                     1.2396773       0.0063019
   2 STRETCH   1  3                     1.0765825      -0.0291877
   3 STRETCH   1  4                     1.1302346       0.0197799
   4 BEND      2  1  3                109.5601316      -0.1091132
   5 BEND      2  1  4                111.4722131      -0.0971262
   6 PLA.BEND  2  1  3  4               0.0000000       0.0000000

 NOTE: CARTESIAN GRADIENTS ARE ALWAYS TAKEN TO TEST CONVERGENCE,
       SO THE FOLLOWING GRADIENTS ARE CARTESIAN.

          MAXIMUM GRADIENT = 0.1015947    RMS GRADIENT = 0.0388943

 NSERCH:   1  E=     -108.9986852432  GRAD. MAX=  0.1015947  R.M.S.=  0.0388943

          HESSIAN UPDATED USING THE POWELL FORMULA
 LOCAL CURVATURE   5 OF THE APPROXIMATE HESSIAN HAS EIGENVALUE=    0.468341
 *** THIS MODE HAS AN INCORRECT CURVATURE ***
 THE COMPONENTS OF THIS MODE FOLLOWS:
        0.028574      -0.640928       0.736459      -0.214526      -0.001145
        0.000000
             ACTUAL ENERGY CHANGE WAS   0.0250583705
          PREDICTED ENERGY CHANGE WAS   0.0268347912 RATIO=  0.934
          OVERLAP OF CURRENT MODE   3 WITH PREVIOUS MODE IS     0.765910
 WARNING!! MODE SWITCHING WAS FOLLOWING MODE   5, NOW FOLLOWING MODE   3
          FOLLOWING MODE  3 WITH EIGENVALUE    0.44326 AND COMPONENTS
              0.15284 -0.33538 -0.46628 -0.57536 -0.56188  0.00000
          TRIM/QA LAMBDA FOR     TS MODE  =   1.28876181
          TRIM/QA LAMBDA FOR NON-TS MODES =  -1.28876181
          TRIM/QA STEP HAS LENGTH         =   0.150000
          RADIUS OF STEP TAKEN=   0.15000  CURRENT TRUST RADIUS=   0.15000
          TRANSFORMING DISPLACEMENT FROM INTERNALS TO CARTESIANS
          THE ROOT MEAN SQUARE ERROR IN ITERATION   1 IS   0.00434693
          THE ROOT MEAN SQUARE ERROR IN ITERATION   2 IS   0.00000947
          THE ROOT MEAN SQUARE ERROR IN ITERATION   3 IS   0.00000000

 BEGINNING GEOMETRY SEARCH POINT NSERCH=   2 ...

 COORDINATES OF ALL ATOMS ARE (ANGS)
   ATOM   CHARGE       X              Y              Z
 ------------------------------------------------------------
 CARBON      6.0   0.0000000000   0.0023355070  -0.0356707798
 OXYGEN      8.0   0.0000000000  -0.0002577484   1.2174346930
 HYDROGEN    1.0   0.0000000000   1.0092828105  -0.3268958460
 HYDROGEN    1.0   0.0000000000  -1.0177226405  -0.3678073683


                     --------------------
                     INTERNAL COORDINATES
                     --------------------

                 - - ATOMS - -         COORDINATE      COORDINATE
 NO.   TYPE    I  J  K  L  M  N        (BOHR,RAD)       (ANG,DEG)
 ----------------------------------------------------------------
   1 STRETCH   1  2                     2.3680310       1.2531082
   2 STRETCH   1  3                     1.9808393       1.0482151
   3 STRETCH   1  4                     2.0272395       1.0727690
   4 BEND      2  1  3                  1.8543997     106.2492757
   5 BEND      2  1  4                  1.8835064     107.9169653
   6 PLA.BEND  2  1  3  4               0.0000000       0.0000000

          INTERNUCLEAR DISTANCES (ANGS.)
          ------------------------------

                1 CARB       2 OXYG       3 HYDR       4 HYDR  

   1 CARB    0.0000000    1.2531082 *  1.0482151 *  1.0727690 *
   2 OXYG    1.2531082 *  0.0000000    1.8450282 *  1.8836739 *
   3 HYDR    1.0482151 *  1.8450282 *  0.0000000    2.0274183 *
   4 HYDR    1.0727690 *  1.8836739 *  2.0274183 *  0.0000000  

  * ... LESS THAN  3.000

 ...... END OF ONE-ELECTRON INTEGRALS ......
 STEP CPU TIME =     0.00 TOTAL CPU TIME =        0.0 (    0.0 MIN)
 TOTAL WALL CLOCK TIME=        0.1 SECONDS, CPU UTILIZATION IS  66.67%
 TOTAL NUMBER OF NONZERO TWO-ELECTRON INTEGRALS =                1803
          1 INTEGRAL RECORDS WERE STORED ON DISK FILE  8.
  ...... END OF TWO-ELECTRON INTEGRALS .....
 STEP CPU TIME =     0.00 TOTAL CPU TIME =        0.0 (    0.0 MIN)
 TOTAL WALL CLOCK TIME=        0.1 SECONDS, CPU UTILIZATION IS  66.67%

          --------------------------
                 RHF SCF CALCULATION
          --------------------------
     DENSITY MATRIX CONV=  1.00E-05

 ITER EX DEM     TOTAL ENERGY        E CHANGE  DENSITY CHANGE     ORB. GRAD
          ---------------START SECOND ORDER SCF---------------
   1  0  0     -108.9811465273  -108.9811465273   0.029023304   0.014813428
   2  1  0     -108.9819005844    -0.0007540572   0.013107192   0.003835911
   3  2  0     -108.9819588531    -0.0000582687   0.003234100   0.001568021
   4  3  0     -108.9819665411    -0.0000076880   0.000769609   0.000397362
   5  4  0     -108.9819671575    -0.0000006163   0.000718743   0.000215876
   6  5  0     -108.9819673309    -0.0000001734   0.000034131   0.000018088
   7  6  0     -108.9819673320    -0.0000000011   0.000006421   0.000002971
   8  7  0     -108.9819673320    -0.0000000000   0.000000630   0.000000369

          -----------------
          DENSITY CONVERGED
          -----------------
     TIME TO FORM FOCK OPERATORS=       0.0 SECONDS (       0.0 SEC/ITER)
     TIME TO SOLVE SCF EQUATIONS=       0.0 SECONDS (       0.0 SEC/ITER)

 FINAL RHF ENERGY IS     -108.9819673320 AFTER   8 ITERATIONS
 ...... END OF RHF CALCULATION ......
 STEP CPU TIME =     0.00 TOTAL CPU TIME =        0.0 (    0.0 MIN)
 TOTAL WALL CLOCK TIME=        0.1 SECONDS, CPU UTILIZATION IS  66.67%
 ..... END OF 1-ELECTRON GRADIENT ......
 STEP CPU TIME =     0.00 TOTAL CPU TIME =        0.0 (    0.0 MIN)
 TOTAL WALL CLOCK TIME=        0.1 SECONDS, CPU UTILIZATION IS  66.67%
 ...... END OF 2-ELECTRON GRADIENT ......
 STEP CPU TIME =     0.00 TOTAL CPU TIME =        0.0 (    0.0 MIN)
 TOTAL WALL CLOCK TIME=        0.1 SECONDS, CPU UTILIZATION IS  66.67%

          NSERCH=  2     ENERGY=    -108.9819673

                                 -----------------------
                                 GRADIENT (HARTREE/BOHR)
                                 -----------------------
        ATOM     ZNUC       DE/DX         DE/DY         DE/DZ
 --------------------------------------------------------------
    1  CARBON       6.0     0.0000000     0.0225764    -0.1614651
    2  OXYGEN       8.0     0.0000000     0.0040977     0.0164000
    3  HYDROGEN     1.0     0.0000000    -0.0366258     0.0791873
    4  HYDROGEN     1.0     0.0000000     0.0099518     0.0658778


                     --------------------
                     INTERNAL COORDINATES
                     --------------------

                 - - ATOMS - -         COORDINATE        GRADIENT
 NO.   TYPE    I  J  K  L  M  N         (ANG,DEG)     (H/B,H/RAD)
 ----------------------------------------------------------------
   1 STRETCH   1  2                     1.2531082       0.0163915
   2 STRETCH   1  3                     1.0482151      -0.0571845
   3 STRETCH   1  4                     1.0727690      -0.0298590
   4 BEND      2  1  3                106.2492757      -0.1305254
   5 BEND      2  1  4                107.9169653      -0.1207417
   6 PLA.BEND  2  1  3  4               0.0000000       0.0000000

 NOTE: CARTESIAN GRADIENTS ARE ALWAYS TAKEN TO TEST CONVERGENCE,
       SO THE FOLLOWING GRADIENTS ARE CARTESIAN.

          MAXIMUM GRADIENT = 0.1614651    RMS GRADIENT = 0.0569484

 NSERCH:   2  E=     -108.9819673320  GRAD. MAX=  0.1614651  R.M.S.=  0.0569484

          HESSIAN UPDATED USING THE POWELL FORMULA
 LOCAL CURVATURE   3 OF THE APPROXIMATE HESSIAN HAS EIGENVALUE=    0.396842
 *** THIS MODE HAS AN INCORRECT CURVATURE ***
 THE COMPONENTS OF THIS MODE FOLLOWS:
       -0.179109      -0.106107       0.353239       0.594850       0.691403
        0.000000
             ACTUAL ENERGY CHANGE WAS   0.0167179112
          PREDICTED ENERGY CHANGE WAS   0.0169342793 RATIO=  0.987
          OVERLAP OF CURRENT MODE   3 WITH PREVIOUS MODE IS     0.887232
          FOLLOWING MODE  3 WITH EIGENVALUE    0.39684 AND COMPONENTS
             -0.17911 -0.10611  0.35324  0.59485  0.69140  0.00000
          TRIM/QA LAMBDA FOR     TS MODE  =   2.07417077
          TRIM/QA LAMBDA FOR NON-TS MODES =  -2.07417077
          TRIM/QA STEP HAS LENGTH         =   0.106066
          RADIUS OF STEP TAKEN=   0.10607  CURRENT TRUST RADIUS=   0.10607
          TRANSFORMING DISPLACEMENT FROM INTERNALS TO CARTESIANS
          THE ROOT MEAN SQUARE ERROR IN ITERATION   1 IS   0.00479666
          THE ROOT MEAN SQUARE ERROR IN ITERATION   2 IS   0.00000300
          THE ROOT MEAN SQUARE ERROR IN ITERATION   3 IS   0.00000000

 BEGINNING GEOMETRY SEARCH POINT NSERCH=   3 ...

 COORDINATES OF ALL ATOMS ARE (ANGS)
   ATOM   CHARGE       X              Y              Z
 ------------------------------------------------------------
 CARBON      6.0   0.0000000000   0.0010264777  -0.0457735849
 OXYGEN      8.0   0.0000000000  -0.0014643098   1.2187217993
 HYDROGEN    1.0   0.0000000000   1.0413103728  -0.2934341973
 HYDROGEN    1.0   0.0000000000  -1.0150148137  -0.3014039501


                     --------------------
                     INTERNAL COORDINATES
                     --------------------

                 - - ATOMS - -         COORDINATE      COORDINATE
 NO.   TYPE    I  J  K  L  M  N        (BOHR,RAD)       (ANG,DEG)
 ----------------------------------------------------------------
   1 STRETCH   1  2                     2.3895544       1.2644978
   2 STRETCH   1  3                     2.0207935       1.0693579
   3 STRETCH   1  4                     1.9798763       1.0477055
   4 BEND      2  1  3                  1.8064856     103.5040014
   5 BEND      2  1  4                  1.8153053     104.0093330
   6 PLA.BEND  2  1  3  4               0.0000000       0.0000000

          INTERNUCLEAR DISTANCES (ANGS.)
          ------------------------------

                1 CARB       2 OXYG       3 HYDR       4 HYDR  

   1 CARB    0.0000000    1.2644978 *  1.0693579 *  1.0477055 *
   2 OXYG    1.2644978 *  0.0000000    1.8368437 *  1.8270377 *
   3 HYDR    1.0693579 *  1.8368437 *  0.0000000    2.0563406 *
   4 HYDR    1.0477055 *  1.8270377 *  2.0563406 *  0.0000000  

  * ... LESS THAN  3.000

 ...... END OF ONE-ELECTRON INTEGRALS ......
 STEP CPU TIME =     0.00 TOTAL CPU TIME =        0.0 (    0.0 MIN)
 TOTAL WALL CLOCK TIME=        0.1 SECONDS, CPU UTILIZATION IS  66.67%
 TOTAL NUMBER OF NONZERO TWO-ELECTRON INTEGRALS =                1801
          1 INTEGRAL RECORDS WERE STORED ON DISK FILE  8.
  ...... END OF TWO-ELECTRON INTEGRALS .....
 STEP CPU TIME =     0.00 TOTAL CPU TIME =        0.0 (    0.0 MIN)
 TOTAL WALL CLOCK TIME=        0.1 SECONDS, CPU UTILIZATION IS  66.67%

          --------------------------
                 RHF SCF CALCULATION
          --------------------------
     DENSITY MATRIX CONV=  1.00E-05

 ITER EX DEM     TOTAL ENERGY        E CHANGE  DENSITY CHANGE     ORB. GRAD
          ---------------START SECOND ORDER SCF---------------
   1  0  0     -108.9650845547  -108.9650845547   0.021467150   0.009964379
   2  1  0     -108.9654631021    -0.0003785474   0.007623201   0.002413884
   3  2  0     -108.9654900773    -0.0000269752   0.001499656   0.000499237
   4  3  0     -108.9654907569    -0.0000006797   0.000511262   0.000261725
   5  4  0     -108.9654909697    -0.0000002128   0.000319954   0.000094518
   6  5  0     -108.9654910055    -0.0000000358   0.000032903   0.000014635
   7  6  0     -108.9654910065    -0.0000000010   0.000009510   0.000003184
   8  7  0     -108.9654910065    -0.0000000000   0.000000687   0.000000298

          -----------------
          DENSITY CONVERGED
          -----------------
     TIME TO FORM FOCK OPERATORS=       0.0 SECONDS (       0.0 SEC/ITER)
     TIME TO SOLVE SCF EQUATIONS=       0.0 SECONDS (       0.0 SEC/ITER)

 FINAL RHF ENERGY IS     -108.9654910065 AFTER   8 ITERATIONS
 ...... END OF RHF CALCULATION ......
 STEP CPU TIME =     0.01 TOTAL CPU TIME =        0.0 (    0.0 MIN)
 TOTAL WALL CLOCK TIME=        0.1 SECONDS, CPU UTILIZATION IS  83.33%
 ..... END OF 1-ELECTRON GRADIENT ......
 STEP CPU TIME =     0.00 TOTAL CPU TIME =        0.0 (    0.0 MIN)
 TOTAL WALL CLOCK TIME=        0.1 SECONDS, CPU UTILIZATION IS  83.33%
 ...... END OF 2-ELECTRON GRADIENT ......
 STEP CPU TIME =     0.00 TOTAL CPU TIME =        0.0 (    0.0 MIN)
 TOTAL WALL CLOCK TIME=        0.1 SECONDS, CPU UTILIZATION IS  83.33%

          NSERCH=  3     ENERGY=    -108.9654910

                                 -----------------------
                                 GRADIENT (HARTREE/BOHR)
                                 -----------------------
        ATOM     ZNUC       DE/DX         DE/DY         DE/DZ
 --------------------------------------------------------------
    1  CARBON       6.0     0.0000000    -0.0228020    -0.1900909
    2  OXYGEN       8.0     0.0000000     0.0009129     0.0261485
    3  HYDROGEN     1.0     0.0000000    -0.0147343     0.0788196
    4  HYDROGEN     1.0     0.0000000     0.0366234     0.0851228


                     --------------------
                     INTERNAL COORDINATES
                     --------------------

                 - - ATOMS - -         COORDINATE        GRADIENT
 NO.   TYPE    I  J  K  L  M  N         (ANG,DEG)     (H/B,H/RAD)
 ----------------------------------------------------------------
   1 STRETCH   1  2                     1.2644978       0.0261466
   2 STRETCH   1  3                     1.0693579      -0.0325881
   3 STRETCH   1  4                     1.0477055      -0.0562858
   4 BEND      2  1  3                103.5040014      -0.1480518
   5 BEND      2  1  4                104.0093330      -0.1457474
   6 PLA.BEND  2  1  3  4               0.0000000       0.0000000

 NOTE: CARTESIAN GRADIENTS ARE ALWAYS TAKEN TO TEST CONVERGENCE,
       SO THE FOLLOWING GRADIENTS ARE CARTESIAN.

          MAXIMUM GRADIENT = 0.1900909    RMS GRADIENT = 0.0660529

 NSERCH:   3  E=     -108.9654910065  GRAD. MAX=  0.1900909  R.M.S.=  0.0660529

          HESSIAN UPDATED USING THE POWELL FORMULA
 LOCAL CURVATURE   3 OF THE APPROXIMATE HESSIAN HAS EIGENVALUE=    0.354598
 *** THIS MODE HAS AN INCORRECT CURVATURE ***
 THE COMPONENTS OF THIS MODE FOLLOWS:
       -0.211806       0.134317       0.005094       0.756119       0.604446
        0.000000
             ACTUAL ENERGY CHANGE WAS   0.0164763255
          PREDICTED ENERGY CHANGE WAS   0.0162600106 RATIO=  1.013
          OVERLAP OF CURRENT MODE   3 WITH PREVIOUS MODE IS     0.893176
          FOLLOWING MODE  3 WITH EIGENVALUE    0.35460 AND COMPONENTS
             -0.21181  0.13432  0.00509  0.75612  0.60445  0.00000
          TRIM/QA LAMBDA FOR     TS MODE  =   3.22674857
          TRIM/QA LAMBDA FOR NON-TS MODES =  -3.22674857
          TRIM/QA STEP HAS LENGTH         =   0.075000
          RADIUS OF STEP TAKEN=   0.07500  CURRENT TRUST RADIUS=   0.07500
          TRANSFORMING DISPLACEMENT FROM INTERNALS TO CARTESIANS
          THE ROOT MEAN SQUARE ERROR IN ITERATION   1 IS   0.00333490
          THE ROOT MEAN SQUARE ERROR IN ITERATION   2 IS   0.00000018
          THE ROOT MEAN SQUARE ERROR IN ITERATION   3 IS   0.00000000

 BEGINNING GEOMETRY SEARCH POINT NSERCH=   4 ...

 COORDINATES OF ALL ATOMS ARE (ANGS)
   ATOM   CHARGE       X              Y              Z
 ------------------------------------------------------------
 CARBON      6.0   0.0000000000   0.0005074622  -0.0546134491
 OXYGEN      8.0   0.0000000000  -0.0004536144   1.2201287774
 HYDROGEN    1.0   0.0000000000   1.0488313066  -0.2413458943
 HYDROGEN    1.0   0.0000000000  -1.0323963845  -0.2705672586


                     --------------------
                     INTERNAL COORDINATES
                     --------------------

                 - - ATOMS - -         COORDINATE      COORDINATE
 NO.   TYPE    I  J  K  L  M  N        (BOHR,RAD)       (ANG,DEG)
 ----------------------------------------------------------------
   1 STRETCH   1  2                     2.4089142       1.2747426
   2 STRETCH   1  3                     2.0122271       1.0648248
   3 STRETCH   1  4                     1.9941099       1.0552376
   4 BEND      2  1  3                  1.7478262     100.1430665
   5 BEND      2  1  4                  1.7761480     101.7657823
   6 PLA.BEND  2  1  3  4               0.0000000       0.0000000

          INTERNUCLEAR DISTANCES (ANGS.)
          ------------------------------

                1 CARB       2 OXYG       3 HYDR       4 HYDR  

   1 CARB    0.0000000    1.2747426 *  1.0648248 *  1.0552376 *
   2 OXYG    1.2747426 *  0.0000000    1.7991406 *  1.8130308 *
   3 HYDR    1.0648248 *  1.7991406 *  0.0000000    2.0814328 *
   4 HYDR    1.0552376 *  1.8130308 *  2.0814328 *  0.0000000  

  * ... LESS THAN  3.000

 ...... END OF ONE-ELECTRON INTEGRALS ......
 STEP CPU TIME =     0.00 TOTAL CPU TIME =        0.0 (    0.0 MIN)
 TOTAL WALL CLOCK TIME=        0.1 SECONDS, CPU UTILIZATION IS  83.33%
 TOTAL NUMBER OF NONZERO TWO-ELECTRON INTEGRALS =                1798
          1 INTEGRAL RECORDS WERE STORED ON DISK FILE  8.
  ...... END OF TWO-ELECTRON INTEGRALS .....
 STEP CPU TIME =     0.00 TOTAL CPU TIME =        0.0 (    0.0 MIN)
 TOTAL WALL CLOCK TIME=        0.1 SECONDS, CPU UTILIZATION IS  83.33%

          --------------------------
                 RHF SCF CALCULATION
          --------------------------
     DENSITY MATRIX CONV=  1.00E-05

 ITER EX DEM     TOTAL ENERGY        E CHANGE  DENSITY CHANGE     ORB. GRAD
          ---------------START SECOND ORDER SCF---------------
   1  0  0     -108.9497802747  -108.9497802747   0.018845074   0.008712808
   2  1  0     -108.9500518250    -0.0002715503   0.006584568   0.002054081
   3  2  0     -108.9500719329    -0.0000201079   0.000853738   0.000280896
   4  3  0     -108.9500721901    -0.0000002572   0.000322248   0.000164526
   5  4  0     -108.9500722676    -0.0000000775   0.000162910   0.000052692
   6  5  0     -108.9500722790    -0.0000000114   0.000037818   0.000007768
   7  6  0     -108.9500722799    -0.0000000009   0.000006519   0.000002703
   8  7  0     -108.9500722799    -0.0000000000   0.000001456   0.000000496

          -----------------
          DENSITY CONVERGED
          -----------------
     TIME TO FORM FOCK OPERATORS=       0.0 SECONDS (       0.0 SEC/ITER)
     TIME TO SOLVE SCF EQUATIONS=       0.0 SECONDS (       0.0 SEC/ITER)

 FINAL RHF ENERGY IS     -108.9500722799 AFTER   8 ITERATIONS
 ...... END OF RHF CALCULATION ......
 STEP CPU TIME =     0.00 TOTAL CPU TIME =        0.0 (    0.0 MIN)
 TOTAL WALL CLOCK TIME=        0.1 SECONDS, CPU UTILIZATION IS  83.33%
 ..... END OF 1-ELECTRON GRADIENT ......
 STEP CPU TIME =     0.00 TOTAL CPU TIME =        0.0 (    0.0 MIN)
 TOTAL WALL CLOCK TIME=        0.1 SECONDS, CPU UTILIZATION IS  71.43%
 ...... END OF 2-ELECTRON GRADIENT ......
 STEP CPU TIME =     0.00 TOTAL CPU TIME =        0.0 (    0.0 MIN)
 TOTAL WALL CLOCK TIME=        0.1 SECONDS, CPU UTILIZATION IS  71.43%

          NSERCH=  4     ENERGY=    -108.9500723

                                 -----------------------
                                 GRADIENT (HARTREE/BOHR)
                                 -----------------------
        ATOM     ZNUC       DE/DX         DE/DY         DE/DZ
 --------------------------------------------------------------
    1  CARBON       6.0     0.0000000    -0.0118001    -0.2110098
    2  OXYGEN       8.0     0.0000000     0.0037532     0.0342716
    3  HYDROGEN     1.0     0.0000000    -0.0213356     0.0888945
    4  HYDROGEN     1.0     0.0000000     0.0293825     0.0878437


                     --------------------
                     INTERNAL COORDINATES
                     --------------------

                 - - ATOMS - -         COORDINATE        GRADIENT
 NO.   TYPE    I  J  K  L  M  N         (ANG,DEG)     (H/B,H/RAD)
 ----------------------------------------------------------------
   1 STRETCH   1  2                     1.2747426       0.0342688
   2 STRETCH   1  3                     1.0648248      -0.0365939
   3 STRETCH   1  4                     1.0552376      -0.0467378
   4 BEND      2  1  3                100.1430665      -0.1685753
   5 BEND      2  1  4                101.7657823      -0.1594717
   6 PLA.BEND  2  1  3  4               0.0000000       0.0000000

 NOTE: CARTESIAN GRADIENTS ARE ALWAYS TAKEN TO TEST CONVERGENCE,
       SO THE FOLLOWING GRADIENTS ARE CARTESIAN.

          MAXIMUM GRADIENT = 0.2110098    RMS GRADIENT = 0.0723362

 NSERCH:   4  E=     -108.9500722799  GRAD. MAX=  0.2110098  R.M.S.=  0.0723362

          HESSIAN UPDATED USING THE POWELL FORMULA
 LOCAL CURVATURE   3 OF THE APPROXIMATE HESSIAN HAS EIGENVALUE=    0.348519
 *** THIS MODE HAS AN INCORRECT CURVATURE ***
 THE COMPONENTS OF THIS MODE FOLLOWS:
        0.264118      -0.105919      -0.125617      -0.735547      -0.601842
        0.000000
             ACTUAL ENERGY CHANGE WAS   0.0154187266
          PREDICTED ENERGY CHANGE WAS   0.0154026993 RATIO=  1.001
          OVERLAP OF CURRENT MODE   3 WITH PREVIOUS MODE IS     0.990751
          FOLLOWING MODE  3 WITH EIGENVALUE    0.34852 AND COMPONENTS
              0.26412 -0.10592 -0.12562 -0.73555 -0.60184  0.00000
          TRIM/QA LAMBDA FOR     TS MODE  =   1.94742371
          TRIM/QA LAMBDA FOR NON-TS MODES =  -1.94742371
          TRIM/QA STEP HAS LENGTH         =   0.150000
          RADIUS OF STEP TAKEN=   0.15000  CURRENT TRUST RADIUS=   0.15000
          TRANSFORMING DISPLACEMENT FROM INTERNALS TO CARTESIANS
          THE ROOT MEAN SQUARE ERROR IN ITERATION   1 IS   0.01246879
          THE ROOT MEAN SQUARE ERROR IN ITERATION   2 IS   0.00000176
          THE ROOT MEAN SQUARE ERROR IN ITERATION   3 IS   0.00000000

 BEGINNING GEOMETRY SEARCH POINT NSERCH=   5 ...

 COORDINATES OF ALL ATOMS ARE (ANGS)
   ATOM   CHARGE       X              Y              Z
 ------------------------------------------------------------
 CARBON      6.0   0.0000000000  -0.0011770534  -0.0752171016
 OXYGEN      8.0   0.0000000000   0.0010176339   1.2250708313
 HYDROGEN    1.0   0.0000000000   1.0554832318  -0.1439291274
 HYDROGEN    1.0   0.0000000000  -1.0423408422  -0.2010938183


                     --------------------
                     INTERNAL COORDINATES
                     --------------------

                 - - ATOMS - -         COORDINATE      COORDINATE
 NO.   TYPE    I  J  K  L  M  N        (BOHR,RAD)       (ANG,DEG)
 ----------------------------------------------------------------
   1 STRETCH   1  2                     2.4571914       1.3002898
   2 STRETCH   1  3                     2.0010158       1.0588920
   3 STRETCH   1  4                     1.9818415       1.0487454
   4 BEND      2  1  3                  1.6340446      93.6238592
   5 BEND      2  1  4                  1.6928002      96.9903094
   6 PLA.BEND  2  1  3  4               0.0000000       0.0000000

          INTERNUCLEAR DISTANCES (ANGS.)
          ------------------------------

                1 CARB       2 OXYG       3 HYDR       4 HYDR  

   1 CARB    0.0000000    1.3002898 *  1.0588920 *  1.0487454 *
   2 OXYG    1.3002898 *  0.0000000    1.7280216 *  1.7670717 *
   3 HYDR    1.0588920 *  1.7280216 *  0.0000000    2.0986028 *
   4 HYDR    1.0487454 *  1.7670717 *  2.0986028 *  0.0000000  

  * ... LESS THAN  3.000

 ...... END OF ONE-ELECTRON INTEGRALS ......
 STEP CPU TIME =     0.00 TOTAL CPU TIME =        0.0 (    0.0 MIN)
 TOTAL WALL CLOCK TIME=        0.1 SECONDS, CPU UTILIZATION IS  71.43%
 TOTAL NUMBER OF NONZERO TWO-ELECTRON INTEGRALS =                1789
          1 INTEGRAL RECORDS WERE STORED ON DISK FILE  8.
  ...... END OF TWO-ELECTRON INTEGRALS .....
 STEP CPU TIME =     0.00 TOTAL CPU TIME =        0.0 (    0.0 MIN)
 TOTAL WALL CLOCK TIME=        0.1 SECONDS, CPU UTILIZATION IS  71.43%

          --------------------------
                 RHF SCF CALCULATION
          --------------------------
     DENSITY MATRIX CONV=  1.00E-05

 ITER EX DEM     TOTAL ENERGY        E CHANGE  DENSITY CHANGE     ORB. GRAD
          ---------------START SECOND ORDER SCF---------------
   1  0  0     -108.9097041290  -108.9097041290   0.044715209   0.021761387
   2  1  0     -108.9111326622    -0.0014285332   0.015843506   0.005062037
   3  2  0     -108.9112384809    -0.0001058187   0.002972380   0.001136259
   4  3  0     -108.9112424413    -0.0000039604   0.000738809   0.000423328
   5  4  0     -108.9112431583    -0.0000007169   0.000101721   0.000042918
   6  5  0     -108.9112431706    -0.0000000123   0.000037445   0.000011711
   7  6  0     -108.9112431718    -0.0000000013   0.000010359   0.000003046
   8  7  0     -108.9112431719    -0.0000000001   0.000008814   0.000001820
   9  8  0     -108.9112431720    -0.0000000000   0.000000904   0.000000309

          -----------------
          DENSITY CONVERGED
          -----------------
     TIME TO FORM FOCK OPERATORS=       0.0 SECONDS (       0.0 SEC/ITER)
     TIME TO SOLVE SCF EQUATIONS=       0.0 SECONDS (       0.0 SEC/ITER)

 FINAL RHF ENERGY IS     -108.9112431720 AFTER   9 ITERATIONS
 ...... END OF RHF CALCULATION ......
 STEP CPU TIME =     0.00 TOTAL CPU TIME =        0.0 (    0.0 MIN)
 TOTAL WALL CLOCK TIME=        0.1 SECONDS, CPU UTILIZATION IS  71.43%
 ..... END OF 1-ELECTRON GRADIENT ......
 STEP CPU TIME =     0.00 TOTAL CPU TIME =        0.0 (    0.0 MIN)
 TOTAL WALL CLOCK TIME=        0.1 SECONDS, CPU UTILIZATION IS  71.43%
 ...... END OF 2-ELECTRON GRADIENT ......
 STEP CPU TIME =     0.00 TOTAL CPU TIME =        0.0 (    0.0 MIN)
 TOTAL WALL CLOCK TIME=        0.1 SECONDS, CPU UTILIZATION IS  71.43%

          NSERCH=  5     ENERGY=    -108.9112432

                                 -----------------------
                                 GRADIENT (HARTREE/BOHR)
                                 -----------------------
        ATOM     ZNUC       DE/DX         DE/DY         DE/DZ
 --------------------------------------------------------------
    1  CARBON       6.0     0.0000000    -0.0141944    -0.2566428
    2  OXYGEN       8.0     0.0000000     0.0079582     0.0529873
    3  HYDROGEN     1.0     0.0000000    -0.0336067     0.1046628
    4  HYDROGEN     1.0     0.0000000     0.0398430     0.0989927


                     --------------------
                     INTERNAL COORDINATES
                     --------------------

                 - - ATOMS - -         COORDINATE        GRADIENT
 NO.   TYPE    I  J  K  L  M  N         (ANG,DEG)     (H/B,H/RAD)
 ----------------------------------------------------------------
   1 STRETCH   1  2                     1.3002898       0.0530007
   2 STRETCH   1  3                     1.0588920      -0.0403275
   3 STRETCH   1  4                     1.0487454      -0.0514367
   4 BEND      2  1  3                 93.6238592      -0.2046268
   5 BEND      2  1  4                 96.9903094      -0.1852919
   6 PLA.BEND  2  1  3  4               0.0000000       0.0000000

 NOTE: CARTESIAN GRADIENTS ARE ALWAYS TAKEN TO TEST CONVERGENCE,
       SO THE FOLLOWING GRADIENTS ARE CARTESIAN.

          MAXIMUM GRADIENT = 0.2566428    RMS GRADIENT = 0.0877538

 NSERCH:   5  E=     -108.9112431720  GRAD. MAX=  0.2566428  R.M.S.=  0.0877538

          HESSIAN UPDATED USING THE POWELL FORMULA
 LOCAL CURVATURE   3 OF THE APPROXIMATE HESSIAN HAS EIGENVALUE=    0.321873
 *** THIS MODE HAS AN INCORRECT CURVATURE ***
 THE COMPONENTS OF THIS MODE FOLLOWS:
        0.296295      -0.055723      -0.052919      -0.783432      -0.540867
        0.000000
             ACTUAL ENERGY CHANGE WAS   0.0388291080
          PREDICTED ENERGY CHANGE WAS   0.0390751581 RATIO=  0.994
          OVERLAP OF CURRENT MODE   3 WITH PREVIOUS MODE IS     0.992575
          FOLLOWING MODE  3 WITH EIGENVALUE    0.32187 AND COMPONENTS
              0.29630 -0.05572 -0.05292 -0.78343 -0.54087  0.00000
          TRIM/QA LAMBDA FOR     TS MODE  =   1.26597247
          TRIM/QA LAMBDA FOR NON-TS MODES =  -1.26597247
          TRIM/QA STEP HAS LENGTH         =   0.300000
          RADIUS OF STEP TAKEN=   0.30000  CURRENT TRUST RADIUS=   0.30000
          TRANSFORMING DISPLACEMENT FROM INTERNALS TO CARTESIANS
          THE ROOT MEAN SQUARE ERROR IN ITERATION   1 IS   0.05587569
          THE ROOT MEAN SQUARE ERROR IN ITERATION   2 IS   0.00013937
          THE ROOT MEAN SQUARE ERROR IN ITERATION   3 IS   0.00000002
          THE ROOT MEAN SQUARE ERROR IN ITERATION   4 IS   0.00000000

 BEGINNING GEOMETRY SEARCH POINT NSERCH=   6 ...

 COORDINATES OF ALL ATOMS ARE (ANGS)
   ATOM   CHARGE       X              Y              Z
 ------------------------------------------------------------
 CARBON      6.0   0.0000000000  -0.0053512674  -0.1168556680
 OXYGEN      8.0   0.0000000000   0.0062003949   1.2359705134
 HYDROGEN    1.0   0.0000000000   1.0363828077   0.0660556311
 HYDROGEN    1.0   0.0000000000  -1.0557929222  -0.0882811048


                     --------------------
                     INTERNAL COORDINATES
                     --------------------

                 - - ATOMS - -         COORDINATE      COORDINATE
 NO.   TYPE    I  J  K  L  M  N        (BOHR,RAD)       (ANG,DEG)
 ----------------------------------------------------------------
   1 STRETCH   1  2                     2.5565640       1.3528755
   2 STRETCH   1  3                     1.9987070       1.0576703
   3 STRETCH   1  4                     1.9857812       1.0508302
   4 BEND      2  1  3                  1.3884459      79.5520882
   5 BEND      2  1  4                  1.5521393      88.9310316
   6 PLA.BEND  2  1  3  4               0.0000000       0.0000000

          INTERNUCLEAR DISTANCES (ANGS.)
          ------------------------------

                1 CARB       2 OXYG       3 HYDR       4 HYDR  

   1 CARB    0.0000000    1.3528755 *  1.0576703 *  1.0508302 *
   2 OXYG    1.3528755 *  0.0000000    1.5588382 *  1.6974900 *
   3 HYDR    1.0576703 *  1.5588382 *  0.0000000    2.0978606 *
   4 HYDR    1.0508302 *  1.6974900 *  2.0978606 *  0.0000000  

  * ... LESS THAN  3.000

 ...... END OF ONE-ELECTRON INTEGRALS ......
 STEP CPU TIME =     0.00 TOTAL CPU TIME =        0.0 (    0.0 MIN)
 TOTAL WALL CLOCK TIME=        0.1 SECONDS, CPU UTILIZATION IS  71.43%
 TOTAL NUMBER OF NONZERO TWO-ELECTRON INTEGRALS =                1777
          1 INTEGRAL RECORDS WERE STORED ON DISK FILE  8.
  ...... END OF TWO-ELECTRON INTEGRALS .....
 STEP CPU TIME =     0.00 TOTAL CPU TIME =        0.0 (    0.0 MIN)
 TOTAL WALL CLOCK TIME=        0.1 SECONDS, CPU UTILIZATION IS  71.43%

          --------------------------
                 RHF SCF CALCULATION
          --------------------------
     DENSITY MATRIX CONV=  1.00E-05

 ITER EX DEM     TOTAL ENERGY        E CHANGE  DENSITY CHANGE     ORB. GRAD
          ---------------START SECOND ORDER SCF---------------
   1  0  0     -108.8091565499  -108.8091565499   0.100239592   0.045549941
   2  1  0     -108.8172272605    -0.0080707106   0.051692706   0.011361986
   3  2  0     -108.8182868712    -0.0010596107   0.009768610   0.003860252
   4  3  0     -108.8183578533    -0.0000709821   0.005993012   0.002480019
   5  4  0     -108.8183873648    -0.0000295115   0.005125840   0.001052991
   6  5  0     -108.8183954206    -0.0000080557   0.001047244   0.000339876
   7  6  0     -108.8183961288    -0.0000007082   0.000537921   0.000140743
   8  7  0     -108.8183962775    -0.0000001487   0.000098672   0.000028888
   9  8  0     -108.8183962843    -0.0000000068   0.000059090   0.000014723
  10  9  0     -108.8183962857    -0.0000000014   0.000006849   0.000002981
  11 10  0     -108.8183962858    -0.0000000001   0.000001938   0.000000561

          -----------------
          DENSITY CONVERGED
          -----------------
     TIME TO FORM FOCK OPERATORS=       0.0 SECONDS (       0.0 SEC/ITER)
     TIME TO SOLVE SCF EQUATIONS=       0.0 SECONDS (       0.0 SEC/ITER)

 FINAL RHF ENERGY IS     -108.8183962858 AFTER  11 ITERATIONS
 ...... END OF RHF CALCULATION ......
 STEP CPU TIME =     0.00 TOTAL CPU TIME =        0.0 (    0.0 MIN)
 TOTAL WALL CLOCK TIME=        0.1 SECONDS, CPU UTILIZATION IS  71.43%
 ..... END OF 1-ELECTRON GRADIENT ......
 STEP CPU TIME =     0.01 TOTAL CPU TIME =        0.1 (    0.0 MIN)
 TOTAL WALL CLOCK TIME=        0.1 SECONDS, CPU UTILIZATION IS  85.71%
 ...... END OF 2-ELECTRON GRADIENT ......
 STEP CPU TIME =     0.00 TOTAL CPU TIME =        0.1 (    0.0 MIN)
 TOTAL WALL CLOCK TIME=        0.1 SECONDS, CPU UTILIZATION IS  85.71%

          NSERCH=  6     ENERGY=    -108.8183963

                                 -----------------------
                                 GRADIENT (HARTREE/BOHR)
                                 -----------------------
        ATOM     ZNUC       DE/DX         DE/DY         DE/DZ
 --------------------------------------------------------------
    1  CARBON       6.0     0.0000000    -0.0067454    -0.2999812
    2  OXYGEN       8.0     0.0000000     0.0166769     0.0695932
    3  HYDROGEN     1.0     0.0000000    -0.0582534     0.1216398
    4  HYDROGEN     1.0     0.0000000     0.0483219     0.1087483


                     --------------------
                     INTERNAL COORDINATES
                     --------------------

                 - - ATOMS - -         COORDINATE        GRADIENT
 NO.   TYPE    I  J  K  L  M  N         (ANG,DEG)     (H/B,H/RAD)
 ----------------------------------------------------------------
   1 STRETCH   1  2                     1.3528755       0.0697330
   2 STRETCH   1  3                     1.0576703      -0.0363395
   3 STRETCH   1  4                     1.0508302      -0.0453469
   4 BEND      2  1  3                 79.5520882      -0.2595945
   5 BEND      2  1  4                 88.9310316      -0.2184798
   6 PLA.BEND  2  1  3  4               0.0000000       0.0000000

 NOTE: CARTESIAN GRADIENTS ARE ALWAYS TAKEN TO TEST CONVERGENCE,
       SO THE FOLLOWING GRADIENTS ARE CARTESIAN.

          MAXIMUM GRADIENT = 0.2999812    RMS GRADIENT = 0.1030802

 NSERCH:   6  E=     -108.8183962858  GRAD. MAX=  0.2999812  R.M.S.=  0.1030802

          HESSIAN UPDATED USING THE POWELL FORMULA
 LOCAL CURVATURE   3 OF THE APPROXIMATE HESSIAN HAS EIGENVALUE=    0.225898
 *** THIS MODE HAS AN INCORRECT CURVATURE ***
 THE COMPONENTS OF THIS MODE FOLLOWS:
       -0.188057       0.144952      -0.055794      -0.179050       0.953127
        0.000000
             ACTUAL ENERGY CHANGE WAS   0.0928468862
          PREDICTED ENERGY CHANGE WAS   0.0960818661 RATIO=  0.966
          OVERLAP OF CURRENT MODE   2 WITH PREVIOUS MODE IS     0.897346
 WARNING!! MODE SWITCHING WAS FOLLOWING MODE   3, NOW FOLLOWING MODE   2
          FOLLOWING MODE  2 WITH EIGENVALUE    0.21686 AND COMPONENTS
              0.30459 -0.01444 -0.07549 -0.94188 -0.11906  0.00000
          TRIM/QA LAMBDA FOR     TS MODE  =   1.76477981
          TRIM/QA LAMBDA FOR NON-TS MODES =  -1.76477981
          TRIM/QA STEP HAS LENGTH         =   0.212132
          RADIUS OF STEP TAKEN=   0.21213  CURRENT TRUST RADIUS=   0.21213
          TRANSFORMING DISPLACEMENT FROM INTERNALS TO CARTESIANS
          THE ROOT MEAN SQUARE ERROR IN ITERATION   1 IS   0.03006394
          THE ROOT MEAN SQUARE ERROR IN ITERATION   2 IS   0.00005446
          THE ROOT MEAN SQUARE ERROR IN ITERATION   3 IS   0.00000000

 BEGINNING GEOMETRY SEARCH POINT NSERCH=   7 ...

 COORDINATES OF ALL ATOMS ARE (ANGS)
   ATOM   CHARGE       X              Y              Z
 ------------------------------------------------------------
 CARBON      6.0   0.0000000000  -0.0163458921  -0.1376005925
 OXYGEN      8.0   0.0000000000   0.0182774893   1.2460559709
 HYDROGEN    1.0   0.0000000000   0.9837950884   0.2266781506
 HYDROGEN    1.0   0.0000000000  -1.0639662908  -0.1619608413


                     --------------------
                     INTERNAL COORDINATES
                     --------------------

                 - - ATOMS - -         COORDINATE      COORDINATE
 NO.   TYPE    I  J  K  L  M  N        (BOHR,RAD)       (ANG,DEG)
 ----------------------------------------------------------------
   1 STRETCH   1  2                     2.6155503       1.3840897
   2 STRETCH   1  3                     2.0114542       1.0644158
   3 STRETCH   1  4                     1.9802506       1.0479036
   4 BEND      2  1  3                  1.1964855      68.5535714
   5 BEND      2  1  4                  1.6190630      92.7654741
   6 PLA.BEND  2  1  3  4               0.0000000       0.0000000

          INTERNUCLEAR DISTANCES (ANGS.)
          ------------------------------

                1 CARB       2 OXYG       3 HYDR       4 HYDR  

   1 CARB    0.0000000    1.3840897 *  1.0644158 *  1.0479036 *
   2 OXYG    1.3840897 *  0.0000000    1.4040496 *  1.7758837 *
   3 HYDR    1.0644158 *  1.4040496 *  0.0000000    2.0843145 *
   4 HYDR    1.0479036 *  1.7758837 *  2.0843145 *  0.0000000  

  * ... LESS THAN  3.000

 ...... END OF ONE-ELECTRON INTEGRALS ......
 STEP CPU TIME =     0.00 TOTAL CPU TIME =        0.1 (    0.0 MIN)
 TOTAL WALL CLOCK TIME=        0.1 SECONDS, CPU UTILIZATION IS  85.71%
 TOTAL NUMBER OF NONZERO TWO-ELECTRON INTEGRALS =                1777
          1 INTEGRAL RECORDS WERE STORED ON DISK FILE  8.
  ...... END OF TWO-ELECTRON INTEGRALS .....
 STEP CPU TIME =     0.00 TOTAL CPU TIME =        0.1 (    0.0 MIN)
 TOTAL WALL CLOCK TIME=        0.1 SECONDS, CPU UTILIZATION IS  85.71%

          --------------------------
                 RHF SCF CALCULATION
          --------------------------
     DENSITY MATRIX CONV=  1.00E-05

 ITER EX DEM     TOTAL ENERGY        E CHANGE  DENSITY CHANGE     ORB. GRAD
          ---------------START SECOND ORDER SCF---------------
   1  0  0     -108.7673498710  -108.7673498710   0.123451244   0.028323455
   2  1  0     -108.7755969562    -0.0082470851   0.096344628   0.013665531
   3  2  0     -108.7779129479    -0.0023159917   0.014814008   0.004803615
   4  3  0     -108.7780900206    -0.0001770728   0.018631798   0.004360868
   5  4  0     -108.7782054221    -0.0001154015   0.007137941   0.001234648
   6  5  0     -108.7782283393    -0.0000229172   0.001918130   0.000485487
   7  6  0     -108.7782303584    -0.0000020191   0.000535924   0.000162599
   8  7  0     -108.7782305911    -0.0000002327   0.000259540   0.000081041
   9  8  0     -108.7782306198    -0.0000000287   0.000053506   0.000019024
  10  9  0     -108.7782306219    -0.0000000022   0.000008999   0.000004157
  11 10  0     -108.7782306220    -0.0000000001   0.000002166   0.000000904

          -----------------
          DENSITY CONVERGED
          -----------------
     TIME TO FORM FOCK OPERATORS=       0.0 SECONDS (       0.0 SEC/ITER)
     TIME TO SOLVE SCF EQUATIONS=       0.0 SECONDS (       0.0 SEC/ITER)

 FINAL RHF ENERGY IS     -108.7782306220 AFTER  11 ITERATIONS
 ...... END OF RHF CALCULATION ......
 STEP CPU TIME =     0.01 TOTAL CPU TIME =        0.1 (    0.0 MIN)
 TOTAL WALL CLOCK TIME=        0.1 SECONDS, CPU UTILIZATION IS  87.50%
 ..... END OF 1-ELECTRON GRADIENT ......
 STEP CPU TIME =     0.00 TOTAL CPU TIME =        0.1 (    0.0 MIN)
 TOTAL WALL CLOCK TIME=        0.1 SECONDS, CPU UTILIZATION IS  87.50%
 ...... END OF 2-ELECTRON GRADIENT ......
 STEP CPU TIME =     0.00 TOTAL CPU TIME =        0.1 (    0.0 MIN)
 TOTAL WALL CLOCK TIME=        0.1 SECONDS, CPU UTILIZATION IS  87.50%

[...]
   4  3  0     -108.8080811871    -0.0000000006   0.000032265   0.000005569
   5  4  0     -108.8080811873    -0.0000000002   0.000004111   0.000001933
   6  5  0     -108.8080811874    -0.0000000000   0.000001530   0.000000598

          -----------------
          DENSITY CONVERGED
          -----------------
     TIME TO FORM FOCK OPERATORS=       0.0 SECONDS (       0.0 SEC/ITER)
     TIME TO SOLVE SCF EQUATIONS=       0.0 SECONDS (       0.0 SEC/ITER)

 FINAL RHF ENERGY IS     -108.8080811874 AFTER   6 ITERATIONS
 ...... END OF RHF CALCULATION ......
 STEP CPU TIME =     0.00 TOTAL CPU TIME =        0.1 (    0.0 MIN)
 TOTAL WALL CLOCK TIME=        0.1 SECONDS, CPU UTILIZATION IS  90.00%
 ..... END OF 1-ELECTRON GRADIENT ......
 STEP CPU TIME =     0.00 TOTAL CPU TIME =        0.1 (    0.0 MIN)
 TOTAL WALL CLOCK TIME=        0.1 SECONDS, CPU UTILIZATION IS  90.00%
 ...... END OF 2-ELECTRON GRADIENT ......
 STEP CPU TIME =     0.00 TOTAL CPU TIME =        0.1 (    0.0 MIN)
 TOTAL WALL CLOCK TIME=        0.1 SECONDS, CPU UTILIZATION IS  90.00%

          NSERCH= 15     ENERGY=    -108.8080812

                                 -----------------------
                                 GRADIENT (HARTREE/BOHR)
                                 -----------------------
        ATOM     ZNUC       DE/DX         DE/DY         DE/DZ
 --------------------------------------------------------------
    1  CARBON       6.0     0.0000000     0.0000107     0.0000778
    2  OXYGEN       8.0     0.0000000     0.0000342    -0.0000889
    3  HYDROGEN     1.0     0.0000000    -0.0000546     0.0000140
    4  HYDROGEN     1.0     0.0000000     0.0000097    -0.0000028


                     --------------------
                     INTERNAL COORDINATES
                     --------------------

                 - - ATOMS - -         COORDINATE        GRADIENT
 NO.   TYPE    I  J  K  L  M  N         (ANG,DEG)     (H/B,H/RAD)
 ----------------------------------------------------------------
   1 STRETCH   1  2                     1.2967920      -0.0000862
   2 STRETCH   1  3                     1.2016441      -0.0000418
   3 STRETCH   1  4                     1.1246615      -0.0000078
   4 BEND      2  1  3                 57.9649001      -0.0000860
   5 BEND      2  1  4                117.0767116       0.0000136
   6 PLA.BEND  2  1  3  4               0.0000000       0.0000000

 NOTE: CARTESIAN GRADIENTS ARE ALWAYS TAKEN TO TEST CONVERGENCE,
       SO THE FOLLOWING GRADIENTS ARE CARTESIAN.

          MAXIMUM GRADIENT = 0.0000889    RMS GRADIENT = 0.0000393

 NSERCH:  15  E=     -108.8080811874  GRAD. MAX=  0.0000889  R.M.S.=  0.0000393

          HESSIAN UPDATED USING THE POWELL FORMULA
             ACTUAL ENERGY CHANGE WAS  -0.0000000689
          PREDICTED ENERGY CHANGE WAS  -0.0000000574 RATIO=  1.202
          OVERLAP OF CURRENT MODE   1 WITH PREVIOUS MODE IS     0.998123
          FOLLOWING MODE  1 WITH EIGENVALUE   -1.60035 AND COMPONENTS
              0.01324  0.35822  0.03563 -0.90407 -0.22998  0.00000
          TS SEARCH, CORRECT HESSIAN, TRYING PURE NR STEP
               NR STEP HAS LENGTH         =   0.000130
          RADIUS OF STEP TAKEN=   0.00013  CURRENT TRUST RADIUS=   0.05000
          TRANSFORMING DISPLACEMENT FROM INTERNALS TO CARTESIANS
          THE ROOT MEAN SQUARE ERROR IN ITERATION   1 IS   0.00000000

 BEGINNING GEOMETRY SEARCH POINT NSERCH=  16 ...

 COORDINATES OF ALL ATOMS ARE (ANGS)
   ATOM   CHARGE       X              Y              Z
 ------------------------------------------------------------
 CARBON      6.0   0.0000000000  -0.0507470190  -0.0822330310
 OXYGEN      8.0   0.0000000000   0.0437674093   1.2111491043
 HYDROGEN    1.0   0.0000000000   1.0117107214   0.4792428478
 HYDROGEN    1.0   0.0000000000  -1.0868170089  -0.5197804687


                     --------------------
                     INTERNAL COORDINATES
                     --------------------

                 - - ATOMS - -         COORDINATE      COORDINATE
 NO.   TYPE    I  J  K  L  M  N        (BOHR,RAD)       (ANG,DEG)
 ----------------------------------------------------------------
   1 STRETCH   1  2                     2.4506550       1.2968309
   2 STRETCH   1  3                     2.2708749       1.2016953
   3 STRETCH   1  4                     2.1253233       1.1246727
   4 BEND      2  1  3                  1.0116881      57.9654573
   5 BEND      2  1  4                  2.0433359     117.0745250
   6 PLA.BEND  2  1  3  4               0.0000000       0.0000000

          INTERNUCLEAR DISTANCES (ANGS.)
          ------------------------------

                1 CARB       2 OXYG       3 HYDR       4 HYDR  

   1 CARB    0.0000000    1.2968309 *  1.2016953 *  1.1246727 *
   2 OXYG    1.2968309 *  0.0000000    1.2135077 *  2.0674473 *
   3 HYDR    1.2016953 *  1.2135077 *  0.0000000    2.3241915 *
   4 HYDR    1.1246727 *  2.0674473 *  2.3241915 *  0.0000000  

  * ... LESS THAN  3.000

 ...... END OF ONE-ELECTRON INTEGRALS ......
 STEP CPU TIME =     0.00 TOTAL CPU TIME =        0.1 (    0.0 MIN)
 TOTAL WALL CLOCK TIME=        0.1 SECONDS, CPU UTILIZATION IS  90.00%
 TOTAL NUMBER OF NONZERO TWO-ELECTRON INTEGRALS =                1790
          1 INTEGRAL RECORDS WERE STORED ON DISK FILE  8.
  ...... END OF TWO-ELECTRON INTEGRALS .....
 STEP CPU TIME =     0.00 TOTAL CPU TIME =        0.1 (    0.0 MIN)
 TOTAL WALL CLOCK TIME=        0.1 SECONDS, CPU UTILIZATION IS  90.00%

          --------------------------
                 RHF SCF CALCULATION
          --------------------------
     DENSITY MATRIX CONV=  1.00E-05

 ITER EX DEM     TOTAL ENERGY        E CHANGE  DENSITY CHANGE     ORB. GRAD
          ---------------START SECOND ORDER SCF---------------
   1  0  0     -108.8080811937  -108.8080811937   0.000012482   0.000014648
   2  1  0     -108.8080811941    -0.0000000004   0.000008391   0.000002253
   3  2  0     -108.8080811941    -0.0000000001   0.000005081   0.000001265

          -----------------
          DENSITY CONVERGED
          -----------------
     TIME TO FORM FOCK OPERATORS=       0.0 SECONDS (       0.0 SEC/ITER)
     TIME TO SOLVE SCF EQUATIONS=       0.0 SECONDS (       0.0 SEC/ITER)

 FINAL RHF ENERGY IS     -108.8080811941 AFTER   3 ITERATIONS
 ...... END OF RHF CALCULATION ......
 STEP CPU TIME =     0.00 TOTAL CPU TIME =        0.1 (    0.0 MIN)
 TOTAL WALL CLOCK TIME=        0.1 SECONDS, CPU UTILIZATION IS  90.00%
 ..... END OF 1-ELECTRON GRADIENT ......
 STEP CPU TIME =     0.00 TOTAL CPU TIME =        0.1 (    0.0 MIN)
 TOTAL WALL CLOCK TIME=        0.1 SECONDS, CPU UTILIZATION IS  90.00%
 ...... END OF 2-ELECTRON GRADIENT ......
 STEP CPU TIME =     0.00 TOTAL CPU TIME =        0.1 (    0.0 MIN)
 TOTAL WALL CLOCK TIME=        0.1 SECONDS, CPU UTILIZATION IS  81.82%

          NSERCH= 16     ENERGY=    -108.8080812

                                 -----------------------
                                 GRADIENT (HARTREE/BOHR)
                                 -----------------------
        ATOM     ZNUC       DE/DX         DE/DY         DE/DZ
 --------------------------------------------------------------
    1  CARBON       6.0     0.0000000    -0.0000008     0.0000002
    2  OXYGEN       8.0     0.0000000     0.0000141    -0.0000068
    3  HYDROGEN     1.0     0.0000000    -0.0000132     0.0000088
    4  HYDROGEN     1.0     0.0000000    -0.0000002    -0.0000022


                     --------------------
                     INTERNAL COORDINATES
                     --------------------

                 - - ATOMS - -         COORDINATE        GRADIENT
 NO.   TYPE    I  J  K  L  M  N         (ANG,DEG)     (H/B,H/RAD)
 ----------------------------------------------------------------
   1 STRETCH   1  2                     1.2968309      -0.0000057
   2 STRETCH   1  3                     1.2016953      -0.0000076
   3 STRETCH   1  4                     1.1246727       0.0000010
   4 BEND      2  1  3                 57.9654573      -0.0000317
   5 BEND      2  1  4                117.0745250       0.0000041
   6 PLA.BEND  2  1  3  4               0.0000000       0.0000000

 NOTE: CARTESIAN GRADIENTS ARE ALWAYS TAKEN TO TEST CONVERGENCE,
       SO THE FOLLOWING GRADIENTS ARE CARTESIAN.

          MAXIMUM GRADIENT = 0.0000141    RMS GRADIENT = 0.0000065

 NSERCH:  16  E=     -108.8080811941  GRAD. MAX=  0.0000141  R.M.S.=  0.0000065


      ***** SADDLE POINT LOCATED *****
 COORDINATES OF ALL ATOMS ARE (ANGS)
   ATOM   CHARGE       X              Y              Z
 ------------------------------------------------------------
 CARBON      6.0   0.0000000000  -0.0507470190  -0.0822330310
 OXYGEN      8.0   0.0000000000   0.0437674093   1.2111491043
 HYDROGEN    1.0   0.0000000000   1.0117107214   0.4792428478
 HYDROGEN    1.0   0.0000000000  -1.0868170089  -0.5197804687


                     --------------------
                     INTERNAL COORDINATES
                     --------------------

                 - - ATOMS - -         COORDINATE      COORDINATE
 NO.   TYPE    I  J  K  L  M  N        (BOHR,RAD)       (ANG,DEG)
 ----------------------------------------------------------------
   1 STRETCH   1  2                     2.4506550       1.2968309
   2 STRETCH   1  3                     2.2708749       1.2016953
   3 STRETCH   1  4                     2.1253233       1.1246727
   4 BEND      2  1  3                  1.0116881      57.9654573
   5 BEND      2  1  4                  2.0433359     117.0745250
   6 PLA.BEND  2  1  3  4               0.0000000       0.0000000

          INTERNUCLEAR DISTANCES (ANGS.)
          ------------------------------

                1 CARB       2 OXYG       3 HYDR       4 HYDR  

   1 CARB    0.0000000    1.2968309 *  1.2016953 *  1.1246727 *
   2 OXYG    1.2968309 *  0.0000000    1.2135077 *  2.0674473 *
   3 HYDR    1.2016953 *  1.2135077 *  0.0000000    2.3241915 *
   4 HYDR    1.1246727 *  2.0674473 *  2.3241915 *  0.0000000  

  * ... LESS THAN  3.000


          NUCLEAR ENERGY    =       30.8157698671
          ELECTRONIC ENERGY =     -139.6238510612
          TOTAL ENERGY      =     -108.8080811941

          ------------------
          MOLECULAR ORBITALS
          ------------------

                      1          2          3          4          5
                  -19.6041   -10.6223    -1.3169    -0.6948    -0.6314
                     A          A          A          A          A   
    1  C  1  S    0.001289   0.983037  -0.120403   0.222246  -0.030643
    2  C  1  S   -0.010366   0.065585   0.253367  -0.627420   0.068098
    3  C  1  X    0.000000   0.000000   0.000000   0.000000   0.000000
    4  C  1  Y    0.001151  -0.002174   0.022614   0.123358   0.395269
    5  C  1  Z   -0.011600   0.008507   0.151872   0.069162   0.002462
    6  O  2  S    0.986545   0.001218  -0.247183  -0.133071   0.101154
    7  O  2  S    0.052371  -0.011651   0.750436   0.514256  -0.402676
    8  O  2  X    0.000000   0.000000   0.000000   0.000000   0.000000
    9  O  2  Y    0.000632   0.003331   0.034581   0.098115   0.433685
   10  O  2  Z   -0.008803   0.006755  -0.163049   0.255906  -0.195287
   11  H  3  S   -0.005171  -0.011910   0.120657  -0.025101   0.417335
   12  H  4  S    0.000915  -0.014419   0.028628  -0.349349  -0.179676

                      6          7          8          9         10
                   -0.4508    -0.3879    -0.2005     0.3184     0.4442
                     A          A          A          A          A   
    1  C  1  S    0.014692   0.000000   0.115647   0.000000   0.152663
    2  C  1  S   -0.027267   0.000000  -0.484672   0.000000  -0.732314
    3  C  1  X    0.000000  -0.496743   0.000000   0.886137   0.000000
    4  C  1  Y    0.019115   0.000000  -0.491738   0.000000  -0.125430
    5  C  1  Z    0.487579   0.000000   0.271299   0.000000   0.284371
    6  O  2  S    0.058370   0.000000  -0.000379   0.000000   0.059298
    7  O  2  S   -0.264483   0.000000   0.007425   0.000000  -0.293097
    8  O  2  X    0.000000  -0.784831   0.000000  -0.645006   0.000000
    9  O  2  Y   -0.345144   0.000000   0.693202   0.000000  -0.506382
   10  O  2  Z   -0.570943   0.000000  -0.274199   0.000000   0.191714
   11  H  3  S   -0.212743   0.000000  -0.011376   0.000000   1.012017
   12  H  4  S   -0.302460   0.000000   0.340766   0.000000   0.504526

                     11         12
                    0.7913     0.9526
                     A          A   
    1  C  1  S    0.166756  -0.102172
    2  C  1  S   -0.812078   0.500726
    3  C  1  X    0.000000   0.000000
    4  C  1  Y    0.874180   0.635423
    5  C  1  Z   -0.285251   1.042823
    6  O  2  S   -0.088638   0.086838
    7  O  2  S    0.470060  -0.506461
    8  O  2  X    0.000000   0.000000
    9  O  2  Y   -0.110961   0.172733
   10  O  2  Z   -0.526448   0.709183
   11  H  3  S   -0.364858  -0.575349
   12  H  4  S    0.960467   0.491480

     ----------------------------------------------------------------
     PROPERTY VALUES FOR THE RHF   SELF-CONSISTENT FIELD WAVEFUNCTION
     ----------------------------------------------------------------

          -----------------
          ENERGY COMPONENTS
          -----------------

         WAVEFUNCTION NORMALIZATION =       1.0000000000

                ONE ELECTRON ENERGY =    -211.4303763404
                TWO ELECTRON ENERGY =      71.8065252792
           NUCLEAR REPULSION ENERGY =      30.8157698671
                                      ------------------
                       TOTAL ENERGY =    -108.8080811941

 ELECTRON-ELECTRON POTENTIAL ENERGY =      71.8065252792
  NUCLEUS-ELECTRON POTENTIAL ENERGY =    -319.2641002145
   NUCLEUS-NUCLEUS POTENTIAL ENERGY =      30.8157698671
                                      ------------------
             TOTAL POTENTIAL ENERGY =    -216.6418050683
               TOTAL KINETIC ENERGY =     107.8337238742
                 VIRIAL RATIO (V/T) =       2.0090357384

  ...... PI ENERGY ANALYSIS ......

 ENERGY ANALYSIS:
            FOCK ENERGY=    -67.8173309935
          BARE H ENERGY=   -211.4303763404
     ELECTRONIC ENERGY =   -139.6238536669
         KINETIC ENERGY=    107.8337238742
          N-N REPULSION=     30.8157698671
           TOTAL ENERGY=   -108.8080837998
        SIGMA PART(1+2)=   -130.4690735018
               (K,V1,2)=    103.9958082791   -297.8925180330     63.4276362521
           PI PART(1+2)=     -9.1547801651
               (K,V1,2)=      3.8379155950    -21.3715821815      8.3788864214
  SIGMA SKELETON, ERROR=    -99.6533036347     -0.0000000000
             MIXED PART= 0.00000E+00 0.00000E+00 0.00000E+00 0.00000E+00
 ...... END OF PI ENERGY ANALYSIS ......

          ---------------------------------------
          MULLIKEN AND LOWDIN POPULATION ANALYSES
          ---------------------------------------

     ATOMIC MULLIKEN POPULATION IN EACH MOLECULAR ORBITAL

                      1          2          3          4          5

                  2.000000   2.000000   2.000000   2.000000   2.000000

    1            -0.002144   2.004876   0.446849   0.955175   0.564763
    2             2.002510  -0.001496   1.416073   0.558836   0.821060
    3            -0.000372  -0.001399   0.127926   0.005247   0.499356
    4             0.000007  -0.001982   0.009152   0.480742   0.114821

                      6          7          8

                  2.000000   2.000000   2.000000

    1             0.578207   0.630794   0.873664
    2             1.103265   1.369206   0.941438
    3             0.083765   0.000000   0.002521
    4             0.234764   0.000000   0.182377

               ----- POPULATIONS IN EACH AO -----
                             MULLIKEN      LOWDIN
              1  C  1  S      1.98617     1.98060
              2  C  1  S      1.40125     1.31113
              3  C  1  X      0.63079     0.63656
              4  C  1  Y      1.12877     1.14751
              5  C  1  Z      0.90521     0.98011
              6  O  2  S      1.99574     1.99479
              7  O  2  S      1.88573     1.77925
              8  O  2  X      1.36921     1.36344
              9  O  2  Y      1.65206     1.66926
             10  O  2  Z      1.30816     1.33792
             11  H  3  S      0.71704     0.75821
             12  H  4  S      1.01988     1.04123

          ----- MULLIKEN ATOMIC OVERLAP POPULATIONS -----
          (OFF-DIAGONAL ELEMENTS NEED TO BE MULTIPLIED BY 2)

             1           2           3           4

    1    5.3180635
    2    0.2610569   7.8812448
    3    0.1583682   0.0890863   0.4698288
    4    0.3146962  -0.0204967  -0.0002399   0.7259210

          TOTAL MULLIKEN AND LOWDIN ATOMIC POPULATIONS
       ATOM         MULL.POP.    CHARGE          LOW.POP.     CHARGE
    1 CARBON        6.052185   -0.052185         6.055909   -0.055909
    2 OXYGEN        8.210891   -0.210891         8.144652   -0.144652
    3 HYDROGEN      0.717043    0.282957         0.758210    0.241790
    4 HYDROGEN      1.019881   -0.019881         1.041229   -0.041229

          -------------------------------
          BOND ORDER AND VALENCE ANALYSIS     BOND ORDER THRESHOLD=0.050
          -------------------------------

                   BOND                       BOND                       BOND
  ATOM PAIR DIST  ORDER      ATOM PAIR DIST  ORDER      ATOM PAIR DIST  ORDER
    1   2  1.297  1.951        1   3  1.202  0.541        1   4  1.125  0.917
    2   3  1.214  0.376        2   4  2.067  0.080

                       TOTAL       BONDED        FREE
      ATOM            VALENCE     VALENCE     VALENCE
    1 CARBON            3.410       3.410      -0.000
    2 OXYGEN            2.407       2.407       0.000
    3 HYDROGEN          0.920       0.920       0.000
    4 HYDROGEN          1.000       1.000      -0.000

          ---------------------
          ELECTROSTATIC MOMENTS
          ---------------------

 POINT   1           X           Y           Z (BOHR)    CHARGE
                 0.000000    0.000970    1.155134       -0.00 (A.U.)
         DX          DY          DZ         /D/  (DEBYE)
     0.000000    0.748705   -0.106449    0.756235
 ...... END OF PROPERTY EVALUATION ......
 STEP CPU TIME =     0.00 TOTAL CPU TIME =        0.1 (    0.0 MIN)
 TOTAL WALL CLOCK TIME=        0.1 SECONDS, CPU UTILIZATION IS  81.82%
  $VIB   
          IVIB=   0 IATOM=   0 ICOORD=   0 E=     -108.8080811941
  0.000000000E+00-7.621537043E-07 1.560057507E-07 0.000000000E+00 1.414536337E-05
 -6.770987700E-06 0.000000000E+00-1.322990176E-05 8.781256061E-06 0.000000000E+00
 -1.533079026E-07-2.166274112E-06
  0.000000000E+00 7.487053555E-01-1.064487614E-01
 ......END OF GEOMETRY SEARCH......
 STEP CPU TIME =     0.00 TOTAL CPU TIME =        0.1 (    0.0 MIN)
 TOTAL WALL CLOCK TIME=        0.1 SECONDS, CPU UTILIZATION IS  81.82%
               580000  WORDS OF DYNAMIC MEMORY USED
 EXECUTION OF GAMESS TERMINATED NORMALLY Fri Jun  2 02:10:12 2017
 DDI: 263640 bytes (0.3 MB / 0 MWords) used by master data server.

 ----------------------------------------
 CPU timing information for all processes
 ========================================
 0: 0.75 + 0.28 = 0.104
 ----------------------------------------
 ddikick.x: exited gracefully.
unset echo
----- accounting info -----
Files used on the master node compute-0-8.local were:
-rw-rw-r-- 1 sarom sarom    3583 Jun  2 02:10 /scratch/sadpt-cerjan8.F05
-rw-rw-r-- 1 sarom sarom  180016 Jun  2 02:10 /scratch/sadpt-cerjan8.F08
-rw-rw-r-- 1 sarom sarom 1963200 Jun  2 02:10 /scratch/sadpt-cerjan8.F10
rm: cannot remove `/scratch/sarom': Is a directory
rm: cannot remove `/scratch/tmp': Is a directory
ls: No match.
ls: No match.
ls: No match.
Fri Jun  2 02:10:15 CDT 2017
0.250u 0.170s 0:03.60 11.6%	0+0k 8+368io 0pf+0w
Deleting shmid=2785280.
Deleting shmid=2818049.
/opt/gridengine/default/spool/compute-0-8/active_jobs/23696.1/pe_hostfile compute-0-8.local
