-catch_rsh /opt/gridengine/default/spool/compute-0-8/active_jobs/23700.1/pe_hostfile
compute-0-8
The primary node assigned by SGE to this run is compute-0-8
Warning: no access to tty (Bad file descriptor).
Thus no job control in this shell.
Deleting shmid=2785280.
Deleting shmid=2818049.
source /home/sarom/gamess.github.2017-05-31.14.06/install.info
setenv GMS_PATH /home/sarom/gamess.github.2017-05-31.14.06
setenv GMS_BUILD_DIR /home/sarom/gamess.github.2017-05-31.14.06
setenv GMS_TARGET linux64
setenv GMS_FORTRAN gfortran
setenv GMS_GFORTRAN_VERNO 4.4
setenv GMS_MATHLIB mkl-so
setenv GMS_MATHLIB_PATH /share/apps/intel/compilers_and_libraries_2017.1.132/linux/mkl/lib/intel64
setenv GMS_MKL_VERNO 12
setenv GMS_DDI_COMM sockets
setenv GMS_LIBCCHEM false
setenv GMS_EIGEN_PATH
setenv GMS_PHI false
setenv GMS_SHMTYPE sysv
setenv GMS_OPENMP false
unset echo
sadpt-culot3
tests/pes
----- GAMESS execution script 'rungms' -----
This job is running on host compute-0-8.local
under operating system Linux at Fri Jun 2 02:10:57 CDT 2017
Available scratch disk space (Kbyte units) at beginning of the job is
Filesystem           1K-blocks      Used Available Use% Mounted on
/dev/sda1             16126920   3867344  11440376  26% /
GAMESS temporary binary files will be written to /scratch
GAMESS supplementary output files will be written to /home/sarom/restart
Copying input file sadpt-culot3.inp to your run's scratch directory...
cp tests/pes/sadpt-culot3.inp /scratch/sadpt-culot3.F05
unset echo
The generated host list is
compute-0-8.local
/home/sarom/gamess.github.2017-05-31.14.06/ddikick.x /home/sarom/gamess.github.2017-05-31.14.06/gamess.00.x sadpt-culot3 -ddi 1 1 compute-0-8.local -scr /scratch

 Distributed Data Interface kickoff program.
 Initiating 1 compute processes on 1 nodes to run the following command:
 /home/sarom/gamess.github.2017-05-31.14.06/gamess.00.x sadpt-culot3 

          ******************************************************
          *         GAMESS VERSION = 20 APR 2017 (R1)          *
          *             FROM IOWA STATE UNIVERSITY             *
          * M.W.SCHMIDT, K.K.BALDRIDGE, J.A.BOATZ, S.T.ELBERT, *
          *   M.S.GORDON, J.H.JENSEN, S.KOSEKI, N.MATSUNAGA,   *
          *          K.A.NGUYEN, S.J.SU, T.L.WINDUS,           *
          *       TOGETHER WITH M.DUPUIS, J.A.MONTGOMERY       *
          *         J.COMPUT.CHEM.  14, 1347-1363(1993)        *
          **************** 64 BIT LINUX VERSION ****************

  SINCE 1993, STUDENTS AND POSTDOCS WORKING AT IOWA STATE UNIVERSITY
  AND ALSO IN THEIR VARIOUS JOBS AFTER LEAVING ISU HAVE MADE IMPORTANT
  CONTRIBUTIONS TO THE CODE:
     IVANA ADAMOVIC, CHRISTINE AIKENS, YURI ALEXEEV, POOJA ARORA,
     ANDREY ASADCHEV, ROB BELL, PRADIPTA BANDYOPADHYAY, JONATHAN BENTZ,
     BRETT BODE, KURT BRORSEN, CALEB CARLIN, GALINA CHABAN, WEI CHEN,
     CHEOL HO CHOI, PAUL DAY, ALBERT DEFUSCO, NUWAN DESILVA, TIM DUDLEY,
     DMITRI FEDOROV, GRAHAM FLETCHER, MARK FREITAG, KURT GLAESEMANN,
     DAN KEMP, GRANT MERRILL, NORIYUKI MINEZAWA, JONATHAN MULLIN,
     TAKESHI NAGATA, SEAN NEDD, HEATHER NETZLOFF, BOSILJKA NJEGIC, RYAN OLSON,
     MIKE PAK, SPENCER PRUITT, LUKE ROSKOP, JIM SHOEMAKER, LYUDMILA SLIPCHENKO,
     TONY SMITH, SAROM SOK LEANG, JIE SONG, TETSUYA TAKETSUGU, SIMON WEBB,
     PENG XU, SOOHAENG YOO, FEDERICO ZAHARIEV

  ADDITIONAL CODE HAS BEEN PROVIDED BY COLLABORATORS IN OTHER GROUPS:
     IOWA STATE UNIVERSITY:
          JOE IVANIC, AARON WEST, LAIMUTIS BYTAUTAS, KLAUS RUEDENBERG
     UNIVERSITY OF TOKYO: KIMIHIKO HIRAO, TAKAHITO NAKAJIMA,
          TAKAO TSUNEDA, MUNEAKI KAMIYA, SUSUMU YANAGISAWA,
          KIYOSHI YAGI, MAHITO CHIBA, SEIKEN TOKURA, NAOAKI KAWAKAMI
     UNIVERSITY OF AARHUS: FRANK JENSEN
     UNIVERSITY OF IOWA: VISVALDAS KAIRYS, HUI LI
     NATIONAL INST. OF STANDARDS AND TECHNOLOGY: WALT STEVENS, DAVID GARMER
     UNIVERSITY OF PISA: BENEDETTA MENNUCCI, JACOPO TOMASI
     UNIVERSITY OF MEMPHIS: HENRY KURTZ, PRAKASHAN KORAMBATH
     UNIVERSITY OF ALBERTA: TOBY ZENG, MARIUSZ KLOBUKOWSKI
     UNIVERSITY OF NEW ENGLAND: MARK SPACKMAN
     MIE UNIVERSITY: HIROAKI UMEDA
     NAT. INST. OF ADVANCED INDUSTRIAL SCIENCE AND TECHNOLOGY: KAZUO KITAURA
     MICHIGAN STATE UNIVERSITY:
          KAROL KOWALSKI, MARTA WLOCH, JEFFREY GOUR, JESSE LUTZ,
          WEI LI, PIOTR PIECUCH
     UNIVERSITY OF SILESIA: MONIKA MUSIAL, STANISLAW KUCHARSKI
     FACULTES UNIVERSITAIRES NOTRE-DAME DE LA PAIX:
          OLIVIER QUINET, BENOIT CHAMPAGNE
     UNIVERSITY OF CALIFORNIA - SANTA BARBARA: BERNARD KIRTMAN
     INSTITUTE FOR MOLECULAR SCIENCE:
          KAZUYA ISHIMURA, MICHIO KATOUDA, AND SHIGERU NAGASE
     UNIVERSITY OF NOTRE DAME: ANNA POMOGAEVA, DAN CHIPMAN
     KYUSHU UNIVERSITY:
          HARUYUKI NAKANO,
          FENG LONG GU, JACEK KORCHOWIEC, MARCIN MAKOWSKI, AND YURIKO AOKI,
          HIROTOSHI MORI AND EISAKU MIYOSHI
     PENNSYLVANIA STATE UNIVERSITY:
          TZVETELIN IORDANOV, CHET SWALINA, JONATHAN SKONE,
          SHARON HAMMES-SCHIFFER
     WASEDA UNIVERSITY:
          MASATO KOBAYASHI, TOMOKO AKAMA, TSUGUKI TOUMA,
          TAKESHI YOSHIKAWA, YASUHIRO IKABATA, JUNJI SEINO,
          YUYA NAKAJIMA, HIROMI NAKAI
     NANJING UNIVERSITY: SHUHUA LI
     UNIVERSITY OF NEBRASKA:
          PEIFENG SU, DEJUN SI, NANDUN THELLAMUREGE, YALI WANG, HUI LI
     UNIVERSITY OF ZURICH: ROBERTO PEVERATI, KIM BALDRIDGE
     N. COPERNICUS UNIVERSITY AND JACKSON STATE UNIVERSITY:
          MARIA BARYSZ
     UNIVERSITY OF COPENHAGEN: Jimmy Kromann, CASPER STEINMANN
     TOKYO INSTITUTE OF TECHNOLOGY: HIROYA NAKATA
     NAGOYA UNIVERSITY: YOSHIO NISHIMOTO, STEPHAN IRLE
     MOSCOW STATE UNIVERSITY: VLADIMIR MIRONOV

 EXECUTION OF GAMESS BEGUN Fri Jun  2 02:10:57 2017

            ECHO OF THE FIRST FEW INPUT CARDS -
 INPUT CARD>!  Example 5.3 from Culot, et al, Theoret.Chim.Acta 82, 189(1992)               
 INPUT CARD>!  hydrolysis of formamide bond                                                 
 INPUT CARD>!                                                                               
 INPUT CARD>!     NSERCH:   0  E=     -240.8245474079  R.M.S.=  0.0341083                   
 INPUT CARD>!     NSERCH:   1  E=     -240.8579956056  R.M.S.=  0.0172811                   
 INPUT CARD>!          ...snipped...                                                        
 INPUT CARD>!     NSERCH:  10  E=     -240.8682388549  R.M.S.=  0.0000589                   
 INPUT CARD>!     NSERCH:  11  E=     -240.8682389548  R.M.S.=  0.0000161                   
 INPUT CARD>!                                                                               
 INPUT CARD>!  This run takes 1 seconds on a 2.66 GHz Opteron (28 Apr 2015)                 
 INPUT CARD>!  results have not changed since at least 2005                                 
 INPUT CARD>!                                                                               
 INPUT CARD> $contrl scftyp=rhf icharg=-1 runtyp=sadpoint coord=zmt nzvar=18 $end           
 INPUT CARD> $system mwords=1 $end                                                          
 INPUT CARD> $statpt hess=read $end                                                         
 INPUT CARD> $basis  gbasis=sto ngauss=3 $end                                               
 INPUT CARD> $guess  guess=huckel $end                                                      
 INPUT CARD> $data                                                                          
 INPUT CARD>formamide/OH- to acetic acid/NH2- rearrangement                                 
 INPUT CARD>C1                                                                              
 INPUT CARD>N                                                                               
 INPUT CARD>C 1 rCN                                                                         
 INPUT CARD>O 2 rCO  1 aOCN                                                                 
 INPUT CARD>H 3 rOH  2 aHOC   1 wHOCN                                                       
 INPUT CARD>H 1 rNH1 2 aH1NC  3 wH1NCO                                                      
 INPUT CARD>H 1 rNH2 2 aH2NC  3 wH2NCO                                                      
 INPUT CARD>O 2 rCO2 1 aO2CN  3 wOCOH                                                       
 INPUT CARD>H 2 rCH  1 aHCN   3 wHCOH                                                       
 INPUT CARD>                                                                                
 INPUT CARD>rCN=2.1                                                                         
 INPUT CARD>rCO=1.385                                                                       
 INPUT CARD>rOH=1.096                                                                       
 INPUT CARD>rNH1=1.035                                                                      
 INPUT CARD>rNH2=1.035                                                                      
 INPUT CARD>rCO2=1.232                                                                      
 INPUT CARD>rCH=1.08    ! arbitrary, not given in paper                                     
 INPUT CARD>aOCN=84.29                                                                      
 INPUT CARD>aHOC=84.94                                                                      
 INPUT CARD>aH1NC=126.61                                                                    
 INPUT CARD>aH2NC=126.61                                                                    
 INPUT CARD>aO2CN=111.52                                                                    
 INPUT CARD>aHCN=89.47                                                                      
 INPUT CARD>wHOCN=0.0   ! all dihedrals are also arbitrary                                  
 INPUT CARD>wH1NCO=120.0                                                                    
 INPUT CARD>wH2NCO=-120.0                                                                   
 INPUT CARD>wOCOH=130.0                                                                     
 INPUT CARD>wHCOH=-130.0                                                                    
 INPUT CARD> $end                                                                           
 INPUT CARD> $HESS                                                                          
 INPUT CARD>ENERGY IS     -240.8245474176 E(NUC) IS      121.4093125880                     
    1000000 WORDS OF MEMORY AVAILABLE

     BASIS OPTIONS
     -------------
     GBASIS=STO          IGAUSS=       3      POLAR=NONE    
     NDFUNC=       0     NFFUNC=       0     DIFFSP=       F
     NPFUNC=       0      DIFFS=       F     BASNAM=        


     RUN TITLE
     ---------
 formamide/OH- to acetic acid/NH2- rearrangement                                 

 THE POINT GROUP OF THE MOLECULE IS C1      
 THE ORDER OF THE PRINCIPAL AXIS IS     0

 YOUR FULLY SUBSTITUTED Z-MATRIX IS
 N   
 C      1   2.1000000
 O      2   1.3850000  1   84.2900
 H      3   1.0960000  2   84.9400  1    0.0000  0
 H      1   1.0350000  2  126.6100  3  120.0000  0
 H      1   1.0350000  2  126.6100  3 -120.0000  0
 O      2   1.2320000  1  111.5200  3  130.0000  0
 H      2   1.0800000  1   89.4700  3 -130.0000  0

 THE MOMENTS OF INERTIA ARE (AMU-ANGSTROM**2)
 IXX=    47.116   IYY=    74.746   IZZ=   112.246

 ATOM      ATOMIC                      COORDINATES (BOHR)
           CHARGE         X                   Y                   Z
 N           7.0     2.9242209647       -0.9058990468       -0.0913548742
 C           6.0    -0.8568678633        0.0491065924        0.6433049824
 O           8.0    -0.1472435103        2.4237379889       -0.1979225980
 H           1.0     1.7227775875        1.5718842478       -0.4567389084
 H           1.0     4.2316606769       -1.5713889765        1.2021434507
 H           1.0     3.5612511154       -2.2711364778       -1.3386450202
 O           8.0    -2.3263252683       -1.4752204452       -0.3248732711
 H           1.0    -0.6859287690       -0.7808450025        2.4999820102

          INTERNUCLEAR DISTANCES (ANGS.)
          ------------------------------

                1 N          2 C          3 O          4 H          5 H     

   1 N       0.0000000    2.1000000 *  2.3978056 *  1.4699685 *  1.0350000 *
   2 C       2.1000000 *  0.0000000    1.3850000 *  1.6886907 *  2.8414123 *
   3 O       2.3978056 *  1.3850000 *  0.0000000    1.0960000 *  3.2230338  
   4 H       1.4699685 *  1.6886907 *  1.0960000 *  0.0000000    2.3021675 *
   5 H       1.0350000 *  2.8414123 *  3.2230338    2.3021675 *  0.0000000  
   6 H       1.0350000 *  2.8414123 *  3.2230338    2.3021675 *  1.4390023 *
   7 O       2.7974861 *  1.2320000 *  2.3645633 *  2.6825408 *  3.5635367  
   8 H       2.3525394 *  1.0800000 *  2.2349971 *  2.3712455 *  2.7236970 *

                6 H          7 O          8 H     

   1 N       1.0350000 *  2.7974861 *  2.3525394 *
   2 C       2.8414123 *  1.2320000 *  1.0800000 *
   3 O       3.2230338    2.3645633 *  2.2349971 *
   4 H       2.3021675 *  2.6825408 *  2.3712455 *
   5 H       1.4390023 *  3.5635367    2.7236970 *
   6 H       0.0000000    3.1893531    3.1304117  
   7 O       3.1893531    0.0000000    1.7672354 *
   8 H       3.1304117    1.7672354 *  0.0000000  

  * ... LESS THAN  3.000


     ATOMIC BASIS SET
     ----------------
 THE CONTRACTED PRIMITIVE FUNCTIONS HAVE BEEN UNNORMALIZED
 THE CONTRACTED BASIS FUNCTIONS ARE NOW NORMALIZED TO UNITY

  SHELL TYPE  PRIMITIVE        EXPONENT          CONTRACTION COEFFICIENT(S)

 N         

      1   S       1            99.1061690    0.154328967295
      1   S       2            18.0523124    0.535328142282
      1   S       3             4.8856602    0.444634542185

      2   L       4             3.7804559   -0.099967229187    0.155916274999
      2   L       5             0.8784966    0.399512826089    0.607683718598
      2   L       6             0.2857144    0.700115468880    0.391957393099

 C         

      3   S       7            71.6168373    0.154328967295
      3   S       8            13.0450963    0.535328142282
      3   S       9             3.5305122    0.444634542185

      4   L      10             2.9412494   -0.099967229187    0.155916274999
      4   L      11             0.6834831    0.399512826089    0.607683718598
      4   L      12             0.2222899    0.700115468880    0.391957393099

 O         

      5   S      13           130.7093214    0.154328967295
      5   S      14            23.8088661    0.535328142282
      5   S      15             6.4436083    0.444634542185

      6   L      16             5.0331513   -0.099967229187    0.155916274999
      6   L      17             1.1695961    0.399512826089    0.607683718598
      6   L      18             0.3803890    0.700115468880    0.391957393099

 H         

      7   S      19             3.4252509    0.154328967295
      7   S      20             0.6239137    0.535328142282
      7   S      21             0.1688554    0.444634542185

 H         

      8   S      22             3.4252509    0.154328967295
      8   S      23             0.6239137    0.535328142282
      8   S      24             0.1688554    0.444634542185

 H         

      9   S      25             3.4252509    0.154328967295
      9   S      26             0.6239137    0.535328142282
      9   S      27             0.1688554    0.444634542185

 O         

     10   S      28           130.7093214    0.154328967295
     10   S      29            23.8088661    0.535328142282
     10   S      30             6.4436083    0.444634542185

     11   L      31             5.0331513   -0.099967229187    0.155916274999
     11   L      32             1.1695961    0.399512826089    0.607683718598
     11   L      33             0.3803890    0.700115468880    0.391957393099

 H         

     12   S      34             3.4252509    0.154328967295
     12   S      35             0.6239137    0.535328142282
     12   S      36             0.1688554    0.444634542185

 TOTAL NUMBER OF BASIS SET SHELLS             =   12
 NUMBER OF CARTESIAN GAUSSIAN BASIS FUNCTIONS =   24
 NUMBER OF ELECTRONS                          =   34
 CHARGE OF MOLECULE                           =   -1
 SPIN MULTIPLICITY                            =    1
 NUMBER OF OCCUPIED ORBITALS (ALPHA)          =   17
 NUMBER OF OCCUPIED ORBITALS (BETA )          =   17
 TOTAL NUMBER OF ATOMS                        =    8
 THE NUCLEAR REPULSION ENERGY IS      121.4093125880

     $CONTRL OPTIONS
     ---------------
 SCFTYP=RHF          RUNTYP=SADPOINT     EXETYP=RUN     
 MPLEVL=       0     CITYP =NONE         CCTYP =NONE         VBTYP =NONE    
 DFTTYP=NONE         TDDFT =NONE    
 MULT  =       1     ICHARG=      -1     NZVAR =      18     COORD =ZMT     
 PP    =NONE         RELWFN=NONE         LOCAL =NONE         NUMGRD=       F
 ISPHER=      -1     NOSYM =       0     MAXIT =      30     UNITS =ANGS    
 PLTORB=       F     MOLPLT=       F     AIMPAC=       F     FRIEND=        
 NPRINT=       7     IREST =       0     GEOM  =INPUT   
 NORMF =       0     NORMP =       0     ITOL  =      20     ICUT  =       9
 INTTYP=BEST         GRDTYP=BEST         QMTTOL= 1.0E-06

     $SYSTEM OPTIONS
     ---------------
  REPLICATED MEMORY=     1000000 WORDS (ON EVERY NODE).
 DISTRIBUTED MEMDDI=           0 MILLION WORDS IN AGGREGATE,
 MEMDDI DISTRIBUTED OVER   1 PROCESSORS IS           0 WORDS/PROCESSOR.
 TOTAL MEMORY REQUESTED ON EACH PROCESSOR=     1000000 WORDS.
 TIMLIM=      525600.00 MINUTES, OR     365.0 DAYS.
 PARALL= F  BALTYP=  DLB     KDIAG=    0  COREFL= F
 MXSEQ2=     300 MXSEQ3=     150  mem10=         0

          ----------------
          PROPERTIES INPUT
          ----------------

     MOMENTS            FIELD           POTENTIAL          DENSITY
 IEMOM =       1   IEFLD =       0   IEPOT =       0   IEDEN =       0
 WHERE =COMASS     WHERE =NUCLEI     WHERE =NUCLEI     WHERE =NUCLEI  
 OUTPUT=BOTH       OUTPUT=BOTH       OUTPUT=BOTH       OUTPUT=BOTH    
 IEMINT=       0   IEFINT=       0                     IEDINT=       0
                                                       MORB  =       0
          EXTRAPOLATION IN EFFECT
          SOSCF IN EFFECT
 ORBITAL PRINTING OPTION: NPREO=     1    24     2     1

     -------------------------------
     INTEGRAL TRANSFORMATION OPTIONS
     -------------------------------
     NWORD  =            0
     CUTOFF = 1.0E-09     MPTRAN =       0
     DIRTRF =       F     AOINTS =DUP     

          ----------------------
          INTEGRAL INPUT OPTIONS
          ----------------------
 NOPK  =       1 NORDER=       0 SCHWRZ=       T

   --- ENCODED Z MATRIX ---
 COORD  TYPE   I   J   K   L   M   N
    1      1    2   1
    2      1    3   2
    3      2    3   2   1
    4      1    4   3
    5      2    4   3   2
    6      3    4   3   2   1
    7      1    5   1
    8      2    5   1   2
    9      3    5   1   2   3
   10      1    6   1
   11      2    6   1   2
   12      3    6   1   2   3
   13      1    7   2
   14      2    7   2   1
   15      3    7   2   1   3
   16      1    8   2
   17      2    8   2   1
   18      3    8   2   1   3

 THE DETERMINANT OF THE G MATRIX IS 10**(   -12)


                     --------------------
                     INTERNAL COORDINATES
                     --------------------

                 - - ATOMS - -         COORDINATE      COORDINATE
 NO.   TYPE    I  J  K  L  M  N        (BOHR,RAD)       (ANG,DEG)
 ----------------------------------------------------------------
   1 STRETCH   2  1                     3.9684246       2.1000000
   2 STRETCH   3  2                     2.6172705       1.3850000
   3 BEND      3  2  1                  1.4711380      84.2900000
   4 STRETCH   4  3                     2.0711397       1.0960000
   5 BEND      4  3  2                  1.4824827      84.9400000
   6 TORSION   4  3  2  1               0.0000000       0.0000000
   7 STRETCH   5  1                     1.9558664       1.0350000
   8 BEND      5  1  2                  2.2097614     126.6100000
   9 TORSION   5  1  2  3               2.0943951     120.0000000
  10 STRETCH   6  1                     1.9558664       1.0350000
  11 BEND      6  1  2                  2.2097614     126.6100000
  12 TORSION   6  1  2  3              -2.0943951    -120.0000000
  13 STRETCH   7  2                     2.3281424       1.2320000
  14 BEND      7  2  1                  1.9463912     111.5200000
  15 TORSION   7  2  1  3               2.2689280     130.0000000
  16 STRETCH   8  2                     2.0409041       1.0800000
  17 BEND      8  2  1                  1.5615461      89.4700000
  18 TORSION   8  2  1  3              -2.2689280    -130.0000000

     ------------------------------------------
     THE POINT GROUP IS C1 , NAXIS= 0, ORDER= 1
     ------------------------------------------

     DIMENSIONS OF THE SYMMETRY SUBSPACES ARE
 A   =   24

 ..... DONE SETTING UP THE RUN .....
 STEP CPU TIME =     0.03 TOTAL CPU TIME =        0.0 (    0.0 MIN)
 TOTAL WALL CLOCK TIME=        0.0 SECONDS, CPU UTILIZATION IS 100.00%


          -----------------------------
          STATIONARY POINT LOCATION RUN
          -----------------------------

 OBTAINING INITIAL HESSIAN, HESS=READ    

 $HESS GROUP READ FROM CARDS
 ENERGY IS     -240.8245474176 E(NUC) IS      121.4093125880                     

          PARAMETERS CONTROLLING GEOMETRY SEARCH ARE
          METHOD =QA                  UPHESS =POWELL  
          NNEG   =         1          NFRZ   =         0
          NSTEP  =        20          IFOLOW =         1
          HESS   =READ                RESTAR =         F
          IHREP  =         0          HSSEND =         F
          NPRT   =         0          NPUN   =         0
          OPTTOL = 1.000E-04          RMIN   = 1.500E-03
          RMAX   = 1.000E-01          RLIM   = 7.000E-02
          DXMAX  = 2.000E-01          PURIFY =         F
          MOVIE  =         F          TRUPD  =         T
          TRMAX  = 3.000E-01          TRMIN  = 5.000E-02
          ITBMAT =         5          STPT   =         F
          STSTEP = 1.000E-02          PROJCT=          T

 BEGINNING GEOMETRY SEARCH POINT NSERCH=   0 ...

 COORDINATES OF ALL ATOMS ARE (ANGS)
   ATOM   CHARGE       X              Y              Z
 ------------------------------------------------------------
 N           7.0   1.5474312063  -0.4793811657  -0.0483429210
 C           6.0  -0.4534349789   0.0259860915   0.3404223610
 O           8.0  -0.0779179157   1.2825870018  -0.1047361360
 H           1.0   0.9116547048   0.8318053824  -0.2416958392
 H           1.0   2.2392985567  -0.8315432960   0.6361469644
 H           1.0   1.8845330691  -1.2018337540  -0.7083804895
 O           8.0  -1.2310384063  -0.7806530972  -0.1719155440
 H           1.0  -0.3629778991  -0.4132054105   1.3229336033


                     --------------------
                     INTERNAL COORDINATES
                     --------------------

                 - - ATOMS - -         COORDINATE      COORDINATE
 NO.   TYPE    I  J  K  L  M  N        (BOHR,RAD)       (ANG,DEG)
 ----------------------------------------------------------------
   1 STRETCH   2  1                     3.9684246       2.1000000
   2 STRETCH   3  2                     2.6172705       1.3850000
   3 BEND      3  2  1                  1.4711380      84.2900000
   4 STRETCH   4  3                     2.0711397       1.0960000
   5 BEND      4  3  2                  1.4824827      84.9400000
   6 TORSION   4  3  2  1               0.0000000       0.0000000
   7 STRETCH   5  1                     1.9558664       1.0350000
   8 BEND      5  1  2                  2.2097614     126.6100000
   9 TORSION   5  1  2  3               2.0943951     120.0000000
  10 STRETCH   6  1                     1.9558664       1.0350000
  11 BEND      6  1  2                  2.2097614     126.6100000
  12 TORSION   6  1  2  3              -2.0943951    -120.0000000
  13 STRETCH   7  2                     2.3281424       1.2320000
  14 BEND      7  2  1                  1.9463912     111.5200000
  15 TORSION   7  2  1  3               2.2689280     130.0000000
  16 STRETCH   8  2                     2.0409041       1.0800000
  17 BEND      8  2  1                  1.5615461      89.4700000
  18 TORSION   8  2  1  3              -2.2689280    -130.0000000

 THE CURRENT FULLY SUBSTITUTED Z-MATRIX IS
 N   
 C      1   2.1000000
 O      2   1.3850000  1    84.2900000
 H      3   1.0960000  2    84.9400000  1     0.0000000  0
 H      1   1.0350000  2   126.6100000  3   120.0000000  0
 H      1   1.0350000  2   126.6100000  3  -120.0000000  0
 O      2   1.2320000  1   111.5200000  3   130.0000000  0
 H      2   1.0800000  1    89.4700000  3  -130.0000000  0

          ********************
          1 ELECTRON INTEGRALS
          ********************
 ...... END OF ONE-ELECTRON INTEGRALS ......
 STEP CPU TIME =     0.00 TOTAL CPU TIME =        0.0 (    0.0 MIN)
 TOTAL WALL CLOCK TIME=        0.0 SECONDS, CPU UTILIZATION IS 100.00%

          -------------
          GUESS OPTIONS
          -------------
          GUESS =HUCKEL            NORB  =       0          NORDER=       0
          MIX   =       F          PRTMO =       F          PUNMO =       F
          TOLZ  = 1.0E-08          TOLE  = 1.0E-05
          SYMDEN=       F          PURIFY=       F

 INITIAL GUESS ORBITALS GENERATED BY HUCKEL   ROUTINE.
 HUCKEL GUESS REQUIRES     12024 WORDS.

 SYMMETRIES FOR INITIAL GUESS ORBITALS FOLLOW.   BOTH SET(S).
    17 ORBITALS ARE OCCUPIED (    4 CORE ORBITALS).
     5=A        6=A        7=A        8=A        9=A       10=A       11=A   
    12=A       13=A       14=A       15=A       16=A       17=A       18=A   
    19=A       20=A       21=A       22=A       23=A       24=A   
 ...... END OF INITIAL ORBITAL SELECTION ......
 STEP CPU TIME =     0.00 TOTAL CPU TIME =        0.0 (    0.0 MIN)
 TOTAL WALL CLOCK TIME=        0.0 SECONDS, CPU UTILIZATION IS 100.00%

                    ----------------------
                    AO INTEGRAL TECHNOLOGY
                    ----------------------
     S,P,L SHELL ROTATED AXIS INTEGRALS, REPROGRAMMED BY
        KAZUYA ISHIMURA (IMS) AND JOSE SIERRA (SYNSTAR).
     S,P,D,L SHELL ROTATED AXIS INTEGRALS PROGRAMMED BY
        KAZUYA ISHIMURA (INSTITUTE FOR MOLECULAR SCIENCE).
     S,P,D,F,G SHELL TO TOTAL QUARTET ANGULAR MOMENTUM SUM 5,
        ERIC PROGRAM BY GRAHAM FLETCHER (ELORET AND NASA ADVANCED
        SUPERCOMPUTING DIVISION, AMES RESEARCH CENTER).
     S,P,D,F,G,L SHELL GENERAL RYS QUADRATURE PROGRAMMED BY
        MICHEL DUPUIS (PACIFIC NORTHWEST NATIONAL LABORATORY).

          --------------------
          2 ELECTRON INTEGRALS
          --------------------

 THE -PK- OPTION IS OFF, THE INTEGRALS ARE NOT IN SUPERMATRIX FORM.
 STORING   15000 INTEGRALS/RECORD ON DISK, USING 12 BYTES/INTEGRAL.
 TWO ELECTRON INTEGRAL EVALUATION REQUIRES   89434 WORDS OF MEMORY.
 SCHWARZ INEQUALITY OVERHEAD:       297 INTEGRALS, T=        0.00
 II,JST,KST,LST =  1  1  1  1 NREC =         1 INTLOC =    1
 II,JST,KST,LST =  2  1  1  1 NREC =         1 INTLOC =    2
 II,JST,KST,LST =  3  1  1  1 NREC =         1 INTLOC =   34
 II,JST,KST,LST =  4  1  1  1 NREC =         1 INTLOC =  124
 II,JST,KST,LST =  5  1  1  1 NREC =         1 INTLOC = 1312
 II,JST,KST,LST =  6  1  1  1 NREC =         1 INTLOC = 1867
 II,JST,KST,LST =  7  1  1  1 NREC =         1 INTLOC = 6688
 II,JST,KST,LST =  8  1  1  1 NREC =         1 INTLOC = 8708
 II,JST,KST,LST =  9  1  1  1 NREC =         1 INTLOC =11125
 II,JST,KST,LST = 10  1  1  1 NREC =         1 INTLOC =14000
 II,JST,KST,LST = 11  1  1  1 NREC =         2 INTLOC = 1901
 II,JST,KST,LST = 12  1  1  1 NREC =         3 INTLOC = 6207
 SCHWARZ INEQUALITY TEST SKIPPED         343 INTEGRAL BLOCKS.
 TOTAL NUMBER OF NONZERO TWO-ELECTRON INTEGRALS =               43009
          3 INTEGRAL RECORDS WERE STORED ON DISK FILE  8.
  ...... END OF TWO-ELECTRON INTEGRALS .....
 STEP CPU TIME =     0.02 TOTAL CPU TIME =        0.0 (    0.0 MIN)
 TOTAL WALL CLOCK TIME=        0.1 SECONDS, CPU UTILIZATION IS 100.00%

          --------------------------
                 RHF SCF CALCULATION
          --------------------------

     NUCLEAR ENERGY =       121.4093125880
     MAXIT =   30     NPUNCH=    2
     EXTRAP=T  DAMP=F  SHIFT=F  RSTRCT=F  DIIS=F  DEM=F  SOSCF=T
     DENSITY MATRIX CONV=  1.00E-05
     SOSCF WILL OPTIMIZE     119 ORBITAL ROTATIONS, SOGTOL=   0.250
     MEMORY REQUIRED FOR RHF ITERS=     34844 WORDS.

 ITER EX DEM     TOTAL ENERGY        E CHANGE  DENSITY CHANGE     ORB. GRAD
   1  0  0     -240.3057966383  -240.3057966383   0.568480354   0.000000000
          ---------------START SECOND ORDER SCF---------------
   2  1  0     -240.7830842371    -0.4772875988   0.174047106   0.084361711
   3  2  0     -240.8163346188    -0.0332503817   0.076795311   0.030426251
   4  3  0     -240.8243661545    -0.0080315357   0.011499307   0.003860901
   5  4  0     -240.8245225109    -0.0001563564   0.003330546   0.001068451
   6  5  0     -240.8245455763    -0.0000230654   0.001162931   0.000367842
   7  6  0     -240.8245471999    -0.0000016236   0.000459428   0.000125651
   8  7  0     -240.8245473941    -0.0000001942   0.000079142   0.000027905
   9  8  0     -240.8245474066    -0.0000000125   0.000022431   0.000008202
  10  9  0     -240.8245474078    -0.0000000011   0.000005698   0.000002416
  11 10  0     -240.8245474079    -0.0000000001   0.000001765   0.000000475

          -----------------
          DENSITY CONVERGED
          -----------------
     TIME TO FORM FOCK OPERATORS=       0.0 SECONDS (       0.0 SEC/ITER)
     TIME TO SOLVE SCF EQUATIONS=       0.0 SECONDS (       0.0 SEC/ITER)

 FINAL RHF ENERGY IS     -240.8245474079 AFTER  11 ITERATIONS

          ------------
          EIGENVECTORS
          ------------

                      1          2          3          4          5
                  -19.9336   -19.8920   -14.8561   -10.8786    -1.0579
                     A          A          A          A          A   
    1  N  1  S   -0.000118  -0.000024   0.993550   0.000284  -0.013310
    2  N  1  S    0.001065   0.000167   0.029783  -0.001244   0.037582
    3  N  1  X   -0.000478  -0.000189   0.003281   0.001737  -0.007640
    4  N  1  Y    0.000880  -0.000040  -0.003136  -0.000107   0.003607
    5  N  1  Z   -0.000117  -0.000050   0.000005  -0.000311   0.000661
    6  C  2  S    0.000460   0.000567   0.000188   0.992642  -0.138046
    7  C  2  S   -0.004126  -0.007193  -0.001065   0.032292   0.333504
    8  C  2  X   -0.000965   0.004019  -0.001084  -0.000820  -0.049744
    9  C  2  Y   -0.004307   0.004276   0.000527  -0.001743  -0.002335
   10  C  2  Z    0.001556   0.002533   0.000248   0.000719  -0.061524
   11  O  3  S    0.994178  -0.000361  -0.000170   0.000287  -0.145765
   12  O  3  S    0.025681   0.000059   0.001172  -0.003753   0.518223
   13  O  3  X    0.001115  -0.000273   0.000706   0.001226   0.010431
   14  O  3  Y   -0.003985  -0.000081  -0.000335   0.001751  -0.089264
   15  O  3  Z    0.000818  -0.000345  -0.000105  -0.000734   0.018554
   16  H  4  S   -0.005019  -0.000029  -0.003231  -0.001867   0.074294
   17  H  5  S    0.000106   0.000016  -0.006656  -0.000069   0.003931
   18  H  6  S    0.000104  -0.000038  -0.006651  -0.000130   0.004539
   19  O  7  S    0.000334   0.994180  -0.000032   0.000183  -0.149336
   20  O  7  S   -0.000011   0.026272   0.000219  -0.005802   0.513501
   21  O  7  X   -0.000112   0.003478   0.000203  -0.001243   0.071513
   22  O  7  Y    0.000323   0.003671   0.000034  -0.001329   0.080825
   23  O  7  Z   -0.000368   0.002252   0.000026  -0.000642   0.049491
   24  H  8  S   -0.000171   0.000431  -0.000007  -0.007088   0.044498

                      6          7          8          9         10
                   -0.9721    -0.7142    -0.4840    -0.3525    -0.3145
                     A          A          A          A          A   
    1  N  1  S   -0.010457  -0.213687   0.012119  -0.003892   0.012600
    2  N  1  S    0.028686   0.722065  -0.036382   0.034433  -0.074952
    3  N  1  X   -0.001482   0.074003  -0.063371  -0.132115   0.150266
    4  N  1  Y    0.006675  -0.066154   0.008227   0.177917  -0.112968
    5  N  1  Z   -0.000639   0.000920   0.031175  -0.004677   0.033071
    6  C  2  S    0.026629  -0.002932  -0.153956   0.048991   0.067912
    7  C  2  S   -0.059836   0.011617   0.493787  -0.199254  -0.254734
    8  C  2  X    0.121513   0.041379   0.065891   0.191391  -0.135743
    9  C  2  Y    0.187543  -0.036772  -0.022318  -0.269397  -0.085011
   10  C  2  Z    0.013937   0.012508   0.289583   0.135208   0.368441
   11  O  3  S   -0.172051   0.033772   0.055435   0.010929  -0.088983
   12  O  3  S    0.625686  -0.139551  -0.245121  -0.047658   0.435847
   13  O  3  X    0.037145   0.027321  -0.053166   0.482271  -0.055327
   14  O  3  Y   -0.064036  -0.007082  -0.111264   0.057329   0.447465
   15  O  3  Z    0.016836  -0.003305   0.139004  -0.074144   0.103459
   16  H  4  S    0.100235   0.058359  -0.071943   0.389084  -0.115378
   17  H  5  S    0.003823   0.218723  -0.027658  -0.116858   0.121817
   18  H  6  S    0.002811   0.215238  -0.047243  -0.126956   0.063618
   19  O  7  S    0.158988   0.009092   0.098100  -0.029932  -0.039001
   20  O  7  S   -0.558101  -0.036485  -0.435120   0.143236   0.189322
   21  O  7  X   -0.055524   0.010359   0.101376   0.035276  -0.196562
   22  O  7  Y   -0.055920  -0.009613   0.046494  -0.229054  -0.207491
   23  O  7  Z   -0.051072   0.001103   0.173665   0.053899   0.205062
   24  H  8  S   -0.016532   0.019042   0.376460   0.104443   0.175759

                     11         12         13         14         15
                   -0.2409    -0.1943    -0.1316    -0.0921    -0.0463
                     A          A          A          A          A   
    1  N  1  S   -0.004941  -0.000083  -0.011412   0.001978  -0.102865
    2  N  1  S    0.025826   0.000822   0.051712  -0.008984   0.526020
    3  N  1  X   -0.004034   0.137682   0.163823  -0.044901  -0.331111
    4  N  1  Y    0.051215   0.153239   0.228263  -0.056935   0.379934
    5  N  1  Z    0.084240   0.503568  -0.136322   0.034878  -0.024393
    6  C  2  S    0.010301  -0.001030   0.001508  -0.010214   0.011459
    7  C  2  S   -0.015005  -0.000748  -0.017896   0.043476  -0.025163
    8  C  2  X    0.228532  -0.054914  -0.417132   0.047732  -0.042698
    9  C  2  Y    0.380059  -0.042106   0.164263  -0.119337  -0.011506
   10  C  2  Z    0.155656  -0.058709   0.107908  -0.101658   0.061334
   11  O  3  S    0.044195  -0.001184   0.033169  -0.009367  -0.009088
   12  O  3  S   -0.229719   0.006868  -0.171554   0.051771   0.049671
   13  O  3  X    0.006627   0.011639   0.282280   0.201149  -0.393764
   14  O  3  Y   -0.238635   0.011284  -0.038633   0.334460   0.382920
   15  O  3  Z    0.382895  -0.080077   0.181906   0.773137  -0.069759
   16  H  4  S   -0.034464   0.024886   0.258684  -0.039765  -0.038288
   17  H  5  S    0.058952   0.490246  -0.054138   0.007679  -0.250287
   18  H  6  S   -0.088549  -0.495126   0.005310   0.002087  -0.229409
   19  O  7  S   -0.081865   0.012090   0.014429   0.012438  -0.000170
   20  O  7  S    0.439678  -0.068295  -0.080172  -0.072842  -0.001218
   21  O  7  X   -0.376081   0.053219  -0.334796   0.350155  -0.146525
   22  O  7  Y   -0.259199   0.103909   0.452007   0.179341   0.189591
   23  O  7  Z   -0.278547   0.016578   0.235004  -0.189181  -0.303127
   24  H  8  S    0.037251  -0.030556  -0.085654  -0.165126   0.106865

                     16         17         18         19         20
                   -0.0312     0.0503     0.6109     0.8629     0.8835
                     A          A          A          A          A   
    1  N  1  S   -0.054434   0.019272   0.033298   0.083255   0.114078
    2  N  1  S    0.279115  -0.097111  -0.175760  -0.507101  -0.714247
    3  N  1  X   -0.102988   0.655567   0.236387  -0.079799  -0.282747
    4  N  1  Y    0.248207   0.523131   0.134879   0.069879   0.050538
    5  N  1  Z   -0.022046  -0.316618  -0.104819   0.029030   0.013953
    6  C  2  S    0.005787  -0.010856  -0.030012  -0.164536   0.089198
    7  C  2  S    0.005655   0.018881   0.135631   0.951137  -0.532525
    8  C  2  X   -0.016730   0.037893   0.737545   0.189928  -0.130551
    9  C  2  Y    0.045056  -0.010702  -0.369210   0.287945  -0.160616
   10  C  2  Z   -0.118121   0.027999  -0.300868   0.314285  -0.273638
   11  O  3  S    0.001086   0.002922  -0.015327   0.085598   0.030298
   12  O  3  S   -0.006822  -0.017080   0.090346  -0.522778  -0.189490
   13  O  3  X   -0.257855  -0.147286  -0.076427  -0.074379  -0.584960
   14  O  3  Y   -0.081943  -0.001613   0.103212   0.585203  -0.061246
   15  O  3  Z    0.257242  -0.000402   0.072941  -0.245733   0.255375
   16  H  4  S   -0.050987   0.025093  -0.221241   0.369493   0.825325
   17  H  5  S   -0.097746   0.032917   0.069826   0.271457   0.453510
   18  H  6  S   -0.136164   0.032905   0.057089   0.303363   0.385409
   19  O  7  S   -0.003248   0.000298   0.000960   0.009720   0.002405
   20  O  7  S    0.016418  -0.001124   0.001905  -0.042822  -0.025383
   21  O  7  X    0.116905   0.301095  -0.512061  -0.032377  -0.038798
   22  O  7  Y   -0.389621  -0.167070   0.330192  -0.124105   0.017734
   23  O  7  Z    0.684885  -0.227247   0.251586  -0.011794   0.019562
   24  H  8  S   -0.343461   0.127932  -0.008314  -0.759931   0.458995

                     21         22         23         24
                    0.9840     1.0257     1.0891     1.2735
                     A          A          A          A   
    1  N  1  S    0.004463   0.000226   0.066428  -0.004800
    2  N  1  S   -0.029472  -0.001976  -0.492363   0.026895
    3  N  1  X    0.207689  -0.106961  -0.618407  -0.012919
    4  N  1  Y    0.229340  -0.144577   0.749850  -0.067615
    5  N  1  Z    0.867221  -0.377127  -0.060263  -0.056837
    6  C  2  S    0.035189   0.045759   0.024149   0.113678
    7  C  2  S   -0.190373  -0.216768  -0.124552  -0.801476
    8  C  2  X    0.117089   0.211958  -0.052878   0.630601
    9  C  2  Y   -0.145599  -0.405525   0.048727   0.979254
   10  C  2  Z    0.355951   0.916740   0.076931   0.031514
   11  O  3  S   -0.019790  -0.045989  -0.050948   0.035128
   12  O  3  S    0.125261   0.295462   0.326632  -0.246066
   13  O  3  X   -0.152365  -0.294116   0.352398   0.002937
   14  O  3  Y   -0.197754  -0.433156  -0.166273   0.249567
   15  O  3  Z    0.009429   0.019316  -0.064869  -0.170357
   16  H  4  S    0.070821   0.119137  -0.720255   0.020078
   17  H  5  S   -0.733603   0.321602   0.643605   0.009609
   18  H  6  S    0.769461  -0.335485   0.624697  -0.065755
   19  O  7  S   -0.024859  -0.043510  -0.009499  -0.105915
   20  O  7  S    0.165262   0.289031   0.064287   0.782124
   21  O  7  X    0.117063   0.193977   0.078251   0.555202
   22  O  7  Y    0.200230   0.377223   0.044746   0.507459
   23  O  7  Z    0.004252  -0.062392   0.003769   0.428875
   24  H  8  S   -0.235334  -0.685543   0.018555   0.478698
 ...... END OF RHF CALCULATION ......
 STEP CPU TIME =     0.01 TOTAL CPU TIME =        0.1 (    0.0 MIN)
 TOTAL WALL CLOCK TIME=        0.1 SECONDS, CPU UTILIZATION IS 100.00%

     ----------------------------------------------------------------
     PROPERTY VALUES FOR THE RHF   SELF-CONSISTENT FIELD WAVEFUNCTION
     ----------------------------------------------------------------

          -----------------
          ENERGY COMPONENTS
          -----------------

         WAVEFUNCTION NORMALIZATION =       1.0000000000

                ONE ELECTRON ENERGY =    -584.1843875330
                TWO ELECTRON ENERGY =     221.9505275371
           NUCLEAR REPULSION ENERGY =     121.4093125880
                                      ------------------
                       TOTAL ENERGY =    -240.8245474079

 ELECTRON-ELECTRON POTENTIAL ENERGY =     221.9505275371
  NUCLEUS-ELECTRON POTENTIAL ENERGY =    -825.3356481903
   NUCLEUS-NUCLEUS POTENTIAL ENERGY =     121.4093125880
                                      ------------------
             TOTAL POTENTIAL ENERGY =    -481.9758080652
               TOTAL KINETIC ENERGY =     241.1512606574
                 VIRIAL RATIO (V/T) =       1.9986451937

          ---------------------------------------
          MULLIKEN AND LOWDIN POPULATION ANALYSES
          ---------------------------------------

     ATOMIC MULLIKEN POPULATION IN EACH MOLECULAR ORBITAL

                      1          2          3          4          5

                  2.000000   2.000000   2.000000   2.000000   2.000000

    1             0.000003   0.000000   2.001827  -0.000032   0.008956
    2            -0.000649  -0.001400  -0.000033   2.002162   0.521296
    3             2.001080   0.000000   0.000001  -0.000349   0.676438
    4            -0.000434  -0.000000  -0.000148  -0.000068   0.055646
    5             0.000000   0.000000  -0.000824  -0.000000   0.000285
    6             0.000000  -0.000000  -0.000823  -0.000000   0.000355
    7             0.000000   2.001392   0.000000  -0.000701   0.712015
    8            -0.000001   0.000008  -0.000000  -0.001012   0.025009

                      6          7          8          9         10

                  2.000000   2.000000   2.000000   2.000000   2.000000

    1             0.004789   1.352175   0.024659   0.187728   0.134652
    2             0.321380   0.020923   0.850431   0.417492   0.548344
    3             0.864062   0.032799   0.186867   0.687192   0.765152
    4             0.077541   0.024302   0.010030   0.407616   0.046012
    5             0.000195   0.285244   0.002576   0.038209   0.039580
    6             0.000119   0.278803   0.007899   0.045559   0.011161
    7             0.728380   0.002945   0.381134   0.182377   0.370148
    8             0.003533   0.002809   0.536404   0.033827   0.084952

                     11         12         13         14         15

                  2.000000   2.000000   2.000000   2.000000   2.000000

    1             0.032542   0.909165   0.246254   0.014980   0.872097
    2             0.465682   0.015701   0.482472   0.056852   0.008901
    3             0.551039   0.015325   0.263063   1.462732   0.601451
    4             0.000995   0.001184   0.126390   0.003109  -0.001751
    5             0.007615   0.502047   0.005869   0.000097   0.115249
    6             0.018198   0.516660   0.000037   0.000010   0.098219
    7             0.920871   0.038024   0.860939   0.412485   0.284163
    8             0.003058   0.001893   0.014977   0.049736   0.021671

                     16         17

                  2.000000   2.000000

    1             0.237277   1.593997
    2             0.041523   0.003615
    3             0.277486   0.039148
    4             0.001878   0.001630
    5             0.018189   0.001728
    6             0.033740   0.001634
    7             1.181657   0.333876
    8             0.208250   0.024371

               ----- POPULATIONS IN EACH AO -----
                             MULLIKEN      LOWDIN
              1  N  1  S      1.99640     1.99353
              2  N  1  S      1.67430     1.54018
              3  N  1  X      1.46416     1.48330
              4  N  1  Y      1.42468     1.44729
              5  N  1  Z      1.06153     1.10632
              6  C  2  S      1.99364     1.98596
              7  C  2  S      1.12406     1.06150
              8  C  2  X      0.82806     0.85694
              9  C  2  Y      0.86122     0.90771
             10  C  2  Z      0.94771     0.97610
             11  O  3  S      1.99800     1.99647
             12  O  3  S      1.85872     1.75522
             13  O  3  X      1.40948     1.42522
             14  O  3  Y      1.32779     1.35569
             15  O  3  Z      1.82950     1.83608
             16  H  4  S      0.75393     0.80431
             17  H  5  S      1.01606     1.03196
             18  H  6  S      1.01157     1.02830
             19  O  7  S      1.99811     1.99720
             20  O  7  S      1.86128     1.76031
             21  O  7  X      1.32558     1.34920
             22  O  7  Y      1.45796     1.48319
             23  O  7  Z      1.76678     1.77712
             24  H  8  S      1.00948     1.04094

          ----- MULLIKEN ATOMIC OVERLAP POPULATIONS -----
          (OFF-DIAGONAL ELEMENTS NEED TO BE MULTIPLIED BY 2)

             1           2           3           4           5

    1    6.9907842
    2    0.0342850   4.7499047
    3   -0.0379758   0.2592546   8.0244143
    4    0.0830541  -0.0505789   0.2033025   0.5277740
    5    0.2850507  -0.0012762   0.0009830  -0.0046672   0.7945257
    6    0.2863963  -0.0012594   0.0009575  -0.0044884  -0.0590091
    7   -0.0059570   0.4046457  -0.0120379   0.0001595   0.0001505
    8   -0.0145682   0.3597183  -0.0154109  -0.0006224   0.0003018

             6           7           8

    6    0.7881443
    7    0.0002232   8.0807884
    8    0.0006046  -0.0582680   0.7377287

          TOTAL MULLIKEN AND LOWDIN ATOMIC POPULATIONS
       ATOM         MULL.POP.    CHARGE          LOW.POP.     CHARGE
    1 N             7.621069   -0.621069         7.570604   -0.570604
    2 C             5.754694    0.245306         5.788192    0.211808
    3 O             8.423487   -0.423487         8.368671   -0.368671
    4 H             0.753933    0.246067         0.804310    0.195690
    5 H             1.016059   -0.016059         1.031959   -0.031959
    6 H             1.011569   -0.011569         1.028303   -0.028303
    7 O             8.409704   -0.409704         8.367020   -0.367020
    8 H             1.009484   -0.009484         1.040939   -0.040939

          -------------------------------
          BOND ORDER AND VALENCE ANALYSIS     BOND ORDER THRESHOLD=0.050
          -------------------------------

                   BOND                       BOND                       BOND
  ATOM PAIR DIST  ORDER      ATOM PAIR DIST  ORDER      ATOM PAIR DIST  ORDER
    1   2  2.100  0.168        1   3  2.398  0.119        1   4  1.470  0.243
    1   5  1.035  0.981        1   6  1.035  0.982        1   7  2.797  0.083
    2   3  1.385  1.033        2   7  1.232  1.784        2   8  1.080  0.924
    3   4  1.096  0.658        3   7  2.365  0.096

                       TOTAL       BONDED        FREE
      ATOM            VALENCE     VALENCE     VALENCE
    1 N                 2.580       2.580      -0.000
    2 C                 3.926       3.926      -0.000
    3 O                 1.969       1.969      -0.000
    4 H                 0.939       0.939       0.000
    5 H                 1.000       1.000      -0.000
    6 H                 1.000       1.000      -0.000
    7 O                 2.009       2.009      -0.000
    8 H                 1.000       1.000      -0.000

          ---------------------
          ELECTROSTATIC MOMENTS
          ---------------------

 POINT   1           X           Y           Z (BOHR)    CHARGE
                 0.000000   -0.000000   -0.000000       -1.00 (A.U.)
         DX          DY          DZ         /D/  (DEBYE)
    -0.603406    0.743999    0.738834    1.209755
 ...... END OF PROPERTY EVALUATION ......
 STEP CPU TIME =     0.00 TOTAL CPU TIME =        0.1 (    0.0 MIN)
 TOTAL WALL CLOCK TIME=        0.1 SECONDS, CPU UTILIZATION IS 100.00%

 BEGINNING ONE ELECTRON GRADIENT...
 ..... END OF 1-ELECTRON GRADIENT ......
 STEP CPU TIME =     0.00 TOTAL CPU TIME =        0.1 (    0.0 MIN)
 TOTAL WALL CLOCK TIME=        0.1 SECONDS, CPU UTILIZATION IS  85.71%

          ----------------------
          GRADIENT OF THE ENERGY
          ----------------------
 THE COARSE/FINE SCHWARZ SCREENINGS SKIPPED          343/         102 BLOCKS.
 THE NUMBER OF GRADIENT INTEGRAL BLOCKS COMPUTED WAS      2608
 ...... END OF 2-ELECTRON GRADIENT ......
 STEP CPU TIME =     0.02 TOTAL CPU TIME =        0.1 (    0.0 MIN)
 TOTAL WALL CLOCK TIME=        0.1 SECONDS, CPU UTILIZATION IS 100.00%

          NSERCH=  0     ENERGY=    -240.8245474

                                 -----------------------
                                 GRADIENT (HARTREE/BOHR)
                                 -----------------------
        ATOM     ZNUC       DE/DX         DE/DY         DE/DZ
 --------------------------------------------------------------
    1  N            7.0    -0.0283187     0.0093736     0.0072962
    2  C            6.0     0.0553501     0.0627786    -0.0132995
    3  O            8.0    -0.0502183     0.0293018    -0.0011853
    4  H            1.0     0.0110637    -0.0194558     0.0001864
    5  H            1.0     0.0008533    -0.0248501    -0.0376955
    6  H            1.0     0.0207319    -0.0049973     0.0393926
    7  O            8.0     0.0304385    -0.0080898     0.0631845
    8  H            1.0    -0.0399005    -0.0440610    -0.0578795


                     --------------------
                     INTERNAL COORDINATES
                     --------------------

                 - - ATOMS - -         COORDINATE        GRADIENT
 NO.   TYPE    I  J  K  L  M  N         (ANG,DEG)     (H/B,H/RAD)
 ----------------------------------------------------------------
   1 STRETCH   2  1                     2.1000000      -0.0031535
   2 STRETCH   3  2                     1.3850000      -0.0013617
   3 BEND      3  2  1                 84.2900000       0.0762216
   4 STRETCH   4  3                     1.0960000       0.0179682
   5 BEND      4  3  2                 84.9400000      -0.0272952
   6 TORSION   4  3  2  1               0.0000000       0.0043422
   7 STRETCH   5  1                     1.0350000      -0.0159039
   8 BEND      5  1  2                126.6100000       0.0566652
   9 TORSION   5  1  2  3             120.0000000       0.0483116
  10 STRETCH   6  1                     1.0350000      -0.0148807
  11 BEND      6  1  2                126.6100000       0.0549143
  12 TORSION   6  1  2  3            -120.0000000      -0.0495690
  13 STRETCH   7  2                     1.2320000      -0.0401910
  14 BEND      7  2  1                111.5200000      -0.0112823
  15 TORSION   7  2  1  3             130.0000000       0.1252719
  16 STRETCH   8  2                     1.0800000      -0.0380790
  17 BEND      8  2  1                 89.4700000       0.0333628
  18 TORSION   8  2  1  3            -130.0000000      -0.1466866

 NOTE: CARTESIAN GRADIENTS ARE ALWAYS TAKEN TO TEST CONVERGENCE,
       SO THE FOLLOWING GRADIENTS ARE CARTESIAN.

          MAXIMUM GRADIENT = 0.0631845    RMS GRADIENT = 0.0341083

 NSERCH:   0  E=     -240.8245474079  GRAD. MAX=  0.0631845  R.M.S.=  0.0341083

          FORCE CONSTANT MATRIX NOT UPDATED --- TAKING FIRST STEP
          THE FIRST FEW LOCAL MODES AND EIGENVALUES ARE

  MODE           1           2           3           4           5
         -0.162047   -0.088420   -0.011440    0.019817    0.050424
  MODE
   1     -0.507856    0.005691    0.010752    0.083851    0.533076
   2      0.203351   -0.004397    0.008710    0.014515   -0.022296
   3      0.419298   -0.003564    0.004493   -0.004678   -0.117963
   4     -0.560949    0.019933   -0.035172   -0.078224   -0.000339
   5      0.187853   -0.002655    0.014513    0.029064    0.039348
   6      0.010444    0.087074    0.108855   -0.020957   -0.003035
   7      0.042629    0.021130   -0.035264    0.020014   -0.009173
   8     -0.137778    0.571753   -0.256818    0.252031   -0.407562
   9      0.234979   -0.313265   -0.592726    0.207947    0.459357
  10      0.038803   -0.021302    0.040913   -0.011474   -0.004584
  11     -0.142643   -0.545039    0.214258   -0.427281   -0.282323
  12     -0.224776   -0.276817   -0.651052   -0.035174   -0.436428
  13      0.019599   -0.000002   -0.001082    0.000454   -0.019909
  14      0.026512   -0.302563    0.178130    0.474292   -0.165847
  15     -0.003152   -0.115470   -0.061160   -0.069695   -0.033794
  16     -0.019392    0.004310    0.000018   -0.012866    0.001292
  17      0.119392    0.295558   -0.208054   -0.613332    0.151999
  18      0.103626    0.008182   -0.133269   -0.296784    0.017721

  MODE           6           7           8           9          10
          0.118210    0.135703    0.261762    0.328868    0.403904
  MODE
   1      0.532175    0.200950    0.061744    0.026379   -0.164639
   2      0.053489   -0.042662    0.004080    0.069726   -0.704069
   3      0.027688    0.054206   -0.257039    0.020742   -0.079475
   4     -0.621282   -0.101969   -0.037687    0.023018    0.037769
   5      0.298255    0.028204    0.163665   -0.032121    0.452016
   6      0.006160   -0.043663    0.034648    0.982321    0.063137
   7      0.072879    0.019019   -0.030030   -0.037636    0.189790
   8      0.186685    0.121707    0.052142   -0.004308    0.118449
   9     -0.155924   -0.106205   -0.036488    0.096182    0.149187
  10      0.075342    0.010669   -0.000807    0.054192    0.203238
  11      0.252179   -0.064619   -0.032736    0.016967    0.119386
  12      0.214506   -0.072687    0.011078    0.091719   -0.139173
  13     -0.036446   -0.029706   -0.001667   -0.005950    0.078627
  14     -0.113341    0.045434    0.746125   -0.002544   -0.076544
  15     -0.161437    0.591109   -0.024129    0.032262    0.149781
  16     -0.033115   -0.073027    0.083934   -0.005355    0.258186
  17     -0.001587   -0.260369    0.550748   -0.047494   -0.026037
  18     -0.130699    0.693003    0.163986    0.042490   -0.109933
 LOCAL CURVATURE   2 OF THE APPROXIMATE HESSIAN HAS EIGENVALUE=   -0.088420
 *** THIS MODE HAS AN INCORRECT CURVATURE ***
 THE COMPONENTS OF THIS MODE FOLLOWS:
        0.005691      -0.004397      -0.003564       0.019933      -0.002655
        0.087074       0.021130       0.571753      -0.313265      -0.021302
       -0.545039      -0.276817      -0.000002      -0.302563      -0.115470
        0.004310       0.295558       0.008182
 LOCAL CURVATURE   3 OF THE APPROXIMATE HESSIAN HAS EIGENVALUE=   -0.011440
 *** THIS MODE HAS AN INCORRECT CURVATURE ***
 THE COMPONENTS OF THIS MODE FOLLOWS:
        0.010752       0.008710       0.004493      -0.035172       0.014513
        0.108855      -0.035264      -0.256818      -0.592726       0.040913
        0.214258      -0.651052      -0.001082       0.178130      -0.061160
        0.000018      -0.208054      -0.133269
          HESSIAN MODE FOLLOWING SWITCHED ON, FOLLOWING MODE   1
          FOLLOWING MODE  1 WITH EIGENVALUE   -0.16205 AND COMPONENTS
             -0.50786  0.20335  0.41930 -0.56095  0.18785  0.01044
              0.04263 -0.13778  0.23498  0.03880 -0.14264 -0.22478
              0.01960  0.02651 -0.00315 -0.01939  0.11939  0.10363
          TRIM/QA LAMBDA FOR     TS MODE  =   0.52278188
          TRIM/QA LAMBDA FOR NON-TS MODES =  -0.52278188
          TRIM/QA STEP HAS LENGTH         =   0.200000
          RADIUS OF STEP TAKEN=   0.20000  CURRENT TRUST RADIUS=   0.20000
          TRANSFORMING DISPLACEMENT FROM INTERNALS TO CARTESIANS
          THE ROOT MEAN SQUARE ERROR IN ITERATION   1 IS   0.02491532
          THE ROOT MEAN SQUARE ERROR IN ITERATION   2 IS   0.00003343
          THE ROOT MEAN SQUARE ERROR IN ITERATION   3 IS   0.00000000

 BEGINNING GEOMETRY SEARCH POINT NSERCH=   1 ...

 COORDINATES OF ALL ATOMS ARE (ANGS)
   ATOM   CHARGE       X              Y              Z
 ------------------------------------------------------------
 N           7.0   1.5462580307  -0.4507274938  -0.0512982511
 C           6.0  -0.4608535307   0.0040780849   0.3682230041
 O           8.0  -0.0559585467   1.2447970539  -0.1104091417
 H           1.0   0.9201377246   0.8121175502  -0.2460809147
 H           1.0   2.2341675736  -0.7432046939   0.6710288724
 H           1.0   1.8413279228  -1.1630472624  -0.7477792058
 O           8.0  -1.2483345463  -0.7658057852  -0.1891942953
 H           1.0  -0.2925016643  -0.2937956472   1.4061413088


                     --------------------
                     INTERNAL COORDINATES
                     --------------------

                 - - ATOMS - -         COORDINATE      COORDINATE
 NO.   TYPE    I  J  K  L  M  N        (BOHR,RAD)       (ANG,DEG)
 ----------------------------------------------------------------
   1 STRETCH   2  1                     3.9690288       2.1003197
   2 STRETCH   3  2                     2.6269314       1.3901123
   3 BEND      3  2  1                  1.4163373      81.1501514
   4 STRETCH   4  3                     2.0338775       1.0762817
   5 BEND      4  3  2                  1.5195222      87.0622085
   6 TORSION   4  3  2  1              -0.0050113      -0.2871259
   7 STRETCH   5  1                     1.9643326       1.0394801
   8 BEND      5  1  2                  2.1586095     123.6792143
   9 TORSION   5  1  2  3               2.0552591     117.7576714
  10 STRETCH   6  1                     1.9634530       1.0390146
  11 BEND      6  1  2                  2.1576385     123.6235779
  12 TORSION   6  1  2  3              -2.0557666    -117.7867482
  13 STRETCH   7  2                     2.3325386       1.2343264
  14 BEND      7  2  1                  1.9653612     112.6069046
  15 TORSION   7  2  1  3               2.1879531     125.3604773
  16 STRETCH   8  2                     2.0652081       1.0928612
  17 BEND      8  2  1                  1.5542636      89.0527439
  18 TORSION   8  2  1  3              -2.1345722    -122.3019778

 THE CURRENT FULLY SUBSTITUTED Z-MATRIX IS
 N   
 C      1   2.1003197
 O      2   1.3901123  1    81.1501514
 H      3   1.0762817  2    87.0622085  1    -0.2871259  0
 H      1   1.0394801  2   123.6792143  3   117.7576714  0
 H      1   1.0390146  2   123.6235779  3  -117.7867482  0
 O      2   1.2343264  1   112.6069046  3   125.3604773  0
 H      2   1.0928612  1    89.0527439  3  -122.3019778  0

          INTERNUCLEAR DISTANCES (ANGS.)
          ------------------------------

                1 N          2 C          3 O          4 H          5 H     

   1 N       0.0000000    2.1003197 *  2.3335371 *  1.4229352 *  1.0394801 *
   2 C       2.1003197 *  0.0000000    1.3901123 *  1.7138944 *  2.8130520 *
   3 O       2.3335371 *  1.3901123 *  0.0000000    1.0762817 *  3.1316887  
   4 H       1.4229352 *  1.7138944 *  1.0762817 *  0.0000000    2.2331126 *
   5 H       1.0394801 *  2.8130520 *  3.1316887    2.2331126 *  0.0000000  
   6 H       1.0390146 *  2.8120601 *  3.1310782    2.2364187 *  1.5308844 *
   7 O       2.8156771 *  1.2343264 *  2.3389082 *  2.6824150 *  3.5872435  
   8 H       2.3515516 *  1.0928612 *  2.1732799 *  2.3288144 *  2.6695348 *

                6 H          7 O          8 H     

   1 N       1.0390146 *  2.8156771 *  2.3515516 *
   2 C       2.8120601 *  1.2343264 *  1.0928612 *
   3 O       3.1310782    2.3389082 *  2.1732799 *
   4 H       2.2364187 *  2.6824150 *  2.3288144 *
   5 H       1.5308844 *  3.5872435    2.6695348 *
   6 H       0.0000000    3.1647799    3.1540768  
   7 O       3.1647799    0.0000000    1.9187250 *
   8 H       3.1540768    1.9187250 *  0.0000000  

  * ... LESS THAN  3.000

 ...... END OF ONE-ELECTRON INTEGRALS ......
 STEP CPU TIME =     0.00 TOTAL CPU TIME =        0.1 (    0.0 MIN)
 TOTAL WALL CLOCK TIME=        0.1 SECONDS, CPU UTILIZATION IS  88.89%
 TOTAL NUMBER OF NONZERO TWO-ELECTRON INTEGRALS =               43031
          3 INTEGRAL RECORDS WERE STORED ON DISK FILE  8.
  ...... END OF TWO-ELECTRON INTEGRALS .....
 STEP CPU TIME =     0.01 TOTAL CPU TIME =        0.1 (    0.0 MIN)
 TOTAL WALL CLOCK TIME=        0.1 SECONDS, CPU UTILIZATION IS 100.00%

          --------------------------
                 RHF SCF CALCULATION
          --------------------------
     DENSITY MATRIX CONV=  1.00E-05

 ITER EX DEM     TOTAL ENERGY        E CHANGE  DENSITY CHANGE     ORB. GRAD
          ---------------START SECOND ORDER SCF---------------
   1  0  0     -240.8542917992  -240.8542917992   0.051721693   0.019755757
   2  1  0     -240.8574157488    -0.0031239496   0.031569100   0.008239979
   3  2  0     -240.8579788778    -0.0005631290   0.002597099   0.000782005
   4  3  0     -240.8579920499    -0.0000131721   0.001213166   0.000523473
   5  4  0     -240.8579949602    -0.0000029104   0.000741180   0.000176799
   6  5  0     -240.8579954664    -0.0000005062   0.000444298   0.000083841
   7  6  0     -240.8579955891    -0.0000001227   0.000116696   0.000036196
   8  7  0     -240.8579956039    -0.0000000148   0.000027347   0.000009949
   9  8  0     -240.8579956053    -0.0000000014   0.000017120   0.000003152
  10  9  0     -240.8579956056    -0.0000000002   0.000004382   0.000000925
  11 10  0     -240.8579956056    -0.0000000000   0.000000931   0.000000275

          -----------------
          DENSITY CONVERGED
          -----------------
     TIME TO FORM FOCK OPERATORS=       0.0 SECONDS (       0.0 SEC/ITER)
     TIME TO SOLVE SCF EQUATIONS=       0.0 SECONDS (       0.0 SEC/ITER)

 FINAL RHF ENERGY IS     -240.8579956056 AFTER  11 ITERATIONS
 ...... END OF RHF CALCULATION ......
 STEP CPU TIME =     0.01 TOTAL CPU TIME =        0.1 (    0.0 MIN)
 TOTAL WALL CLOCK TIME=        0.1 SECONDS, CPU UTILIZATION IS 100.00%
 ..... END OF 1-ELECTRON GRADIENT ......
 STEP CPU TIME =     0.00 TOTAL CPU TIME =        0.1 (    0.0 MIN)
 TOTAL WALL CLOCK TIME=        0.1 SECONDS, CPU UTILIZATION IS  90.91%
 ...... END OF 2-ELECTRON GRADIENT ......
 STEP CPU TIME =     0.02 TOTAL CPU TIME =        0.1 (    0.0 MIN)
 TOTAL WALL CLOCK TIME=        0.1 SECONDS, CPU UTILIZATION IS 100.00%

          NSERCH=  1     ENERGY=    -240.8579956

                                 -----------------------
                                 GRADIENT (HARTREE/BOHR)
                                 -----------------------
        ATOM     ZNUC       DE/DX         DE/DY         DE/DZ
 --------------------------------------------------------------
    1  N            7.0    -0.0230789     0.0124949     0.0045319
    2  C            6.0     0.0368247     0.0336903     0.0055507
    3  O            8.0    -0.0248773     0.0116541    -0.0029742
    4  H            1.0     0.0052377    -0.0114254     0.0002345
    5  H            1.0     0.0008210    -0.0135247    -0.0162869
    6  H            1.0     0.0097885    -0.0047769     0.0181676
    7  O            8.0     0.0108364    -0.0065654     0.0199623
    8  H            1.0    -0.0155521    -0.0215468    -0.0291860


                     --------------------
                     INTERNAL COORDINATES
                     --------------------

                 - - ATOMS - -         COORDINATE        GRADIENT
 NO.   TYPE    I  J  K  L  M  N         (ANG,DEG)     (H/B,H/RAD)
 ----------------------------------------------------------------
   1 STRETCH   2  1                     2.1003197      -0.0119395
   2 STRETCH   3  2                     1.3901123      -0.0045730
   3 BEND      3  2  1                 81.1501514       0.0298504
   4 STRETCH   4  3                     1.0762817       0.0093138
   5 BEND      4  3  2                 87.0622085      -0.0168533
   6 TORSION   4  3  2  1              -0.2871259       0.0032881
   7 STRETCH   5  1                     1.0394801      -0.0069689
   8 BEND      5  1  2                123.6792143       0.0255667
   9 TORSION   5  1  2  3             117.7576714       0.0248380
  10 STRETCH   6  1                     1.0390146      -0.0061235
  11 BEND      6  1  2                123.6235779       0.0239344
  12 TORSION   6  1  2  3            -117.7867482      -0.0264946
  13 STRETCH   7  2                     1.2343264      -0.0118333
  14 BEND      7  2  1                112.6069046      -0.0081890
  15 TORSION   7  2  1  3             125.3604773       0.0434239
  16 STRETCH   8  2                     1.0928612      -0.0242416
  17 BEND      8  2  1                 89.0527439       0.0081912
  18 TORSION   8  2  1  3            -122.3019778      -0.0637982

 NOTE: CARTESIAN GRADIENTS ARE ALWAYS TAKEN TO TEST CONVERGENCE,
       SO THE FOLLOWING GRADIENTS ARE CARTESIAN.

          MAXIMUM GRADIENT = 0.0368247    RMS GRADIENT = 0.0172811

 NSERCH:   1  E=     -240.8579956056  GRAD. MAX=  0.0368247  R.M.S.=  0.0172811

          HESSIAN UPDATED USING THE POWELL FORMULA
 LOCAL CURVATURE   2 OF THE APPROXIMATE HESSIAN HAS EIGENVALUE=   -0.088342
 *** THIS MODE HAS AN INCORRECT CURVATURE ***
 THE COMPONENTS OF THIS MODE FOLLOWS:
        0.004591       0.002767      -0.005437      -0.017791       0.004402
       -0.088161      -0.021671      -0.573496       0.308410       0.020686
        0.544349       0.283949      -0.001857       0.302438       0.115128
       -0.003095      -0.291920       0.005046
 LOCAL CURVATURE   3 OF THE APPROXIMATE HESSIAN HAS EIGENVALUE=   -0.011445
 *** THIS MODE HAS AN INCORRECT CURVATURE ***
 THE COMPONENTS OF THIS MODE FOLLOWS:
        0.008077       0.007791       0.003661      -0.033754       0.013845
        0.108676      -0.036653      -0.261624      -0.591465       0.040073
        0.217928      -0.651916      -0.002536       0.177584      -0.058080
       -0.003769      -0.204568      -0.127387
             ACTUAL ENERGY CHANGE WAS  -0.0334481977
          PREDICTED ENERGY CHANGE WAS  -0.0338611898 RATIO=  0.988
          OVERLAP OF CURRENT MODE   1 WITH PREVIOUS MODE IS     0.999844
          FOLLOWING MODE  1 WITH EIGENVALUE   -0.16319 AND COMPONENTS
             -0.50299  0.20592  0.41978 -0.56519  0.19087  0.00882
              0.04483 -0.14494  0.23597  0.04097 -0.13839 -0.21702
              0.02234  0.02944 -0.00550 -0.01080  0.11545  0.10474
          TRIM/QA LAMBDA FOR     TS MODE  =   0.09833295
          TRIM/QA LAMBDA FOR NON-TS MODES =  -0.09833295
          TRIM/QA STEP HAS LENGTH         =   0.300000
          RADIUS OF STEP TAKEN=   0.30000  CURRENT TRUST RADIUS=   0.30000
          TRANSFORMING DISPLACEMENT FROM INTERNALS TO CARTESIANS
          THE ROOT MEAN SQUARE ERROR IN ITERATION   1 IS   0.02946503
          THE ROOT MEAN SQUARE ERROR IN ITERATION   2 IS   0.00014638
          THE ROOT MEAN SQUARE ERROR IN ITERATION   3 IS   0.00000002
          THE ROOT MEAN SQUARE ERROR IN ITERATION   4 IS   0.00000000

 BEGINNING GEOMETRY SEARCH POINT NSERCH=   2 ...

 COORDINATES OF ALL ATOMS ARE (ANGS)
   ATOM   CHARGE       X              Y              Z
 ------------------------------------------------------------
 N           7.0   1.5810125798  -0.4366145310  -0.0549871332
 C           6.0  -0.4646195175  -0.0225657313   0.3531923798
 O           8.0  -0.0417206269   1.2299349849  -0.1119025737
 H           1.0   0.9248428434   0.8647876558  -0.2162603138
 H           1.0   2.1251751388  -0.7584619751   0.7737430951
 H           1.0   1.9957900674  -1.0395638229  -0.8014432018
 O           8.0  -1.2969064470  -0.7587891255  -0.1795731514
 H           1.0  -0.2358222334  -0.2090266383   1.4284995107


                     --------------------
                     INTERNAL COORDINATES
                     --------------------

                 - - ATOMS - -         COORDINATE      COORDINATE
 NO.   TYPE    I  J  K  L  M  N        (BOHR,RAD)       (ANG,DEG)
 ----------------------------------------------------------------
   1 STRETCH   2  1                     4.0187935       2.1266541
   2 STRETCH   3  2                     2.6482572       1.4013975
   3 BEND      3  2  1                  1.3898475      79.6323982
   4 STRETCH   4  3                     1.9624675       1.0384932
   5 BEND      4  3  2                  1.5707603      89.9979365
   6 TORSION   4  3  2  1              -0.0362228      -2.0754122
   7 STRETCH   5  1                     1.9697549       1.0423495
   8 BEND      5  1  2                  1.9929004     114.1847828
   9 TORSION   5  1  2  3               2.1038772     120.5432829
  10 STRETCH   6  1                     1.9754506       1.0453635
  11 BEND      6  1  2                  2.2536540     129.1248619
  12 TORSION   6  1  2  3              -1.9357284    -110.9090653
  13 STRETCH   7  2                     2.3287111       1.2323009
  14 BEND      7  2  1                  2.0379683     116.7669802
  15 TORSION   7  2  1  3               2.1949120     125.7591951
  16 STRETCH   8  2                     2.1071939       1.1150791
  17 BEND      8  2  1                  1.5259465      87.4302947
  18 TORSION   8  2  1  3              -2.0075137    -115.0220640

 THE CURRENT FULLY SUBSTITUTED Z-MATRIX IS
 N   
 C      1   2.1266541
 O      2   1.4013975  1    79.6323982
 H      3   1.0384932  2    89.9979365  1    -2.0754122  0
 H      1   1.0423495  2   114.1847828  3   120.5432829  0
 H      1   1.0453635  2   129.1248619  3  -110.9090653  0
 O      2   1.2323009  1   116.7669802  3   125.7591951  0
 H      2   1.1150791  1    87.4302947  3  -115.0220640  0

          INTERNUCLEAR DISTANCES (ANGS.)
          ------------------------------

                1 N          2 C          3 O          4 H          5 H     

   1 N       0.0000000    2.1266541 *  2.3267767 *  1.4663613 *  1.0423495 *
   2 C       2.1266541 *  0.0000000    1.4013975 *  1.7442127 *  2.7249665 *
   3 O       2.3267767 *  1.4013975 *  0.0000000    1.0384932 *  3.0714049  
   4 H       1.4663613 *  1.7442127 *  1.0384932 *  0.0000000    2.2485203 *
   5 H       1.0423495 *  2.7249665 *  3.0714049    2.2485203 *  0.0000000  
   6 H       1.0453635 *  2.9019104 *  3.1269060    2.2618403 *  1.6052946 *
   7 O       2.8985748 *  1.2323009 *  2.3526781 *  2.7520024 *  3.5523871  
   8 H       2.3565690 *  1.1150791 *  2.1168667 *  2.2815467 *  2.5109547 *

                6 H          7 O          8 H     

   1 N       1.0453635 *  2.8985748 *  2.3565690 *
   2 C       2.9019104 *  1.2323009 *  1.1150791 *
   3 O       3.1269060    2.3526781 *  2.1168667 *
   4 H       2.2618403 *  2.7520024 *  2.2815467 *
   5 H       1.6052946 *  3.5523871    2.5109547 *
   6 H       0.0000000    3.3626488    3.2622891  
   7 O       3.3626488    0.0000000    2.0035060 *
   8 H       3.2622891    2.0035060 *  0.0000000  

  * ... LESS THAN  3.000

 ...... END OF ONE-ELECTRON INTEGRALS ......
 STEP CPU TIME =     0.00 TOTAL CPU TIME =        0.1 (    0.0 MIN)
 TOTAL WALL CLOCK TIME=        0.1 SECONDS, CPU UTILIZATION IS 100.00%
 TOTAL NUMBER OF NONZERO TWO-ELECTRON INTEGRALS =               42926
          3 INTEGRAL RECORDS WERE STORED ON DISK FILE  8.
  ...... END OF TWO-ELECTRON INTEGRALS .....
 STEP CPU TIME =     0.01 TOTAL CPU TIME =        0.1 (    0.0 MIN)
 TOTAL WALL CLOCK TIME=        0.1 SECONDS, CPU UTILIZATION IS 100.00%

          --------------------------
                 RHF SCF CALCULATION
          --------------------------
     DENSITY MATRIX CONV=  1.00E-05

 ITER EX DEM     TOTAL ENERGY        E CHANGE  DENSITY CHANGE     ORB. GRAD
          ---------------START SECOND ORDER SCF---------------
   1  0  0     -240.8526027846  -240.8526027846   0.072064388   0.043468429
   2  1  0     -240.8643956173    -0.0117928327   0.062720021   0.020853755
   3  2  0     -240.8672984503    -0.0029028330   0.006385248   0.001802998
   4  3  0     -240.8673503933    -0.0000519430   0.002490942   0.001004230
   5  4  0     -240.8673613706    -0.0000109773   0.000378066   0.000108820
   6  5  0     -240.8673617043    -0.0000003337   0.000247653   0.000048713
   7  6  0     -240.8673617701    -0.0000000658   0.000088127   0.000020456
   8  7  0     -240.8673617809    -0.0000000107   0.000024596   0.000008878
   9  8  0     -240.8673617822    -0.0000000014   0.000011019   0.000003889
  10  9  0     -240.8673617824    -0.0000000002   0.000004710   0.000001355
  11 10  0     -240.8673617825    -0.0000000000   0.000002106   0.000000636

          -----------------
          DENSITY CONVERGED
          -----------------
     TIME TO FORM FOCK OPERATORS=       0.0 SECONDS (       0.0 SEC/ITER)
     TIME TO SOLVE SCF EQUATIONS=       0.0 SECONDS (       0.0 SEC/ITER)

 FINAL RHF ENERGY IS     -240.8673617825 AFTER  11 ITERATIONS
 ...... END OF RHF CALCULATION ......
 STEP CPU TIME =     0.01 TOTAL CPU TIME =        0.1 (    0.0 MIN)
 TOTAL WALL CLOCK TIME=        0.1 SECONDS, CPU UTILIZATION IS 100.00%
 ..... END OF 1-ELECTRON GRADIENT ......
 STEP CPU TIME =     0.00 TOTAL CPU TIME =        0.1 (    0.0 MIN)
 TOTAL WALL CLOCK TIME=        0.1 SECONDS, CPU UTILIZATION IS 100.00%
 ...... END OF 2-ELECTRON GRADIENT ......
 STEP CPU TIME =     0.02 TOTAL CPU TIME =        0.2 (    0.0 MIN)
 TOTAL WALL CLOCK TIME=        0.2 SECONDS, CPU UTILIZATION IS 100.00%

          NSERCH=  2     ENERGY=    -240.8673618

                                 -----------------------
                                 GRADIENT (HARTREE/BOHR)
                                 -----------------------
        ATOM     ZNUC       DE/DX         DE/DY         DE/DZ
 --------------------------------------------------------------
    1  N            7.0    -0.0058722     0.0025503     0.0042905
    2  C            6.0     0.0103916     0.0075393    -0.0067546
    3  O            8.0     0.0025308     0.0024314     0.0016243
    4  H            1.0    -0.0051968     0.0000084    -0.0008129
    5  H            1.0    -0.0025425    -0.0020523    -0.0020738
    6  H            1.0     0.0015957    -0.0011439     0.0010523
    7  O            8.0     0.0018698    -0.0041347     0.0083670
    8  H            1.0    -0.0027764    -0.0051983    -0.0056928


                     --------------------
                     INTERNAL COORDINATES
                     --------------------

                 - - ATOMS - -         COORDINATE        GRADIENT
 NO.   TYPE    I  J  K  L  M  N         (ANG,DEG)     (H/B,H/RAD)
 ----------------------------------------------------------------
   1 STRETCH   2  1                     2.1266541      -0.0070608
   2 STRETCH   3  2                     1.4013975       0.0011067
   3 BEND      3  2  1                 79.6323982       0.0066062
   4 STRETCH   4  3                     1.0384932      -0.0047581
   5 BEND      4  3  2                 89.9979365      -0.0025338
   6 TORSION   4  3  2  1              -2.0754122       0.0035978
   7 STRETCH   5  1                     1.0423495      -0.0023425
   8 BEND      5  1  2                114.1847828      -0.0014863
   9 TORSION   5  1  2  3             120.5432829       0.0053667
  10 STRETCH   6  1                     1.0453635       0.0005415
  11 BEND      6  1  2                129.1248619       0.0030911
  12 TORSION   6  1  2  3            -110.9090653      -0.0022835
  13 STRETCH   7  2                     1.2323009      -0.0024100
  14 BEND      7  2  1                116.7669802       0.0002289
  15 TORSION   7  2  1  3             125.7591951       0.0191445
  16 STRETCH   8  2                     1.1150791      -0.0051902
  17 BEND      8  2  1                 87.4302947       0.0007029
  18 TORSION   8  2  1  3            -115.0220640      -0.0133287

 NOTE: CARTESIAN GRADIENTS ARE ALWAYS TAKEN TO TEST CONVERGENCE,
       SO THE FOLLOWING GRADIENTS ARE CARTESIAN.

          MAXIMUM GRADIENT = 0.0103916    RMS GRADIENT = 0.0045192

 NSERCH:   2  E=     -240.8673617825  GRAD. MAX=  0.0103916  R.M.S.=  0.0045192

          HESSIAN UPDATED USING THE POWELL FORMULA
 LOCAL CURVATURE   2 OF THE APPROXIMATE HESSIAN HAS EIGENVALUE=   -0.018388
 *** THIS MODE HAS AN INCORRECT CURVATURE ***
 THE COMPONENTS OF THIS MODE FOLLOWS:
       -0.064390       0.017550       0.022729      -0.030085       0.006576
        0.029200      -0.037023      -0.507532      -0.246966       0.039730
        0.417645      -0.382223       0.001170       0.384233      -0.035120
       -0.012978      -0.413593      -0.176291
             ACTUAL ENERGY CHANGE WAS  -0.0093661769
          PREDICTED ENERGY CHANGE WAS  -0.0127250795 RATIO=  0.736
          OVERLAP OF CURRENT MODE   1 WITH PREVIOUS MODE IS     0.994211
          FOLLOWING MODE  1 WITH EIGENVALUE   -0.16234 AND COMPONENTS
             -0.50888  0.20346  0.41974 -0.55418  0.18530  0.01962
              0.04602 -0.08300  0.20076  0.03827 -0.19527 -0.25317
              0.02325  0.00116 -0.01965 -0.01303  0.13761  0.09267
          TRIM/QA LAMBDA FOR     TS MODE  =   0.03381059
          TRIM/QA LAMBDA FOR NON-TS MODES =  -0.03381059
          TRIM/QA STEP HAS LENGTH         =   0.300000
          RADIUS OF STEP TAKEN=   0.30000  CURRENT TRUST RADIUS=   0.30000
          TRANSFORMING DISPLACEMENT FROM INTERNALS TO CARTESIANS
          THE ROOT MEAN SQUARE ERROR IN ITERATION   1 IS   0.02854603
          THE ROOT MEAN SQUARE ERROR IN ITERATION   2 IS   0.00008772
          THE ROOT MEAN SQUARE ERROR IN ITERATION   3 IS   0.00000001
          THE ROOT MEAN SQUARE ERROR IN ITERATION   4 IS   0.00000000

 BEGINNING GEOMETRY SEARCH POINT NSERCH=   3 ...

 COORDINATES OF ALL ATOMS ARE (ANGS)
   ATOM   CHARGE       X              Y              Z
 ------------------------------------------------------------
 N           7.0   1.5540219388  -0.4643044664  -0.0597438387
 C           6.0  -0.4898903454   0.0077377754   0.3898870652
 O           8.0  -0.0480839628   1.2450849802  -0.1091547042
 H           1.0   0.8997285508   0.8835431476  -0.2335578152
 H           1.0   2.2302138844  -0.7965070176   0.6728859331
 H           1.0   1.8000476991  -1.0966653999  -0.8509033110
 O           8.0  -1.2310850994  -0.7775967699  -0.2000275436
 H           1.0  -0.3877331165  -0.0506710908   1.5063035423


                     --------------------
                     INTERNAL COORDINATES
                     --------------------

                 - - ATOMS - -         COORDINATE      COORDINATE
 NO.   TYPE    I  J  K  L  M  N        (BOHR,RAD)       (ANG,DEG)
 ----------------------------------------------------------------
   1 STRETCH   2  1                     4.0541424       2.1453599
   2 STRETCH   3  2                     2.6558979       1.4054407
   3 BEND      3  2  1                  1.3896122      79.6189154
   4 STRETCH   4  3                     1.9313491       1.0220260
   5 BEND      4  3  2                  1.5941062      91.3355570
   6 TORSION   4  3  2  1              -0.0373232      -2.1384603
   7 STRETCH   5  1                     1.9858678       1.0508760
   8 BEND      5  1  2                  2.1370461     122.4437217
   9 TORSION   5  1  2  3               2.1016460     120.4154463
  10 STRETCH   6  1                     1.9696188       1.0422775
  11 BEND      6  1  2                  2.1146837     121.1624496
  12 TORSION   6  1  2  3              -1.9145361    -109.6948401
  13 STRETCH   7  2                     2.3252994       1.2304955
  14 BEND      7  2  1                  1.9102436     109.4488968
  15 TORSION   7  2  1  3               2.1672868     124.1763873
  16 STRETCH   8  2                     2.1214087       1.1226012
  17 BEND      8  2  1                  1.6813040      96.3316226
  18 TORSION   8  2  1  3              -1.9374238    -111.0062092

 THE CURRENT FULLY SUBSTITUTED Z-MATRIX IS
 N   
 C      1   2.1453599
 O      2   1.4054407  1    79.6189154
 H      3   1.0220260  2    91.3355570  1    -2.1384603  0
 H      1   1.0508760  2   122.4437217  3   120.4154463  0
 H      1   1.0422775  2   121.1624496  3  -109.6948401  0
 O      2   1.2304955  1   109.4488968  3   124.1763873  0
 H      2   1.1226012  1    96.3316226  3  -111.0062092  0

          INTERNUCLEAR DISTANCES (ANGS.)
          ------------------------------

                1 N          2 C          3 O          4 H          5 H     

   1 N       0.0000000    2.1453599 *  2.3433303 *  1.5083117 *  1.0508760 *
   2 C       2.1453599 *  0.0000000    1.4054407 *  1.7569175 *  2.8505903 *
   3 O       2.3433303 *  1.4054407 *  0.0000000    1.0220260 *  3.1575824  
[...]

                6 H          7 O          8 H     

   1 N       1.0450061 *  2.8709566 *  2.4079519 *
   2 C       2.8021160 *  1.2339127 *  1.1210398 *
   3 O       3.0835621    2.3370510 *  2.1140814 *
   4 H       2.2845097 *  2.7512846 *  2.3241829 *
   5 H       1.6122532 *  3.6037508    2.6668269 *
   6 H       0.0000000    3.1955026    3.2545772  
   7 O       3.1955026    0.0000000    2.0376255 *
   8 H       3.2545772    2.0376255 *  0.0000000  

  * ... LESS THAN  3.000


          NUCLEAR ENERGY    =      120.9111276608
          ELECTRONIC ENERGY =     -361.7793666156
          TOTAL ENERGY      =     -240.8682389548

          ------------------
          MOLECULAR ORBITALS
          ------------------

                      1          2          3          4          5
                  -19.9194   -19.9157   -14.8527   -10.8922    -1.0583
                     A          A          A          A          A   
    1  N  1  S    0.000117   0.000020   0.993566   0.000283  -0.012319
    2  N  1  S   -0.001085  -0.000131   0.029623  -0.001259   0.035332
    3  N  1  X    0.000432   0.000161   0.002838   0.001662  -0.008099
    4  N  1  Y   -0.000847   0.000059  -0.003012  -0.000069   0.003031
    5  N  1  Z    0.000095   0.000064  -0.000059  -0.000315   0.000873
    6  C  2  S   -0.000501  -0.000555   0.000193   0.992761  -0.135198
    7  C  2  S    0.004243   0.007034  -0.001096   0.031394   0.328621
    8  C  2  X    0.001005  -0.004177  -0.001161  -0.000689  -0.063590
    9  C  2  Y    0.003924  -0.003727   0.000416  -0.000295  -0.010917
   10  C  2  Z   -0.001527  -0.002888   0.000267   0.000532  -0.069872
   11  O  3  S   -0.994099   0.007728  -0.000168   0.000349  -0.132159
   12  O  3  S   -0.026051  -0.000010   0.001262  -0.003946   0.467052
   13  O  3  X   -0.001710   0.000299   0.000716   0.001305   0.014747
   14  O  3  Y    0.003705   0.000137  -0.000239   0.001991  -0.077938
   15  O  3  Z   -0.000808   0.000294  -0.000077  -0.000809   0.018448
   16  H  4  S    0.005792  -0.000004  -0.003177  -0.001420   0.072165
   17  H  5  S   -0.000090  -0.000011  -0.006674  -0.000046   0.003638
   18  H  6  S   -0.000099   0.000035  -0.006689  -0.000139   0.004355
   19  O  7  S   -0.007677  -0.994170  -0.000029   0.000174  -0.163388
   20  O  7  S   -0.000340  -0.026146   0.000169  -0.005501   0.564715
   21  O  7  X   -0.000027  -0.003629   0.000199  -0.001112   0.079399
   22  O  7  Y   -0.000408  -0.003268   0.000000  -0.001034   0.078667
   23  O  7  Z    0.000268  -0.002531  -0.000007  -0.000768   0.056746
   24  H  8  S   -0.000206  -0.000225   0.000058  -0.006521   0.039190

                      6          7          8          9         10
                   -0.9700    -0.6993    -0.4930    -0.3492    -0.3006
                     A          A          A          A          A   
    1  N  1  S    0.013331   0.215555  -0.012718   0.004725  -0.006850
    2  N  1  S   -0.037461  -0.733402   0.039351  -0.005865   0.052528
    3  N  1  X    0.003401  -0.062414   0.051215  -0.094558  -0.175195
    4  N  1  Y   -0.007075   0.062863   0.005351   0.142915   0.119486
    5  N  1  Z    0.000596  -0.000119  -0.031588   0.012190  -0.049641
    6  C  2  S   -0.017118   0.004660   0.162023   0.038170  -0.060369
    7  C  2  S    0.033758  -0.017542  -0.528059  -0.160610   0.216426
    8  C  2  X   -0.120005  -0.041030  -0.056402   0.142692   0.139733
    9  C  2  Y   -0.168220   0.038810  -0.035508  -0.268997  -0.067667
   10  C  2  Z   -0.020587  -0.012647  -0.268969   0.255141  -0.352277
   11  O  3  S    0.182650  -0.036688  -0.057690   0.011773   0.075067
   12  O  3  S   -0.662447   0.151601   0.253265  -0.056685  -0.366046
   13  O  3  X   -0.050709  -0.026922   0.100067   0.470422   0.170930
   14  O  3  Y    0.063739   0.009485   0.118399   0.102567  -0.380700
   15  O  3  Z   -0.019548   0.003035  -0.148426  -0.025654  -0.149556
   16  H  4  S   -0.119431  -0.046949   0.120910   0.358775   0.169775
   17  H  5  S   -0.004874  -0.218873   0.015279  -0.081506  -0.156795
   18  H  6  S   -0.004106  -0.215803   0.038837  -0.110196  -0.052324
   19  O  7  S   -0.148268  -0.006722  -0.086983  -0.033978   0.052680
   20  O  7  S    0.525544   0.027008   0.381519   0.167180  -0.265268
   21  O  7  X    0.051346  -0.010294  -0.084307  -0.026944   0.321623
   22  O  7  Y    0.043330   0.009870  -0.056930  -0.271594   0.185008
   23  O  7  Z    0.049064  -0.001641  -0.147161   0.105503  -0.125778
   24  H  8  S    0.002847  -0.019232  -0.371661   0.172191  -0.150349

                     11         12         13         14         15
                   -0.2463    -0.2191    -0.1428    -0.0888    -0.0519
                     A          A          A          A          A   
    1  N  1  S    0.006613   0.000150   0.010494  -0.003837   0.001502
    2  N  1  S   -0.037416   0.000108  -0.047178   0.019777  -0.008273
    3  N  1  X    0.042481   0.116027  -0.146029   0.008489  -0.018263
    4  N  1  Y   -0.069306   0.114908  -0.208600   0.044262  -0.010843
    5  N  1  Z   -0.094002   0.486895   0.092764  -0.011926  -0.009698
    6  C  2  S   -0.013208  -0.003487  -0.002904   0.005707   0.007942
    7  C  2  S    0.027441   0.007906   0.025514  -0.018852  -0.060113
    8  C  2  X   -0.289725  -0.050437   0.389361  -0.021903  -0.019810
    9  C  2  Y   -0.368344  -0.063779  -0.223111   0.077100  -0.075144
   10  C  2  Z   -0.032004  -0.073077  -0.083970   0.089064   0.092632
   11  O  3  S   -0.051248  -0.002640  -0.042489   0.004577  -0.006339
   12  O  3  S    0.261444   0.013674   0.222384  -0.026496   0.034988
   13  O  3  X   -0.007368   0.014694  -0.273418  -0.194299   0.047644
   14  O  3  Y    0.308970   0.016228   0.105950  -0.312173   0.327536
   15  O  3  Z   -0.275497  -0.070644  -0.146518  -0.838703  -0.229337
   16  H  4  S    0.024729   0.022063  -0.247401   0.013373   0.041138
   17  H  5  S   -0.048017   0.480456   0.032908  -0.003961  -0.022522
   18  H  6  S    0.117214  -0.484890   0.009004  -0.017804   0.013638
   19  O  7  S    0.077801   0.016923  -0.011100  -0.009051  -0.000460
   20  O  7  S   -0.417363  -0.093376   0.061535   0.053758   0.000382
   21  O  7  X    0.320333   0.096282   0.356467  -0.322947   0.017441
   22  O  7  Y    0.182454   0.095283  -0.484964  -0.112852   0.467601
   23  O  7  Z    0.404978   0.035726  -0.200781   0.109697  -0.714133
   24  H  8  S   -0.036136  -0.045055   0.059323   0.166035   0.366925

                     16         17         18         19         20
                   -0.0184     0.0517     0.5942     0.8873     0.9117
                     A          A          A          A          A   
    1  N  1  S   -0.112283  -0.017002   0.035771   0.053914   0.138060
    2  N  1  S    0.578372   0.087299  -0.185692  -0.325498  -0.873574
    3  N  1  X   -0.335914  -0.679866   0.283146  -0.016699  -0.391634
    4  N  1  Y    0.519808  -0.526256   0.140059   0.066123   0.237836
    5  N  1  Z   -0.029532   0.279031  -0.100889   0.014329  -0.032080
    6  C  2  S    0.010025   0.007985  -0.040971  -0.194409   0.047040
    7  C  2  S   -0.012042  -0.006772   0.192765   1.123589  -0.298773
    8  C  2  X   -0.024210   0.004875   0.724999   0.098264  -0.026463
    9  C  2  Y   -0.002270  -0.016266  -0.413521   0.275477   0.069719
   10  C  2  Z   -0.005287  -0.019865  -0.233613   0.387279  -0.365041
   11  O  3  S   -0.005149  -0.003952  -0.016435   0.071155   0.053333
   12  O  3  S    0.030583   0.024070   0.100441  -0.434591  -0.342922
   13  O  3  X   -0.425333   0.117408  -0.040656   0.058135  -0.430764
   14  O  3  Y    0.296246   0.055448   0.114046   0.498652   0.146970
   15  O  3  Z    0.057630   0.003430   0.054631  -0.250530   0.113535
   16  H  4  S   -0.049563  -0.030302  -0.204663   0.195108   0.646038
   17  H  5  S   -0.276987  -0.037033   0.063446   0.184992   0.659343
   18  H  6  S   -0.272358  -0.036774   0.062785   0.198825   0.549582
   19  O  7  S   -0.000386   0.000195   0.002121   0.027875  -0.001111
   20  O  7  S   -0.000076  -0.001669  -0.003185  -0.156652   0.002800
   21  O  7  X   -0.077468  -0.303606  -0.488408  -0.101279  -0.019715
   22  O  7  Y    0.000262   0.213774   0.353409  -0.184942  -0.032690
   23  O  7  Z    0.057313   0.146908   0.207442  -0.156565   0.110550
   24  H  8  S   -0.068252  -0.104443  -0.058215  -0.922150   0.417347

                     21         22         23         24
                    0.9807     1.0151     1.0813     1.2084
                     A          A          A          A   
    1  N  1  S   -0.033642   0.005065  -0.034914  -0.001539
    2  N  1  S    0.219629  -0.035612   0.277562   0.009132
    3  N  1  X    0.099479   0.207977   0.488696   0.000593
    4  N  1  Y   -0.132922   0.247918  -0.639990  -0.099887
    5  N  1  Z   -0.208860   0.969648   0.104081  -0.102561
    6  C  2  S   -0.038519   0.009087  -0.013927   0.092038
    7  C  2  S    0.157686  -0.074192   0.064013  -0.624019
    8  C  2  X    0.060880   0.072138   0.023850   0.733652
    9  C  2  Y    0.639866   0.199570  -0.114813   0.698037
   10  C  2  Z   -0.803688  -0.158145  -0.097354   0.526300
   11  O  3  S    0.053826   0.010731   0.065906   0.020900
   12  O  3  S   -0.336478  -0.068587  -0.437649  -0.145390
   13  O  3  X    0.382303   0.072741  -0.557081  -0.112862
   14  O  3  Y    0.544691   0.108477   0.124412   0.104749
   15  O  3  Z   -0.152015  -0.051731   0.106996  -0.175494
   16  H  4  S   -0.205306  -0.052663   0.965561   0.096748
   17  H  5  S   -0.020152  -0.742123  -0.533351   0.038533
   18  H  6  S   -0.332561   0.816704  -0.428245  -0.103844
   19  O  7  S    0.009362  -0.009761   0.012038  -0.113334
   20  O  7  S   -0.056918   0.069797  -0.083296   0.824108
   21  O  7  X   -0.046459   0.057529  -0.100703   0.614210
   22  O  7  Y   -0.235814   0.006993  -0.040249   0.531670
   23  O  7  Z    0.221426   0.101071  -0.020204   0.423651
   24  H  8  S    0.585580   0.150433   0.018437  -0.110635

     ----------------------------------------------------------------
     PROPERTY VALUES FOR THE RHF   SELF-CONSISTENT FIELD WAVEFUNCTION
     ----------------------------------------------------------------

          -----------------
          ENERGY COMPONENTS
          -----------------

         WAVEFUNCTION NORMALIZATION =       1.0000000000

                ONE ELECTRON ENERGY =    -583.2267117081
                TWO ELECTRON ENERGY =     221.4473450925
           NUCLEAR REPULSION ENERGY =     120.9111276608
                                      ------------------
                       TOTAL ENERGY =    -240.8682389548

 ELECTRON-ELECTRON POTENTIAL ENERGY =     221.4473450925
  NUCLEUS-ELECTRON POTENTIAL ENERGY =    -824.1842894765
   NUCLEUS-NUCLEUS POTENTIAL ENERGY =     120.9111276608
                                      ------------------
             TOTAL POTENTIAL ENERGY =    -481.8258167232
               TOTAL KINETIC ENERGY =     240.9575777684
                 VIRIAL RATIO (V/T) =       1.9996292343

          ---------------------------------------
          MULLIKEN AND LOWDIN POPULATION ANALYSES
          ---------------------------------------

     ATOMIC MULLIKEN POPULATION IN EACH MOLECULAR ORBITAL

                      1          2          3          4          5

                  2.000000   2.000000   2.000000   2.000000   2.000000

    1             0.000004   0.000000   2.001777  -0.000029   0.007990
    2            -0.000588  -0.001369  -0.000033   2.001915   0.521413
    3             2.001049   0.000120   0.000001  -0.000350   0.557817
    4            -0.000587   0.000000  -0.000133  -0.000044   0.051475
    5             0.000000   0.000000  -0.000804  -0.000000   0.000253
    6             0.000000  -0.000000  -0.000808  -0.000000   0.000340
    7             0.000121   2.001247   0.000000  -0.000644   0.842094
    8             0.000002   0.000002   0.000000  -0.000847   0.018619

                      6          7          8          9         10

                  2.000000   2.000000   2.000000   2.000000   2.000000

    1             0.007923   1.370273   0.019226   0.111945   0.167739
    2             0.276320   0.021789   0.880556   0.478242   0.489750
    3             0.978664   0.038095   0.234359   0.668204   0.648888
    4             0.108771   0.017073   0.036189   0.336281   0.084033
    5             0.000333   0.276751   0.000712   0.017846   0.063740
    6             0.000255   0.271332   0.005540   0.033641   0.007022
    7             0.627748   0.002000   0.293008   0.263912   0.477619
    8            -0.000014   0.002687   0.530409   0.089929   0.061211

                     11         12         13         14         15

                  2.000000   2.000000   2.000000   2.000000   2.000000

    1             0.052311   0.848819   0.189787   0.005514   0.001337
    2             0.475056   0.023780   0.486068   0.031079   0.034564
    3             0.502031   0.013363   0.273755   1.635685   0.332808
    4            -0.000098   0.000838   0.118584   0.000501   0.003336
    5             0.005338   0.519234   0.002238   0.000022   0.000753
    6             0.032979   0.532904   0.000155   0.000615   0.000343
    7             0.928988   0.056598   0.922046   0.273720   1.387529
    8             0.003395   0.004465   0.007368   0.052863   0.239330

                     16         17

                  2.000000   2.000000

    1             1.190880   1.634080
    2             0.000335   0.002792
    3             0.517816   0.031477
    4            -0.001944   0.002008
    5             0.135520   0.002257
    6             0.131373   0.002136
    7             0.018464   0.309110
    8             0.007556   0.016139

               ----- POPULATIONS IN EACH AO -----
                             MULLIKEN      LOWDIN
              1  N  1  S      1.99638     1.99345
              2  N  1  S      1.66932     1.53946
              3  N  1  X      1.47476     1.49243
              4  N  1  Y      1.48253     1.50391
              5  N  1  Z      0.98659     1.03224
              6  C  2  S      1.99373     1.98577
              7  C  2  S      1.13014     1.07403
              8  C  2  X      0.81299     0.84475
              9  C  2  Y      0.85547     0.89901
             10  C  2  Z      0.92933     0.95812
             11  O  3  S      1.99786     1.99623
             12  O  3  S      1.84316     1.73173
             13  O  3  X      1.37020     1.38817
             14  O  3  Y      1.37037     1.39575
             15  O  3  Z      1.85220     1.85852
             16  H  4  S      0.75628     0.81470
             17  H  5  S      1.02419     1.03995
             18  H  6  S      1.01783     1.03479
             19  O  7  S      1.99810     1.99717
             20  O  7  S      1.86255     1.76028
             21  O  7  X      1.33141     1.35635
             22  O  7  Y      1.50749     1.52579
             23  O  7  Z      1.70401     1.71809
             24  H  8  S      1.03311     1.05930

          ----- MULLIKEN ATOMIC OVERLAP POPULATIONS -----
          (OFF-DIAGONAL ELEMENTS NEED TO BE MULTIPLIED BY 2)

             1           2           3           4           5

    1    6.9823290
    2    0.0518249   4.7074109
    3   -0.0445960   0.2612684   8.0256638
    4    0.0632816  -0.0508746   0.2279259   0.5228706
    5    0.2861849  -0.0022307   0.0012434  -0.0038474   0.7845824
    6    0.2881885  -0.0021315   0.0012605  -0.0040875  -0.0421565
    7   -0.0051164   0.4137293  -0.0146031   0.0007398   0.0001225
    8   -0.0125205   0.3426715  -0.0243822   0.0002751   0.0002943

             6           7           8

    6    0.7760270
    7    0.0002752   8.0360194
    8    0.0004498  -0.0276071   0.7539330

          TOTAL MULLIKEN AND LOWDIN ATOMIC POPULATIONS
       ATOM         MULL.POP.    CHARGE          LOW.POP.     CHARGE
    1 N             7.609576   -0.609576         7.561496   -0.561496
    2 C             5.721668    0.278332         5.761681    0.238319
    3 O             8.433781   -0.433781         8.370406   -0.370406
    4 H             0.756283    0.243717         0.814703    0.185297
    5 H             1.024193   -0.024193         1.039949   -0.039949
    6 H             1.017826   -0.017826         1.034791   -0.034791
    7 O             8.403560   -0.403560         8.357673   -0.357673
    8 H             1.033114   -0.033114         1.059301   -0.059301

          -------------------------------
          BOND ORDER AND VALENCE ANALYSIS     BOND ORDER THRESHOLD=0.050
          -------------------------------

                   BOND                       BOND                       BOND
  ATOM PAIR DIST  ORDER      ATOM PAIR DIST  ORDER      ATOM PAIR DIST  ORDER
    1   2  2.118  0.217        1   3  2.336  0.103        1   4  1.511  0.190
    1   5  1.046  0.978        1   6  1.045  0.980        1   7  2.871  0.100
    2   3  1.409  0.990        2   7  1.234  1.790        2   8  1.121  0.903
    3   4  1.028  0.721        3   7  2.337  0.087        7   8  2.038  0.053

                       TOTAL       BONDED        FREE
      ATOM            VALENCE     VALENCE     VALENCE
    1 N                 2.575       2.575       0.000
    2 C                 3.915       3.915      -0.000
    3 O                 1.951       1.951      -0.000
    4 H                 0.941       0.941       0.000
    5 H                 0.999       0.999      -0.000
    6 H                 1.000       1.000       0.000
    7 O                 2.048       2.048       0.000
    8 H                 0.999       0.999       0.000

          ---------------------
          ELECTROSTATIC MOMENTS
          ---------------------

 POINT   1           X           Y           Z (BOHR)    CHARGE
                -0.000000   -0.000000    0.000000       -1.00 (A.U.)
         DX          DY          DZ         /D/  (DEBYE)
    -0.736877    0.559986    0.879176    1.276528
 ...... END OF PROPERTY EVALUATION ......
 STEP CPU TIME =     0.01 TOTAL CPU TIME =        0.5 (    0.0 MIN)
 TOTAL WALL CLOCK TIME=        0.5 SECONDS, CPU UTILIZATION IS 100.00%
  $VIB   
          IVIB=   0 IATOM=   0 ICOORD=   0 E=     -240.8682389548
  1.003508911E-05 2.596958235E-05 1.778163829E-05-8.617216801E-07-1.962177674E-05
 -7.460842526E-06 2.407299772E-05 1.387030967E-05-5.285095042E-06-2.607342676E-05
 -1.156384409E-05-2.995215175E-05-9.029848771E-06-5.270018040E-06 6.130334850E-07
 -4.320951687E-06-1.069379553E-06-1.803423930E-06 1.759255749E-05 2.373144142E-05
  1.589797187E-05-1.141469542E-05-2.604631503E-05 1.020886960E-05
 -7.368774884E-01 5.599864175E-01 8.791762104E-01
 ......END OF GEOMETRY SEARCH......
 STEP CPU TIME =     0.00 TOTAL CPU TIME =        0.5 (    0.0 MIN)
 TOTAL WALL CLOCK TIME=        0.5 SECONDS, CPU UTILIZATION IS 100.00%
               580000  WORDS OF DYNAMIC MEMORY USED
 EXECUTION OF GAMESS TERMINATED NORMALLY Fri Jun  2 02:10:58 2017
 DDI: 263640 bytes (0.3 MB / 0 MWords) used by master data server.

 ----------------------------------------
 CPU timing information for all processes
 ========================================
 0: 0.472 + 0.32 = 0.505
 ----------------------------------------
 ddikick.x: exited gracefully.
unset echo
----- accounting info -----
Files used on the master node compute-0-8.local were:
-rw-rw-r-- 1 sarom sarom   13124 Jun  2 02:10 /scratch/sadpt-culot3.F05
-rw-rw-r-- 1 sarom sarom  540048 Jun  2 02:10 /scratch/sadpt-culot3.F08
-rw-rw-r-- 1 sarom sarom 1995920 Jun  2 02:10 /scratch/sadpt-culot3.F10
rm: cannot remove `/scratch/sarom': Is a directory
rm: cannot remove `/scratch/tmp': Is a directory
ls: No match.
ls: No match.
ls: No match.
Fri Jun  2 02:11:01 CDT 2017
0.249u 0.165s 0:04.00 10.0%	0+0k 32+392io 0pf+0w
Deleting shmid=2785280.
Deleting shmid=2818049.
/opt/gridengine/default/spool/compute-0-8/active_jobs/23700.1/pe_hostfile compute-0-8.local
