----- GAMESS execution script 'rungms' -----
This job is running on host compute-3-0
under operating system Linux at Mon Nov 28 18:37:18 CST 2016
Available scratch disk space (Kbyte units) at beginning of the job is
Filesystem            1K-blocks       Used  Available Use% Mounted on
bolt.local:/export/home/sarom
                     9590469632 1552136192 7551165440  18% /home/sarom
Copying input file exam01.inp to your run's scratch directory...
cp exam01.inp .//exam01.F05
unset echo
/home/sarom/gamessGH/ddikick.x /home/sarom/gamessGH/gamess.00.x exam01 -ddi 1 1 localhost -scr ./

 Distributed Data Interface kickoff program.
 Initiating 1 compute processes on 1 nodes to run the following command:
 /home/sarom/gamessGH/gamess.00.x exam01 

          ******************************************************
          *         GAMESS VERSION = 18 AUG 2016 (R1)          *
          *             FROM IOWA STATE UNIVERSITY             *
          * M.W.SCHMIDT, K.K.BALDRIDGE, J.A.BOATZ, S.T.ELBERT, *
          *   M.S.GORDON, J.H.JENSEN, S.KOSEKI, N.MATSUNAGA,   *
          *          K.A.NGUYEN, S.J.SU, T.L.WINDUS,           *
          *       TOGETHER WITH M.DUPUIS, J.A.MONTGOMERY       *
          *         J.COMPUT.CHEM.  14, 1347-1363(1993)        *
          **************** 64 BIT LINUX VERSION ****************

  SINCE 1993, STUDENTS AND POSTDOCS WORKING AT IOWA STATE UNIVERSITY
  AND ALSO IN THEIR VARIOUS JOBS AFTER LEAVING ISU HAVE MADE IMPORTANT
  CONTRIBUTIONS TO THE CODE:
     IVANA ADAMOVIC, CHRISTINE AIKENS, YURI ALEXEEV, POOJA ARORA,
     ANDREY ASADCHEV, ROB BELL, PRADIPTA BANDYOPADHYAY, JONATHAN BENTZ,
     BRETT BODE, KURT BRORSEN, CALEB CARLIN, GALINA CHABAN, WEI CHEN,
     CHEOL HO CHOI, PAUL DAY, ALBERT DEFUSCO, NUWAN DESILVA, TIM DUDLEY,
     DMITRI FEDOROV, GRAHAM FLETCHER, MARK FREITAG, KURT GLAESEMANN,
     DAN KEMP, GRANT MERRILL, NORIYUKI MINEZAWA, JONATHAN MULLIN,
     TAKESHI NAGATA, SEAN NEDD, HEATHER NETZLOFF, BOSILJKA NJEGIC, RYAN OLSON,
     MIKE PAK, SPENCER PRUITT, LUKE ROSKOP, JIM SHOEMAKER, LYUDMILA SLIPCHENKO,
     TONY SMITH, SAROM SOK LEANG, JIE SONG, TETSUYA TAKETSUGU, SIMON WEBB,
     PENG XU, SOOHAENG YOO, FEDERICO ZAHARIEV

  ADDITIONAL CODE HAS BEEN PROVIDED BY COLLABORATORS IN OTHER GROUPS:
     IOWA STATE UNIVERSITY:
          JOE IVANIC, AARON WEST, LAIMUTIS BYTAUTAS, KLAUS RUEDENBERG
     UNIVERSITY OF TOKYO: KIMIHIKO HIRAO, TAKAHITO NAKAJIMA,
          TAKAO TSUNEDA, MUNEAKI KAMIYA, SUSUMU YANAGISAWA,
          KIYOSHI YAGI, MAHITO CHIBA, SEIKEN TOKURA, NAOAKI KAWAKAMI
     UNIVERSITY OF AARHUS: FRANK JENSEN
     UNIVERSITY OF IOWA: VISVALDAS KAIRYS, HUI LI
     NATIONAL INST. OF STANDARDS AND TECHNOLOGY: WALT STEVENS, DAVID GARMER
     UNIVERSITY OF PISA: BENEDETTA MENNUCCI, JACOPO TOMASI
     UNIVERSITY OF MEMPHIS: HENRY KURTZ, PRAKASHAN KORAMBATH
     UNIVERSITY OF ALBERTA: TOBY ZENG, MARIUSZ KLOBUKOWSKI
     UNIVERSITY OF NEW ENGLAND: MARK SPACKMAN
     MIE UNIVERSITY: HIROAKI UMEDA
     NAT. INST. OF ADVANCED INDUSTRIAL SCIENCE AND TECHNOLOGY: KAZUO KITAURA
     MICHIGAN STATE UNIVERSITY:
          KAROL KOWALSKI, MARTA WLOCH, JEFFREY GOUR, JESSE LUTZ,
          WEI LI, PIOTR PIECUCH
     UNIVERSITY OF SILESIA: MONIKA MUSIAL, STANISLAW KUCHARSKI
     FACULTES UNIVERSITAIRES NOTRE-DAME DE LA PAIX:
          OLIVIER QUINET, BENOIT CHAMPAGNE
     UNIVERSITY OF CALIFORNIA - SANTA BARBARA: BERNARD KIRTMAN
     INSTITUTE FOR MOLECULAR SCIENCE:
          KAZUYA ISHIMURA, MICHIO KATOUDA, AND SHIGERU NAGASE
     UNIVERSITY OF NOTRE DAME: ANNA POMOGAEVA, DAN CHIPMAN
     KYUSHU UNIVERSITY:
          HARUYUKI NAKANO,
          FENG LONG GU, JACEK KORCHOWIEC, MARCIN MAKOWSKI, AND YURIKO AOKI,
          HIROTOSHI MORI AND EISAKU MIYOSHI
     PENNSYLVANIA STATE UNIVERSITY:
          TZVETELIN IORDANOV, CHET SWALINA, JONATHAN SKONE,
          SHARON HAMMES-SCHIFFER
     WASEDA UNIVERSITY:
          MASATO KOBAYASHI, TOMOKO AKAMA, TSUGUKI TOUMA,
          TAKESHI YOSHIKAWA, YASUHIRO IKABATA, JUNJI SEINO,
          YUYA NAKAJIMA, HIROMI NAKAI
     NANJING UNIVERSITY: SHUHUA LI
     UNIVERSITY OF NEBRASKA:
          PEIFENG SU, DEJUN SI, NANDUN THELLAMUREGE, YALI WANG, HUI LI
     UNIVERSITY OF ZURICH: ROBERTO PEVERATI, KIM BALDRIDGE
     N. COPERNICUS UNIVERSITY AND JACKSON STATE UNIVERSITY:
          MARIA BARYSZ
     UNIVERSITY OF COPENHAGEN: Jimmy Kromann, CASPER STEINMANN
     TOKYO INSTITUTE OF TECHNOLOGY: HIROYA NAKATA
     NAGOYA UNIVERSITY: YOSHIO NISHIMOTO, STEPHAN IRLE
     MOSCOW STATE UNIVERSITY: VLADIMIR MIRONOV

 EXECUTION OF GAMESS BEGUN Mon Nov 28 18:37:18 2016

            ECHO OF THE FIRST FEW INPUT CARDS -
 INPUT CARD>! EFMO EXAM 01.                                                                 
 INPUT CARD>!    water trimer...illustration of EFMO method on clusters.                    
 INPUT CARD>!    taken from EXAM 37 of the standard test set.                               
 INPUT CARD>!                                                                               
 INPUT CARD> $contrl scftyp=rhf runtyp=gradient $end                                        
 INPUT CARD> $system timlim=1 $end                                                          
 INPUT CARD> $basis  gbasis=sto ngauss=3 $end                                               
 INPUT CARD> $fmo    nfrag=3 icharg(1)=0,0,0                                                
 INPUT CARD>         frgnam(1)=frag01,frag02,frag03                                         
 INPUT CARD>         indat(1)=1,1,1,                                                        
 INPUT CARD>                  2,2,2,                                                        
 INPUT CARD>                  3,3,3                                                         
 INPUT CARD>         iefmo=1                                                                
 INPUT CARD> $end                                                                           
 INPUT CARD> $fmoprp nprint=0 $end                                                          
 INPUT CARD> $fmoxyz                                                                        
 INPUT CARD>O  O        .000000     .000000     .000000                                     
 INPUT CARD>H  H        .000000     .000000     .957200                                     
 INPUT CARD>H  H        .926627     .000000    -.239987                                     
 INPUT CARD>O  O       2.542027     .893763   -1.001593                                     
 INPUT CARD>H  H       1.991815    1.623962   -1.284979                                     
 INPUT CARD>H  H       2.958433     .581215   -1.804806                                     
 INPUT CARD>O  O        .162059    2.462918   -1.477183                                     
 INPUT CARD>H  H       -.189749    1.755643    -.936605                                     
 INPUT CARD>H  H       -.375542    2.449889   -2.269046                                     
 INPUT CARD> $end                                                                           
 INPUT CARD> $data                                                                          
 INPUT CARD>Basis set input, with no atomic coordinates                                     
 INPUT CARD>C1                                                                              
 INPUT CARD>h-1 1                                                                           
 INPUT CARD>c-1 6                                                                           
 INPUT CARD>n-1 7                                                                           
 INPUT CARD>o-1 8                                                                           
 INPUT CARD> $end                                                                           
    1000000 WORDS OF MEMORY AVAILABLE

     BASIS OPTIONS
     -------------
     GBASIS=STO          IGAUSS=       3      POLAR=NONE    
     NDFUNC=       0     NFFUNC=       0     DIFFSP=       F
     NPFUNC=       0      DIFFS=       F     BASNAM=        


     RUN TITLE
     ---------
 Basis set input, with no atomic coordinates                                     

 THE POINT GROUP OF THE MOLECULE IS C1      
 THE ORDER OF THE PRINCIPAL AXIS IS     0

 ATOM   ATOMIC CHARGE
 H-1         1.0
 C-1         6.0
 N-1         7.0
 O-1         8.0

     ATOMIC BASIS SET LIBRARY
     ----------------
 THE CONTRACTED PRIMITIVE FUNCTIONS HAVE BEEN UNNORMALIZED
 THE CONTRACTED BASIS FUNCTIONS ARE NOW NORMALIZED TO UNITY

  SHELL TYPE  PRIMITIVE        EXPONENT          CONTRACTION COEFFICIENT(S)

 H-1       

      1   S       1             3.4252509    0.154328967295
      1   S       2             0.6239137    0.535328142282
      1   S       3             0.1688554    0.444634542185

 C-1       

      2   S       4            71.6168373    0.154328967295
      2   S       5            13.0450963    0.535328142282
      2   S       6             3.5305122    0.444634542185

      3   L       7             2.9412494   -0.099967229187    0.155916274999
      3   L       8             0.6834831    0.399512826089    0.607683718598
      3   L       9             0.2222899    0.700115468880    0.391957393099

 N-1       

      4   S      10            99.1061690    0.154328967295
      4   S      11            18.0523124    0.535328142282
      4   S      12             4.8856602    0.444634542185

      5   L      13             3.7804559   -0.099967229187    0.155916274999
      5   L      14             0.8784966    0.399512826089    0.607683718598
      5   L      15             0.2857144    0.700115468880    0.391957393099

 O-1       

      6   S      16           130.7093214    0.154328967295
      6   S      17            23.8088661    0.535328142282
      6   S      18             6.4436083    0.444634542185

      7   L      19             5.0331513   -0.099967229187    0.155916274999
      7   L      20             1.1695961    0.399512826089    0.607683718598
      7   L      21             0.3803890    0.700115468880    0.391957393099

 TOTAL NUMBER OF BASIS SET SHELLS             =    7
 NUMBER OF CARTESIAN GAUSSIAN BASIS FUNCTIONS =   16

     $CONTRL OPTIONS
     ---------------
 SCFTYP=RHF          RUNTYP=GRADIENT     EXETYP=RUN     
 MPLEVL=       0     CITYP =NONE         CCTYP =NONE         VBTYP =NONE    
 DFTTYP=NONE         TDDFT =NONE    
 MULT  =       1     ICHARG=       0     NZVAR =       0     COORD =UNIQUE  
 PP    =NONE         RELWFN=NONE         LOCAL =NONE         NUMGRD=       F
 ISPHER=      -1     NOSYM =       0     MAXIT =      30     UNITS =ANGS    
 PLTORB=       F     MOLPLT=       F     AIMPAC=       F     FRIEND=        
 NPRINT=       7     IREST =       0     GEOM  =INPUT   
 NORMF =       0     NORMP =       0     ITOL  =      24     ICUT  =      12
 INTTYP=BEST         GRDTYP=BEST         QMTTOL= 1.0E-06

     $SYSTEM OPTIONS
     ---------------
  REPLICATED MEMORY=     1000000 WORDS (ON EVERY NODE).
 DISTRIBUTED MEMDDI=           0 MILLION WORDS IN AGGREGATE,
 MEMDDI DISTRIBUTED OVER   1 PROCESSORS IS           0 WORDS/PROCESSOR.
 TOTAL MEMORY REQUESTED ON EACH PROCESSOR=     1000000 WORDS.
 TIMLIM=           1.00 MINUTES, OR       0.0 DAYS.
 PARALL= F  BALTYP=  DLB     KDIAG=    0  COREFL= F
 MXSEQ2=     300 MXSEQ3=     150  mem10=         0

          ----------------
          PROPERTIES INPUT
          ----------------

     MOMENTS            FIELD           POTENTIAL          DENSITY
 IEMOM =       1   IEFLD =       0   IEPOT =       0   IEDEN =       0
 WHERE =COMASS     WHERE =NUCLEI     WHERE =NUCLEI     WHERE =NUCLEI  
 OUTPUT=BOTH       OUTPUT=BOTH       OUTPUT=NONE       OUTPUT=BOTH    
 IEMINT=       0   IEFINT=       0                     IEDINT=       0
                                                       MORB  =       0
          EXTRAPOLATION IN EFFECT
          SOSCF IN EFFECT
 ORBITAL PRINTING OPTION: NPREO=     1 32767     2     1

     -------------------------------
     INTEGRAL TRANSFORMATION OPTIONS
     -------------------------------
     NWORD  =            0
     CUTOFF = 1.0E-10     MPTRAN =       0
     DIRTRF =       F     AOINTS =DUP     

          ----------------------
          INTEGRAL INPUT OPTIONS
          ----------------------
 NOPK  =       1 NORDER=       0 SCHWRZ=       T

 ..... DONE SETTING UP THE RUN .....
 STEP CPU TIME =     0.02 TOTAL CPU TIME =        0.0 (    0.0 MIN)
 TOTAL WALL CLOCK TIME=        0.0 SECONDS, CPU UTILIZATION IS 100.00%
 STEP CPU TIME =     0.00 TOTAL CPU TIME =        0.0 (    0.0 MIN)
 TOTAL WALL CLOCK TIME=        0.0 SECONDS, CPU UTILIZATION IS 100.00%

                    ----------------------
                    AO INTEGRAL TECHNOLOGY
                    ----------------------
     S,P,L SHELL ROTATED AXIS INTEGRALS, REPROGRAMMED BY
        KAZUYA ISHIMURA (IMS) AND JOSE SIERRA (SYNSTAR).
     S,P,D,L SHELL ROTATED AXIS INTEGRALS PROGRAMMED BY
        KAZUYA ISHIMURA (INSTITUTE FOR MOLECULAR SCIENCE).
     S,P,D,F,G SHELL TO TOTAL QUARTET ANGULAR MOMENTUM SUM 5,
        ERIC PROGRAM BY GRAHAM FLETCHER (ELORET AND NASA ADVANCED
        SUPERCOMPUTING DIVISION, AMES RESEARCH CENTER).
     S,P,D,F,G,L SHELL GENERAL RYS QUADRATURE PROGRAMMED BY
        MICHEL DUPUIS (PACIFIC NORTHWEST NATIONAL LABORATORY).
 STEP CPU TIME =     0.02 TOTAL CPU TIME =        0.0 (    0.0 MIN)
 TOTAL WALL CLOCK TIME=        0.0 SECONDS, CPU UTILIZATION IS  80.00%
 STEP CPU TIME =     0.00 TOTAL CPU TIME =        0.0 (    0.0 MIN)
 TOTAL WALL CLOCK TIME=        0.0 SECONDS, CPU UTILIZATION IS  80.00%
 Initialising fragments
 STEP CPU TIME =     0.00 TOTAL CPU TIME =        0.0 (    0.0 MIN)
 TOTAL WALL CLOCK TIME=        0.0 SECONDS, CPU UTILIZATION IS  80.00%
 STEP CPU TIME =     0.00 TOTAL CPU TIME =        0.0 (    0.0 MIN)
 TOTAL WALL CLOCK TIME=        0.0 SECONDS, CPU UTILIZATION IS  80.00%
 OPENING FILE SOCCDAT WITH      13 LOGICAL RECORDS OF      28 WORDS
 WITH A MAXIMUM OF          13 PHYSICAL RECORDS OF    2048 WORDS

 -----------------------------------------------------------------------
                  The Fragment Molecular Orbital (FMO) method.
                       The program is developed at the
                     Nanoscience Research Institute (NRI)
     (formerly, Research Institute for Computational Sciences, RICS)
 National Institute of Advanced Industrial Science and Technology (AIST)
     AIST Tsukuba Central 2, Umezono 1-1-1, Tsukuba, 305-8568, Japan.

                              Version 5.2
                    coded by D. G. Fedorov and K. Kitaura,
 with contributions from N. Asada, K.R. Brorsen, M. Chiba, C. Choi, N. Minezawa,
 T. Nagata, H. Nakata, Y. Nishimoto, S.R. Pruitt, C. Steinmann, and F. Zahariev.
       All publications using the FMO method in GAMESS should reference:
          D. G. Fedorov, K. Kitaura, J. Chem. Phys. 120, 6832 (2004).
 -----------------------------------------------------------------------

 Used memory (words):         5553
 Number of fragments:      3
 Number of layers:         1
 N-body FMO method:        2
 Number of atoms:          9
 Total charge:             0
 Total spin multiplicity:  1
 Number of basis sets:     1
 Number of LMO types:      0
 Number of boundaries:     0
 MonomerSCF convergence:   0.1000E-06
 Max monomerSCF iter:     30
 MonomerSCF criterion:     internal
 Max AOs per n-mer:        7       14
 Layer electron correlation information
     nbody=  2
    SCFTYP=RHF     
    MPLEVL=  0
    DFTTYP=NONE    
     CITYP=NONE    
     CCTYP=NONE    
     TDDFT=NONE    
 FMO method: EFMO2-RHF

 FMO approximations.
    Using point charge approximation for the 2e ESP with the VdW factor   2.00
    Using ES-dimer approximation with the VdW factor   2.00
    No gradient contribution from separated dimers.
    The uniform distances will be used in ESPs.
    Van der Waals radii in Angstrom are:
       R(O  )=  1.4000
       R(H  )=  1.2000
    FMO gradient: retain ESP in the Lagrangian.

 FMO initial guess options.
    Using monomer density to form dimer guess.

 FMO extensions.
    Point charge screening parameters:    0.6000    0.6000

 FMO automation options.

 FMO SCF converger options.
    SCF convergers:
     65     65     65     65     65     65     65     65     65     65
    Fragment densities will be exchanged.

 FMO parallelisation options.
    Smart parallel load balancing: large jobs first.
    ESPs will be shell parallelised.
    Broadcast all fragments at once.
    Do the fragment initialisation in the reverse order.

 FMO properties and print-out level.
    Interfragment CT method:    4
    Voluminous print-out level.

 Array dimensions maxbnd,maxknd,maxcbs,maxcao,maxbbd are:
                       7     10      5      5      5

 --------------------------------------------------



 ----------------------------------------------------------------------
 THIS IS AN EFFECTIVE FRAGMENT MOLECULAR ORBITAL (EFMO) RUN.
   USING EFP MODELS FOR MANY-BODY INTERACTIONS.

   ALL PUBLICATIONS USING EFMO SHOULD REFERENCE:
     C. STEINMANN, D.G. FEDOROV, J.H. JENSEN, J. CHEM. PHYS. A 114, 8705 (2010)

     EFMO STORAGE REQUIRES     41992 WORDS.

     EFP Electrostatic Options
       No screening of electrostaic moments
       Tang-Toennis style screening   0.6000   0.6000
       Ignore torque contribution on gradient
       Multipole expansion on atoms only

     EFP Polarization Options
       Distribute gradient by percentage between close atoms
       Ignore torque contribution on gradient

     EFP Dispersion Options
       No Dispersion
       Distribute gradient by percentage between close atoms
       Ignore torque contribution on gradient

     EFP Charge Transfer Options
       No Charge Transfer

     EFP Exchange Repulsion Options
       No Exchange Repulsion

 ----------------------------------------------------------------------


 Starting layer 1 nbody=2
 SCFTYP=RHF     MPLEVL=0 DFTTYP=NONE    CITYP=NONE    CCTYP=NONE    TDDFT=NONE    



 Running initial guess for monomer       3


          ********************
          1 ELECTRON INTEGRALS
          ********************
 ...... END OF ONE-ELECTRON INTEGRALS ......
 STEP CPU TIME =     0.01 TOTAL CPU TIME =        0.0 (    0.0 MIN)
 TOTAL WALL CLOCK TIME=        0.1 SECONDS, CPU UTILIZATION IS  83.33%

          -------------
          GUESS OPTIONS
          -------------
          GUESS =HUCKEL            NORB  =       0          NORDER=       0
          MIX   =       F          PRTMO =       F          PUNMO =       F
          TOLZ  = 1.0E-08          TOLE  = 1.0E-05
          SYMDEN=       F          PURIFY=       F

 INITIAL GUESS ORBITALS GENERATED BY HUCKEL   ROUTINE.
 HUCKEL GUESS REQUIRES      2620 WORDS.

 SYMMETRIES FOR INITIAL GUESS ORBITALS FOLLOW.   BOTH SET(S).
     5 ORBITALS ARE OCCUPIED (    1 CORE ORBITALS).
     2=A        3=A        4=A        5=A        6=A        7=A   
 ...... END OF INITIAL ORBITAL SELECTION ......
 STEP CPU TIME =     0.00 TOTAL CPU TIME =        0.0 (    0.0 MIN)
 TOTAL WALL CLOCK TIME=        0.1 SECONDS, CPU UTILIZATION IS  83.33%

 Running initial guess for monomer       2


          ********************
          1 ELECTRON INTEGRALS
          ********************
 ...... END OF ONE-ELECTRON INTEGRALS ......
 STEP CPU TIME =     0.00 TOTAL CPU TIME =        0.0 (    0.0 MIN)
 TOTAL WALL CLOCK TIME=        0.1 SECONDS, CPU UTILIZATION IS  71.43%

          -------------
          GUESS OPTIONS
          -------------
          GUESS =HUCKEL            NORB  =       0          NORDER=       0
          MIX   =       F          PRTMO =       F          PUNMO =       F
          TOLZ  = 1.0E-08          TOLE  = 1.0E-05
          SYMDEN=       F          PURIFY=       F

 INITIAL GUESS ORBITALS GENERATED BY HUCKEL   ROUTINE.
 HUCKEL GUESS REQUIRES      2620 WORDS.

 SYMMETRIES FOR INITIAL GUESS ORBITALS FOLLOW.   BOTH SET(S).
     5 ORBITALS ARE OCCUPIED (    1 CORE ORBITALS).
     2=A        3=A        4=A        5=A        6=A        7=A   
 ...... END OF INITIAL ORBITAL SELECTION ......
 STEP CPU TIME =     0.00 TOTAL CPU TIME =        0.0 (    0.0 MIN)
 TOTAL WALL CLOCK TIME=        0.1 SECONDS, CPU UTILIZATION IS  71.43%

 Running initial guess for monomer       1


          ********************
          1 ELECTRON INTEGRALS
          ********************
 ...... END OF ONE-ELECTRON INTEGRALS ......
 STEP CPU TIME =     0.00 TOTAL CPU TIME =        0.0 (    0.0 MIN)
 TOTAL WALL CLOCK TIME=        0.1 SECONDS, CPU UTILIZATION IS  55.56%

          -------------
          GUESS OPTIONS
          -------------
          GUESS =HUCKEL            NORB  =       0          NORDER=       0
          MIX   =       F          PRTMO =       F          PUNMO =       F
          TOLZ  = 1.0E-08          TOLE  = 1.0E-05
          SYMDEN=       F          PURIFY=       F

 INITIAL GUESS ORBITALS GENERATED BY HUCKEL   ROUTINE.
 HUCKEL GUESS REQUIRES      2620 WORDS.

 SYMMETRIES FOR INITIAL GUESS ORBITALS FOLLOW.   BOTH SET(S).
     5 ORBITALS ARE OCCUPIED (    1 CORE ORBITALS).
     2=A        3=A        4=A        5=A        6=A        7=A   
 ...... END OF INITIAL ORBITAL SELECTION ......
 STEP CPU TIME =     0.00 TOTAL CPU TIME =        0.0 (    0.0 MIN)
 TOTAL WALL CLOCK TIME=        0.1 SECONDS, CPU UTILIZATION IS  55.56%

 There are           0 separated and       3 SCF (       0 of them correlated) dimers.
 Estimate of max dimer size:   14 AOs,   10 occ. MOs

 Fragment statistics

      I  NAME     Q NAT0 NATB NA  NAO LAY MUL SCFTYP        NOP     MOL    CONV
 ==============================================================================
      1 FRAG01    0    3   0    5    7 1  1 G RHF             0      -1      -1
      2 FRAG02    0    3   0    5    7 1  1 G RHF             0      -1      -1
      3 FRAG03    0    3   0    5    7 1  1 G RHF             0      -1      -1
 locfmo:
 nactfmo:                    0
 nmdfrg1:                    2                    2                    2
 nmdfrg2:                    0                    0                    0

 Close fragment pairs, distance relative to vdW radii


 RHF      monomer      2 corr= NONE       , L1=     7, L0=     7 ID=      1


 Resetting LABSIZ= 1 2


          ********************
          1 ELECTRON INTEGRALS
          ********************
 ...... END OF ONE-ELECTRON INTEGRALS ......
 STEP CPU TIME =     0.01 TOTAL CPU TIME =        0.1 (    0.0 MIN)
 TOTAL WALL CLOCK TIME=        0.1 SECONDS, CPU UTILIZATION IS  54.55%

          --------------------
          2 ELECTRON INTEGRALS
          --------------------

 THE -PK- OPTION IS OFF, THE INTEGRALS ARE NOT IN SUPERMATRIX FORM.
 STORING   15000 INTEGRALS/RECORD ON DISK, USING 12 BYTES/INTEGRAL.
 TWO ELECTRON INTEGRAL EVALUATION REQUIRES   89366 WORDS OF MEMORY.
 SCHWARZ INEQUALITY OVERHEAD:        28 INTEGRALS, T=        0.00
 II,JST,KST,LST =  1  1  1  1 NREC =         1 INTLOC =    1
 II,JST,KST,LST =  2  1  1  1 NREC =         1 INTLOC =    2
 II,JST,KST,LST =  3  1  1  1 NREC =         1 INTLOC =   34
 II,JST,KST,LST =  4  1  1  1 NREC =         1 INTLOC =  145
 SCHWARZ INEQUALITY TEST SKIPPED           0 INTEGRAL BLOCKS.
 TOTAL NUMBER OF NONZERO TWO-ELECTRON INTEGRALS =                 319
          1 INTEGRAL RECORDS WERE STORED ON DISK FILE  8.
  ...... END OF TWO-ELECTRON INTEGRALS .....
 STEP CPU TIME =     0.00 TOTAL CPU TIME =        0.1 (    0.0 MIN)
 TOTAL WALL CLOCK TIME=        0.1 SECONDS, CPU UTILIZATION IS  46.15%

          --------------------------
                 RHF SCF CALCULATION
          --------------------------

     NUCLEAR ENERGY =         9.1949679482
     MAXIT =   30     NPUNCH=    2
     EXTRAP=T  DAMP=F  SHIFT=F  RSTRCT=F  DIIS=F  DEM=F  SOSCF=T
     DENSITY MATRIX CONV=  1.00E-07
     SOSCF WILL OPTIMIZE      10 ORBITAL ROTATIONS, SOGTOL=   0.250
     MEMORY REQUIRED FOR RHF ITERS=     30481 WORDS.

 ITER EX DEM     TOTAL ENERGY        E CHANGE  DENSITY CHANGE     ORB. GRAD
   1  0  0      -74.7971475465   -74.7971475465   0.600278636   0.000000000
          ---------------START SECOND ORDER SCF---------------
   2  1  0      -74.9495177082    -0.1523701618   0.186409043   0.057423519
   3  2  0      -74.9615870332    -0.0120693250   0.087086069   0.017618507
   4  3  0      -74.9628915628    -0.0013045296   0.005376646   0.003122261
   5  4  0      -74.9629233280    -0.0000317652   0.003010343   0.001079196
   6  5  0      -74.9629282496    -0.0000049216   0.000010223   0.000008795
   7  6  0      -74.9629282497    -0.0000000001   0.000000571   0.000000330
   8  7  0      -74.9629282497    -0.0000000000   0.000000005   0.000000020
   9  8  0      -74.9629282497     0.0000000000   0.000000000   0.000000000

          -----------------
          DENSITY CONVERGED
          -----------------
     TIME TO FORM FOCK OPERATORS=       0.0 SECONDS (       0.0 SEC/ITER)
     TIME TO SOLVE SCF EQUATIONS=       0.0 SECONDS (       0.0 SEC/ITER)

 FINAL RHF ENERGY IS      -74.9629282497 AFTER   9 ITERATIONS

          ------------
          EIGENVECTORS
          ------------

                      1          2          3          4          5
                  -20.2417    -1.2684    -0.6179    -0.4530    -0.3912
                     A          A          A          A          A   
    1  O  1  S    0.994129  -0.232786   0.000000  -0.103176   0.000000
    2  O  1  S    0.026562   0.833491  -0.000000   0.536862   0.000000
    3  O  1  X   -0.000496  -0.014799   0.387211   0.088698   0.761107
    4  O  1  Y    0.001549   0.046193  -0.417708  -0.276854   0.631298
    5  O  1  Z   -0.004031  -0.120180  -0.208234   0.720289   0.148925
    6  H  2  S   -0.005972   0.158722  -0.445001  -0.277827   0.000000
    7  H  3  S   -0.005972   0.158722   0.445001  -0.277827   0.000000

                      6          7
                    0.6057     0.7424
                     A          A   
    1  O  1  S   -0.132391   0.000000
    2  O  1  S    0.884763  -0.000000
    3  O  1  X   -0.084766  -0.632496
    4  O  1  Y    0.264583   0.682310
    5  O  1  Z   -0.688362   0.340143
    6  H  2  S   -0.797163  -0.838699
    7  H  3  S   -0.797162   0.838700
 ...... END OF RHF CALCULATION ......
 STEP CPU TIME =     0.00 TOTAL CPU TIME =        0.1 (    0.0 MIN)
 TOTAL WALL CLOCK TIME=        0.2 SECONDS, CPU UTILIZATION IS  40.00%

     ----------------------------------------------------------------
     PROPERTY VALUES FOR THE RHF   SELF-CONSISTENT FIELD WAVEFUNCTION
     ----------------------------------------------------------------

          -----------------
          ENERGY COMPONENTS
          -----------------

         WAVEFUNCTION NORMALIZATION =       1.0000000000

                ONE ELECTRON ENERGY =    -122.3711482522
                TWO ELECTRON ENERGY =      38.2132520543
           NUCLEAR REPULSION ENERGY =       9.1949679482
                                      ------------------
                       TOTAL ENERGY =     -74.9629282497

 ELECTRON-ELECTRON POTENTIAL ENERGY =      38.2132520543
  NUCLEUS-ELECTRON POTENTIAL ENERGY =    -196.9600679493
   NUCLEUS-NUCLEUS POTENTIAL ENERGY =       9.1949679482
                                      ------------------
             TOTAL POTENTIAL ENERGY =    -149.5518479468
               TOTAL KINETIC ENERGY =      74.5889196970
                 VIRIAL RATIO (V/T) =       2.0050142642

          ---------------------------------------
          MULLIKEN AND LOWDIN POPULATION ANALYSES
          ---------------------------------------

     ATOMIC MULLIKEN POPULATION IN EACH MOLECULAR ORBITAL

                      1          2          3          4          5

                  2.000000   2.000000   2.000000   2.000000   2.000000

    1             2.001430   1.610772   1.071415   1.682740   2.000000
    2            -0.000715   0.194614   0.464293   0.158630   0.000000
    3            -0.000715   0.194614   0.464292   0.158630   0.000000

               ----- POPULATIONS IN EACH AO -----
                             MULLIKEN      LOWDIN
              1  O  1  S      1.99761     1.99601
              2  O  1  S      1.82937     1.67547
              3  O  1  X      1.61450     1.62669
              4  O  1  Y      1.49187     1.50752
              5  O  1  Z      1.43301     1.44769
              6  H  2  S      0.81682     0.87331
              7  H  3  S      0.81682     0.87331

          ----- MULLIKEN ATOMIC OVERLAP POPULATIONS -----
          (OFF-DIAGONAL ELEMENTS NEED TO BE MULTIPLIED BY 2)

             1           2           3

    1    7.8382146
    2    0.2640708   0.6008844
    3    0.2640708  -0.0481333   0.6008843

          TOTAL MULLIKEN AND LOWDIN ATOMIC POPULATIONS
       ATOM         MULL.POP.    CHARGE          LOW.POP.     CHARGE
    1 O             8.366356   -0.366356         8.253383   -0.253383
    2 H             0.816822    0.183178         0.873308    0.126692
    3 H             0.816822    0.183178         0.873308    0.126692

          -------------------------------
          BOND ORDER AND VALENCE ANALYSIS     BOND ORDER THRESHOLD=0.050
          -------------------------------

                   BOND                       BOND                       BOND
  ATOM PAIR DIST  ORDER      ATOM PAIR DIST  ORDER      ATOM PAIR DIST  ORDER
    1   2  0.957  0.954        1   3  0.957  0.954

                       TOTAL       BONDED        FREE
      ATOM            VALENCE     VALENCE     VALENCE
    1 O                 1.908       1.908       0.000
    2 H                 0.966       0.966       0.000
    3 H                 0.966       0.966       0.000

          ---------------------
          ELECTROSTATIC MOMENTS
          ---------------------

 POINT   1           X           Y           Z (BOHR)    CHARGE
                 1.699923    2.103735   -1.583280        0.00 (A.U.)
         DX          DY          DZ         /D/  (DEBYE)
    -0.197073    0.615129   -1.600376    1.725811
 ...... END OF PROPERTY EVALUATION ......
 STEP CPU TIME =     0.00 TOTAL CPU TIME =        0.1 (    0.0 MIN)
 TOTAL WALL CLOCK TIME=        0.2 SECONDS, CPU UTILIZATION IS  37.50%

 BEGINNING ONE ELECTRON GRADIENT...
 ..... END OF 1-ELECTRON GRADIENT ......
 STEP CPU TIME =     0.00 TOTAL CPU TIME =        0.1 (    0.0 MIN)
 TOTAL WALL CLOCK TIME=        0.2 SECONDS, CPU UTILIZATION IS  37.50%

          ----------------------
          GRADIENT OF THE ENERGY
          ----------------------
 THE COARSE/FINE SCHWARZ SCREENINGS SKIPPED            0/           0 BLOCKS.
 THE NUMBER OF GRADIENT INTEGRAL BLOCKS COMPUTED WAS        47
 ...... END OF 2-ELECTRON GRADIENT ......
 STEP CPU TIME =     0.00 TOTAL CPU TIME =        0.1 (    0.0 MIN)
 TOTAL WALL CLOCK TIME=        0.2 SECONDS, CPU UTILIZATION IS  37.50%

                         ----------------------
                         GRADIENT OF THE ENERGY
                         ----------------------

 UNITS ARE HARTREE/BOHR    E'X               E'Y               E'Z 
    1 O               -0.007132425       0.022262664      -0.057920743
    2 H                0.019033382      -0.027816659       0.020642421
    3 H               -0.011900957       0.005553996       0.037278322

                   MAXIMUM GRADIENT =    0.057920743
                       RMS GRADIENT =    0.027939635

..... END OF SINGLE POINT GRADIENT .....
 STEP CPU TIME =     0.00 TOTAL CPU TIME =        0.1 (    0.0 MIN)
 TOTAL WALL CLOCK TIME=        0.2 SECONDS, CPU UTILIZATION IS  37.50%

     --------------------------------------------------
     GENERATING EFMO PARAMETERS FOR FMO MONOMER #    2
     --------------------------------------------------

 PROCESSING $STONE INPUT...
 THE NUMBER OF "BOUNDARY" CORE MOS IS  0
 THE NUMBER OF MOS WITH ZERO OCCUPATION NUMBER IS  0
 TOTAL ELECTRON CHARGE =    -10.0000000000

          ---------------------------------------------
          DISTRIBUTED MULTIPOLAR ANALYSIS (A. J. STONE)
          ---------------------------------------------

 NET CHARGES AT POINTS                    COORDINATES
 ---------------------                    -----------
    #   NAME        CHARGE          X           Y           Z
    1   ZO          8.00000      4.80373     1.68897    -1.89274
    2   ZH          1.00000      3.76398     3.06884    -2.42826
    3   ZH          1.00000      5.59063     1.09834    -3.41059
    4   O          -8.41627      4.80373     1.68897    -1.89274
    5   H          -0.79186      3.76398     3.06884    -2.42826
    6   H          -0.79186      5.59063     1.09834    -3.41059

 THE DISTRIBUTED MULTIPOLE ANALYSIS IS FOR THE -ELECTRONIC- PART ONLY
 OF THE FOLLOWING MOMENTS.  ALL QUANTITIES ARE IN ATOMIC UNITS


 FIRST MOMENTS AT POINTS
 -----------------------
 NAME               X             Y             Z
 O             -0.01939       0.06053      -0.15749
 H             -0.01896       0.02608      -0.01367
 H              0.01345      -0.00888      -0.03109

 SECOND MOMENTS AT POINTS
 ------------------------
 NAME           XX         YY         ZZ         XY         XZ         YZ
 O          -3.49360   -3.45684   -3.41602   -0.11664   -0.03584    0.00044
 H          -0.45527   -0.44719   -0.46142   -0.01497    0.00446   -0.00665
 H          -0.45947   -0.46136   -0.44304   -0.00613   -0.01150    0.00825

 THIRD MOMENTS AT POINTS
 -----------------------
 NAME           XXX        YYY        ZZZ        XXY        XXZ        XYY
                YYZ        XZZ        YZZ        XYZ
 O           0.02798   -0.10782    0.10605   -0.05315    0.06461    0.08655
             0.06057   -0.08605    0.07210   -0.07496
 H          -0.00708    0.00019   -0.01734   -0.00637   -0.00093    0.01413
             0.00395   -0.00225    0.00378   -0.00755
 H           0.00653   -0.00287    0.00147    0.00241   -0.00254    0.00033
            -0.00665   -0.01436    0.01133   -0.00700
 STEP CPU TIME =     0.01 TOTAL CPU TIME =        0.1 (    0.0 MIN)
 TOTAL WALL CLOCK TIME=        0.2 SECONDS, CPU UTILIZATION IS  43.75%

          -----------------------------
          LOCALIZATION INPUT PARAMETERS
          -----------------------------
           LOCAL=BOYS          NOUTA=       1
          PRTLOC=       F      NOUTB=       0
          MAXLOC=    1000     CVGLOC=1.00E-07
           FCORE=       T     SYMLOC=       F
          MOIDON=       F     EDCOMP=       F
          DIPDCM=       F      NPROT=       0
          QADDCM=       F     DEPRNT=       F
          POLNUM=       F     ORIENT=       F
          POLDYN=       F      VMTOL=1.50E-01
          NPRDTL=       2
          MOOUTA =      1

          -------------------------
          BOYS ORBITAL LOCALIZATION
          -------------------------
          S.F.BOYS, IN "QUANTUM THEORY OF ATOMS, MOLECULES, AND SOLIDS"
          P.O.LOWDIN, ED. ACADEMIC PRESS, NY, 1966 PP253-266.

          THIS LOCALIZATION REQUIRES       261 WORDS OF MEMORY.
          THIS LOCALIZATION HAS    5 ORBITALS, OF WHICH   1 ARE FROZEN.

          THE INITIAL LOCALIZATION SUM IS    256.171619 DEBYE**2
          BOYS ITERATION  10 ORBITAL CHANGE=    3.1108750763E-08
          LOCALIZATION CONVERGED IN  15 ITERATIONS
            THE FINAL LOCALIZATION SUM IS    273.311571 DEBYE**2

          THE BOYS LOCALIZED ORBITALS ARE

                      1          2          3          4          5

    1  O  1  S    0.994129   0.092174  -0.092174  -0.154665  -0.154665
    2  O  1  S    0.026562  -0.261610   0.261610   0.650403   0.650403
    3  O  1  X   -0.000496  -0.229015  -0.318585  -0.493046   0.583322
    4  O  1  Y    0.001549   0.155575   0.435153  -0.587286   0.305505
    5  O  1  Z   -0.004031   0.510931  -0.216444   0.261247   0.471859
    6  H  2  S   -0.005972   0.109539   0.519787  -0.095469  -0.095469
    7  H  3  S   -0.005972  -0.519787  -0.109539  -0.095469  -0.095469
 ...... END OF ORBITAL LOCALIZATION ......
 STEP CPU TIME =     0.00 TOTAL CPU TIME =        0.1 (    0.0 MIN)
 TOTAL WALL CLOCK TIME=        0.2 SECONDS, CPU UTILIZATION IS  43.75%
 NORMALIZED MULL. POP. FOR EACH LMO
   1   1.001-0.000-0.000
   2   0.575-0.011 0.436
   3   0.575 0.436-0.011
   4   1.016-0.008-0.008
   5   1.016-0.008-0.008

 ATOMS ARE ASSIGNED TO THE LMOS BASED ON THEIR MULLIKEN POPULATION.
 (MULLIKEN POP. THRESHOLD(VMTOL)=0.150 WAS USED)
 ORBITAL   1 BELONGS TO ATOM(S)   1
 ORBITAL   2 BELONGS TO ATOM(S)   1  3
 ORBITAL   3 BELONGS TO ATOM(S)   1  2
 ORBITAL   4 BELONGS TO ATOM(S)   1
 ORBITAL   5 BELONGS TO ATOM(S)   1

  LCD DIPOLES 

 LMO    XP        YP        ZP        MUX       MUY       MUZ     TOTAL
   1  4.80368   1.68912  -1.89315   0.00026  -0.00080   0.00209   0.00225
   2  5.27244   1.34048  -2.81090  -0.38259   0.27030   0.80948   0.93525
   3  4.18117   2.51770  -2.22403   0.52204  -0.70558   0.32299   0.93525
   4  4.45916   1.27229  -1.69764   1.75166   2.11819  -0.99177   2.92210
   5  5.21456   1.89886  -1.54983  -2.08845  -1.06698  -1.74316   2.92210

     -------------------------------------------
      CALCULATING U USING TRUNCATED PERTURBATION 
     -------------------------------------------

          -----------------------------------
           LOCALIZED ALPHA POLARIZABILITIES 
                 IN ANGSTROMS**3            
          -----------------------------------

           CORE ALPHA POLARIZABILITY TENSOR 
                      UX             UY             UZ
           UX     0.000036932   -0.000041267   -0.000013814
           UY    -0.000041267    0.000048970    0.000003317
           UZ    -0.000013814    0.000003317    0.000056537

           MEAN ALPHA POLARIZABILITY =     0.000047479


  LMO ALPHA POLARIZABILITY TENSOR FOR BOND BETWEEN ATOM  1 AND ATOM  3
                      UX             UY             UZ
           UX     0.071393959   -0.058604884   -0.116443015
           UY    -0.058585878    0.050005050    0.087440101
           UZ    -0.116523583    0.087537235    0.224440526

           MEAN ALPHA POLARIZABILITY =     0.115279845


  LMO ALPHA POLARIZABILITY TENSOR FOR BOND BETWEEN ATOM  1 AND ATOM  2
                      UX             UY             UZ
           UX     0.113861291   -0.147768877    0.044489710
           UY    -0.147787883    0.192998771   -0.062833131
           UZ     0.044570278   -0.062930265    0.038979525

           MEAN ALPHA POLARIZABILITY =     0.115279862


  LMO ALPHA POLARIZABILITY TENSOR FOR CORE OR LONE PAIR ON ATOM  1
                      UX             UY             UZ
           UX     0.025460770   -0.026571415   -0.003541310
           UY    -0.026629024    0.028047128    0.006614269
           UZ    -0.003425750    0.006721392    0.036176377

           MEAN ALPHA POLARIZABILITY =     0.029894758


  LMO ALPHA POLARIZABILITY TENSOR FOR CORE OR LONE PAIR ON ATOM  1
                      UX             UY             UZ
           UX     0.022947952   -0.023749498   -0.013874516
           UY    -0.023691890    0.034552737   -0.000974055
           UZ    -0.013990076   -0.001081178    0.032183587

           MEAN ALPHA POLARIZABILITY =     0.029894759


               -----------------------------------
                TOTAL ALPHA POLARIZABILITY TENSOR 
               -----------------------------------
                      UX             UY             UZ
           UX     0.233700904   -0.256735942   -0.089382944
           UY    -0.256735942    0.305652655    0.030250502
           UZ    -0.089382944    0.030250502    0.331836550

           MEAN ALPHA POLARIZABILITY =     0.290396703


          -----------------------------------------------
           LOCALIZED ALPHA POLARIZABILITY TENSORS FOR 
           LONE PAIRS AND BONDS PROJECTED ONTO THE Z-AXIS 
          -----------------------------------------------


  LMO ALPHA POLARIZABILITY TENSOR FOR BOND BETWEEN ATOM  1 AND ATOM  3
                      UX             UY             UZ
           UX     0.001448913    0.005089802    0.003337164
           UY     0.005089802    0.017879671    0.011722928
           UZ     0.003372106    0.011845673    0.326510950

           MEAN ALPHA POLARIZABILITY =     0.115279845


  LMO ALPHA POLARIZABILITY TENSOR FOR BOND BETWEEN ATOM  1 AND ATOM  2
                      UX             UY             UZ
           UX     0.000469865   -0.002976753   -0.001900391
           UY    -0.002976753    0.018858715    0.012039609
           UZ    -0.001920290    0.012165670    0.326511007

           MEAN ALPHA POLARIZABILITY =     0.115279862


  LMO ALPHA POLARIZABILITY TENSOR FOR CORE OR LONE PAIR ON ATOM  1
                      UX             UY             UZ
           UX     0.052638379   -0.008648312   -0.003508388
           UY    -0.008648311    0.033972679   -0.008947791
           UZ    -0.003569632   -0.009103987    0.003073216

           MEAN ALPHA POLARIZABILITY =     0.029894758


  LMO ALPHA POLARIZABILITY TENSOR FOR CORE OR LONE PAIR ON ATOM  1
                      UX             UY             UZ
           UX     0.051371405    0.009840581    0.004111903
           UY     0.009840581    0.035239654   -0.008687002
           UZ     0.004183682   -0.008838646    0.003073216

           MEAN ALPHA POLARIZABILITY =     0.029894759

 ...... DONE WITH CPHF CONTRIBUTIONS ......
 STEP CPU TIME =     0.00 TOTAL CPU TIME =        0.1 (    0.0 MIN)
 TOTAL WALL CLOCK TIME=        0.2 SECONDS, CPU UTILIZATION IS  43.75%

          ---------------------
          ELECTROSTATIC MOMENTS
          ---------------------

 POINT   1           X           Y           Z (BOHR)    CHARGE
                 1.699923    2.103735   -1.583280        0.00 (A.U.)
         DX          DY          DZ         /D/  (DEBYE)
    -0.197073    0.615129   -1.600376    1.725811

 Iter=  1 iFrag=      2 EFMOu=   -74.962928250

 RHF      monomer      3 corr= NONE       , L1=     7, L0=     7 ID=      2


 Resetting LABSIZ= 1 2


          ********************
          1 ELECTRON INTEGRALS
          ********************
 ...... END OF ONE-ELECTRON INTEGRALS ......
 STEP CPU TIME =     0.01 TOTAL CPU TIME =        0.1 (    0.0 MIN)
 TOTAL WALL CLOCK TIME=        0.2 SECONDS, CPU UTILIZATION IS  42.11%

          --------------------
          2 ELECTRON INTEGRALS
          --------------------

 THE -PK- OPTION IS OFF, THE INTEGRALS ARE NOT IN SUPERMATRIX FORM.
 STORING   15000 INTEGRALS/RECORD ON DISK, USING 12 BYTES/INTEGRAL.
 TWO ELECTRON INTEGRAL EVALUATION REQUIRES   89366 WORDS OF MEMORY.
 SCHWARZ INEQUALITY OVERHEAD:        28 INTEGRALS, T=        0.00
 II,JST,KST,LST =  1  1  1  1 NREC =         1 INTLOC =    1
 II,JST,KST,LST =  2  1  1  1 NREC =         1 INTLOC =    2
 II,JST,KST,LST =  3  1  1  1 NREC =         1 INTLOC =   34
 II,JST,KST,LST =  4  1  1  1 NREC =         1 INTLOC =  145
 SCHWARZ INEQUALITY TEST SKIPPED           0 INTEGRAL BLOCKS.
 TOTAL NUMBER OF NONZERO TWO-ELECTRON INTEGRALS =                 319
          1 INTEGRAL RECORDS WERE STORED ON DISK FILE  8.
  ...... END OF TWO-ELECTRON INTEGRALS .....
 STEP CPU TIME =     0.00 TOTAL CPU TIME =        0.1 (    0.0 MIN)
 TOTAL WALL CLOCK TIME=        0.2 SECONDS, CPU UTILIZATION IS  40.00%

          --------------------------
                 RHF SCF CALCULATION
          --------------------------

     NUCLEAR ENERGY =         9.1949672069
     MAXIT =   30     NPUNCH=    2
     EXTRAP=T  DAMP=F  SHIFT=F  RSTRCT=F  DIIS=F  DEM=F  SOSCF=T
     DENSITY MATRIX CONV=  1.00E-07
     SOSCF WILL OPTIMIZE      10 ORBITAL ROTATIONS, SOGTOL=   0.250
     MEMORY REQUIRED FOR RHF ITERS=     30481 WORDS.

 ITER EX DEM     TOTAL ENERGY        E CHANGE  DENSITY CHANGE     ORB. GRAD
   1  0  0      -74.7971476050   -74.7971476050   0.600278470   0.000000000
          ---------------START SECOND ORDER SCF---------------
   2  1  0      -74.9495176720    -0.1523700670   0.186409001   0.057423479
   3  2  0      -74.9615870002    -0.0120693282   0.087086215   0.017618533
   4  3  0      -74.9628915339    -0.0013045337   0.005376653   0.003122268
   5  4  0      -74.9629232993    -0.0000317653   0.003010346   0.001079198
   6  5  0      -74.9629282209    -0.0000049216   0.000010223   0.000008795
   7  6  0      -74.9629282210    -0.0000000001   0.000000571   0.000000330
   8  7  0      -74.9629282210    -0.0000000000   0.000000005   0.000000020
   9  8  0      -74.9629282210     0.0000000000   0.000000000   0.000000000

          -----------------
          DENSITY CONVERGED
          -----------------
     TIME TO FORM FOCK OPERATORS=       0.0 SECONDS (       0.0 SEC/ITER)
     TIME TO SOLVE SCF EQUATIONS=       0.0 SECONDS (       0.0 SEC/ITER)

 FINAL RHF ENERGY IS      -74.9629282210 AFTER   9 ITERATIONS

          ------------
          EIGENVECTORS
          ------------

                      1          2          3          4          5
                  -20.2417    -1.2684    -0.6179    -0.4530    -0.3912
                     A          A          A          A          A   
    1  O  1  S    0.994129  -0.232786   0.000000  -0.103176   0.000000
    2  O  1  S    0.026562   0.833491  -0.000000   0.536861   0.000000
    3  O  1  X   -0.003299  -0.098371   0.074426   0.589576  -0.639379
    4  O  1  Y   -0.002672  -0.079667  -0.278103   0.477479   0.641736
    5  O  1  Z   -0.000932  -0.027793   0.533754   0.166573   0.423520
    6  H  2  S   -0.005972   0.158722   0.445001  -0.277827   0.000000
    7  H  3  S   -0.005972   0.158722  -0.445001  -0.277827   0.000000

                      6          7
                    0.6057     0.7424
                     A          A   
    1  O  1  S   -0.132392  -0.000000
    2  O  1  S    0.884763   0.000001
    3  O  1  X   -0.563442   0.121571
    4  O  1  Y   -0.456314  -0.454272
    5  O  1  Z   -0.159190   0.871867
    6  H  2  S   -0.797162  -0.838700
    7  H  3  S   -0.797163   0.838699
 ...... END OF RHF CALCULATION ......
 STEP CPU TIME =     0.00 TOTAL CPU TIME =        0.1 (    0.0 MIN)
 TOTAL WALL CLOCK TIME=        0.2 SECONDS, CPU UTILIZATION IS  36.36%

     ----------------------------------------------------------------
     PROPERTY VALUES FOR THE RHF   SELF-CONSISTENT FIELD WAVEFUNCTION
     ----------------------------------------------------------------

          -----------------
          ENERGY COMPONENTS
          -----------------

         WAVEFUNCTION NORMALIZATION =       1.0000000000

                ONE ELECTRON ENERGY =    -122.3711477806
                TWO ELECTRON ENERGY =      38.2132523527
           NUCLEAR REPULSION ENERGY =       9.1949672069
                                      ------------------
                       TOTAL ENERGY =     -74.9629282210

 ELECTRON-ELECTRON POTENTIAL ENERGY =      38.2132523527
  NUCLEUS-ELECTRON POTENTIAL ENERGY =    -196.9600673499
   NUCLEUS-NUCLEUS POTENTIAL ENERGY =       9.1949672069
                                      ------------------
             TOTAL POTENTIAL ENERGY =    -149.5518477903
               TOTAL KINETIC ENERGY =      74.5889195693
                 VIRIAL RATIO (V/T) =       2.0050142656

          ---------------------------------------
          MULLIKEN AND LOWDIN POPULATION ANALYSES
          ---------------------------------------

     ATOMIC MULLIKEN POPULATION IN EACH MOLECULAR ORBITAL

                      1          2          3          4          5

                  2.000000   2.000000   2.000000   2.000000   2.000000

    1             2.001430   1.610772   1.071415   1.682740   2.000000
    2            -0.000715   0.194614   0.464293   0.158630   0.000000
    3            -0.000715   0.194614   0.464293   0.158630   0.000000

               ----- POPULATIONS IN EACH AO -----
                             MULLIKEN      LOWDIN
              1  O  1  S      1.99761     1.99601
              2  O  1  S      1.82937     1.67547
              3  O  1  X      1.67949     1.68744
              4  O  1  Y      1.60368     1.61480
              5  O  1  Z      1.25621     1.27966
              6  H  2  S      0.81682     0.87331
              7  H  3  S      0.81682     0.87331

          ----- MULLIKEN ATOMIC OVERLAP POPULATIONS -----
          (OFF-DIAGONAL ELEMENTS NEED TO BE MULTIPLIED BY 2)

             1           2           3

    1    7.8382146
    2    0.2640709   0.6008841
    3    0.2640709  -0.0481332   0.6008842

          TOTAL MULLIKEN AND LOWDIN ATOMIC POPULATIONS
       ATOM         MULL.POP.    CHARGE          LOW.POP.     CHARGE
    1 O             8.366356   -0.366356         8.253383   -0.253383
    2 H             0.816822    0.183178         0.873308    0.126692
    3 H             0.816822    0.183178         0.873308    0.126692

          -------------------------------
          BOND ORDER AND VALENCE ANALYSIS     BOND ORDER THRESHOLD=0.050
          -------------------------------

                   BOND                       BOND                       BOND
  ATOM PAIR DIST  ORDER      ATOM PAIR DIST  ORDER      ATOM PAIR DIST  ORDER
    1   2  0.957  0.954        1   3  0.957  0.954

                       TOTAL       BONDED        FREE
      ATOM            VALENCE     VALENCE     VALENCE
    1 O                 1.908       1.908      -0.000
    2 H                 0.966       0.966      -0.000
    3 H                 0.966       0.966       0.000

          ---------------------
          ELECTROSTATIC MOMENTS
          ---------------------

 POINT   1           X           Y           Z (BOHR)    CHARGE
                 1.699923    2.103735   -1.583280        0.00 (A.U.)
         DX          DY          DZ         /D/  (DEBYE)
    -1.309949   -1.060886   -0.370100    1.725810
 ...... END OF PROPERTY EVALUATION ......
 STEP CPU TIME =     0.00 TOTAL CPU TIME =        0.1 (    0.0 MIN)
 TOTAL WALL CLOCK TIME=        0.2 SECONDS, CPU UTILIZATION IS  36.36%

 BEGINNING ONE ELECTRON GRADIENT...
 ..... END OF 1-ELECTRON GRADIENT ......
 STEP CPU TIME =     0.00 TOTAL CPU TIME =        0.1 (    0.0 MIN)
 TOTAL WALL CLOCK TIME=        0.2 SECONDS, CPU UTILIZATION IS  36.36%

          ----------------------
          GRADIENT OF THE ENERGY
          ----------------------
 THE COARSE/FINE SCHWARZ SCREENINGS SKIPPED            0/           0 BLOCKS.
 THE NUMBER OF GRADIENT INTEGRAL BLOCKS COMPUTED WAS        47
 ...... END OF 2-ELECTRON GRADIENT ......
 STEP CPU TIME =     0.00 TOTAL CPU TIME =        0.1 (    0.0 MIN)
 TOTAL WALL CLOCK TIME=        0.2 SECONDS, CPU UTILIZATION IS  34.78%

                         ----------------------
                         GRADIENT OF THE ENERGY
                         ----------------------

 UNITS ARE HARTREE/BOHR    E'X               E'Y               E'Z 
    1 O               -0.047409824      -0.038395790      -0.013394584
    2 H                0.020732058       0.030306653      -0.014623259
    3 H                0.026677765       0.008089137       0.028017843

                   MAXIMUM GRADIENT =    0.047409824
                       RMS GRADIENT =    0.027939679

..... END OF SINGLE POINT GRADIENT .....
 STEP CPU TIME =     0.00 TOTAL CPU TIME =        0.1 (    0.0 MIN)
 TOTAL WALL CLOCK TIME=        0.2 SECONDS, CPU UTILIZATION IS  34.78%

     --------------------------------------------------
     GENERATING EFMO PARAMETERS FOR FMO MONOMER #    3
     --------------------------------------------------

 PROCESSING $STONE INPUT...
 THE NUMBER OF "BOUNDARY" CORE MOS IS  0
 THE NUMBER OF MOS WITH ZERO OCCUPATION NUMBER IS  0
 TOTAL ELECTRON CHARGE =    -10.0000000000

          ---------------------------------------------
          DISTRIBUTED MULTIPOLAR ANALYSIS (A. J. STONE)
          ---------------------------------------------

 NET CHARGES AT POINTS                    COORDINATES
 ---------------------                    -----------
    #   NAME        CHARGE          X           Y           Z
    1   ZO          8.00000      0.30625     4.65424    -2.79147
    2   ZH          1.00000     -0.35857     3.31768    -1.76993
    3   ZH          1.00000     -0.70967     4.62962    -4.28788
    4   O          -8.41627      0.30625     4.65424    -2.79147
    5   H          -0.79186     -0.35857     3.31768    -1.76993
    6   H          -0.79186     -0.70967     4.62962    -4.28788

 THE DISTRIBUTED MULTIPOLE ANALYSIS IS FOR THE -ELECTRONIC- PART ONLY
 OF THE FOLLOWING MOMENTS.  ALL QUANTITIES ARE IN ATOMIC UNITS


 FIRST MOMENTS AT POINTS
 -----------------------
 NAME               X             Y             Z
 O             -0.12891      -0.10440      -0.03642
 H             -0.01520      -0.02647       0.01716
 H             -0.02143      -0.00320      -0.02751

 SECOND MOMENTS AT POINTS
 ------------------------
 NAME           XX         YY         ZZ         XY         XZ         YZ
 O          -3.49177   -3.47823   -3.39645    0.06847    0.05565   -0.07714
 H          -0.46119   -0.44867   -0.45403    0.00911   -0.00532   -0.01373
 H          -0.45581   -0.46494   -0.44313    0.00124    0.01473   -0.00096

 THIRD MOMENTS AT POINTS
 -----------------------
 NAME           XXX        YYY        ZZZ        XXY        XXZ        XYY
                YYZ        XZZ        YZZ        XYZ
 O           0.01232    0.08437    0.10903    0.00402    0.04725    0.03529
            -0.10281    0.14166    0.06489   -0.05077
 H          -0.01603   -0.00449    0.00245   -0.00299    0.00001    0.00619
            -0.01349   -0.00035    0.00459   -0.00901
 H          -0.01398   -0.00766    0.00717   -0.00159    0.00696   -0.00833
            -0.00821    0.01447   -0.00247    0.00095
 STEP CPU TIME =     0.01 TOTAL CPU TIME =        0.1 (    0.0 MIN)
 TOTAL WALL CLOCK TIME=        0.2 SECONDS, CPU UTILIZATION IS  39.13%

          -----------------------------
          LOCALIZATION INPUT PARAMETERS
          -----------------------------
           LOCAL=BOYS          NOUTA=       1
          PRTLOC=       F      NOUTB=       0
          MAXLOC=    1000     CVGLOC=1.00E-07
           FCORE=       T     SYMLOC=       F
          MOIDON=       F     EDCOMP=       F
          DIPDCM=       F      NPROT=       0
          QADDCM=       F     DEPRNT=       F
          POLNUM=       F     ORIENT=       F
          POLDYN=       F      VMTOL=1.50E-01
          NPRDTL=       2
          MOOUTA =      1

          -------------------------
          BOYS ORBITAL LOCALIZATION
          -------------------------
          S.F.BOYS, IN "QUANTUM THEORY OF ATOMS, MOLECULES, AND SOLIDS"
          P.O.LOWDIN, ED. ACADEMIC PRESS, NY, 1966 PP253-266.

          THIS LOCALIZATION REQUIRES       261 WORDS OF MEMORY.
          THIS LOCALIZATION HAS    5 ORBITALS, OF WHICH   1 ARE FROZEN.

          THE INITIAL LOCALIZATION SUM IS    255.965873 DEBYE**2
          BOYS ITERATION  10 ORBITAL CHANGE=    1.3363085314E-10
          LOCALIZATION CONVERGED IN  11 ITERATIONS
            THE FINAL LOCALIZATION SUM IS    273.105827 DEBYE**2

          THE BOYS LOCALIZED ORBITALS ARE

                      1          2          3          4          5

    1  O  1  S   -0.994129   0.092174   0.092174  -0.154665  -0.154665
    2  O  1  S   -0.026562  -0.261610  -0.261610   0.650403   0.650403
    3  O  1  X    0.003299   0.245061   0.350315   0.752143  -0.152076
    4  O  1  Y    0.002672   0.437737   0.044439  -0.210788   0.696764
    5  O  1  Z    0.000932  -0.293315   0.461527  -0.214705   0.384242
    6  H  2  S    0.005972  -0.519787   0.109539  -0.095469  -0.095469
    7  H  3  S    0.005972   0.109539  -0.519787  -0.095469  -0.095469
 ...... END OF ORBITAL LOCALIZATION ......
 STEP CPU TIME =     0.00 TOTAL CPU TIME =        0.1 (    0.0 MIN)
 TOTAL WALL CLOCK TIME=        0.2 SECONDS, CPU UTILIZATION IS  39.13%
 NORMALIZED MULL. POP. FOR EACH LMO
   1   1.001-0.000-0.000
   2   0.575 0.436-0.011
   3   0.575-0.011 0.436
   4   1.016-0.008-0.008
   5   1.016-0.008-0.008

 ATOMS ARE ASSIGNED TO THE LMOS BASED ON THEIR MULLIKEN POPULATION.
 (MULLIKEN POP. THRESHOLD(VMTOL)=0.150 WAS USED)
 ORBITAL   1 BELONGS TO ATOM(S)   1
 ORBITAL   2 BELONGS TO ATOM(S)   1  2
 ORBITAL   3 BELONGS TO ATOM(S)   1  3
 ORBITAL   4 BELONGS TO ATOM(S)   1
 ORBITAL   5 BELONGS TO ATOM(S)   1

  LCD DIPOLES 

 LMO    XP        YP        ZP        MUX       MUY       MUZ     TOTAL
   1  0.30591   4.65397  -2.79157   0.00171   0.00138   0.00048   0.00225
   2 -0.10023   3.84822  -2.18381   0.37654   0.70022  -0.49255   0.93525
   3 -0.30999   4.63200  -3.68808   0.55042   0.05050   0.75444   0.93525
   4  0.84372   4.51410  -2.93944  -2.73228   0.71242   0.75218   2.92210
   5  0.20914   5.15102  -2.51909   0.49366  -2.52541  -1.38466   2.92210

     -------------------------------------------
      CALCULATING U USING TRUNCATED PERTURBATION 
     -------------------------------------------

          -----------------------------------
           LOCALIZED ALPHA POLARIZABILITIES 
                 IN ANGSTROMS**3            
          -----------------------------------

           CORE ALPHA POLARIZABILITY TENSOR 
                      UX             UY             UZ
           UX     0.000032197    0.000019989    0.000018318
           UY     0.000019989    0.000038930   -0.000028812
           UZ     0.000018318   -0.000028812    0.000071311

           MEAN ALPHA POLARIZABILITY =     0.000047479


  LMO ALPHA POLARIZABILITY TENSOR FOR BOND BETWEEN ATOM  1 AND ATOM  2
                      UX             UY             UZ
           UX     0.046839929    0.084341234   -0.057084403
           UY     0.084287174    0.175362279   -0.138470301
           UZ    -0.057002489   -0.138388688    0.123637358

           MEAN ALPHA POLARIZABILITY =     0.115279855


  LMO ALPHA POLARIZABILITY TENSOR FOR BOND BETWEEN ATOM  1 AND ATOM  3
                      UX             UY             UZ
           UX     0.101096846    0.004887727    0.145217715
           UY     0.004941787    0.011169750   -0.009464399
           UZ     0.145135801   -0.009546012    0.233573074

           MEAN ALPHA POLARIZABILITY =     0.115279890


  LMO ALPHA POLARIZABILITY TENSOR FOR CORE OR LONE PAIR ON ATOM  1
                      UX             UY             UZ
           UX     0.012944908    0.011873082    0.012193879
           UY     0.011725418    0.030258283   -0.015062524
           UZ     0.012116940   -0.015083114    0.046480943

           MEAN ALPHA POLARIZABILITY =     0.029894711


  LMO ALPHA POLARIZABILITY TENSOR FOR CORE OR LONE PAIR ON ATOM  1
                      UX             UY             UZ
           UX     0.026976276    0.010365645    0.009451950
           UY     0.010513310    0.018852829   -0.020836133
           UZ     0.009528888   -0.020815542    0.043855029

           MEAN ALPHA POLARIZABILITY =     0.029894711


               -----------------------------------
                TOTAL ALPHA POLARIZABILITY TENSOR 
               -----------------------------------
                      UX             UY             UZ
           UX     0.187890156    0.111487678    0.109797458
           UY     0.111487678    0.235682070   -0.183862168
           UZ     0.109797458   -0.183862168    0.447617717

           MEAN ALPHA POLARIZABILITY =     0.290396648


          -----------------------------------------------
           LOCALIZED ALPHA POLARIZABILITY TENSORS FOR 
           LONE PAIRS AND BONDS PROJECTED ONTO THE Z-AXIS 
          -----------------------------------------------


  LMO ALPHA POLARIZABILITY TENSOR FOR BOND BETWEEN ATOM  1 AND ATOM  2
                      UX             UY             UZ
           UX     0.005090546   -0.008513500   -0.006255206
           UY    -0.008513500    0.014238093    0.010461292
           UZ    -0.006320712    0.010570846    0.326510927

           MEAN ALPHA POLARIZABILITY =     0.115279855


  LMO ALPHA POLARIZABILITY TENSOR FOR BOND BETWEEN ATOM  1 AND ATOM  3
                      UX             UY             UZ
           UX     0.010984455   -0.009573726    0.009188586
           UY    -0.009573726    0.008344177   -0.008008500
           UZ     0.009284812   -0.008092367    0.326511038

           MEAN ALPHA POLARIZABILITY =     0.115279890


  LMO ALPHA POLARIZABILITY TENSOR FOR CORE OR LONE PAIR ON ATOM  1
                      UX             UY             UZ
           UX     0.034917585   -0.009567629   -0.008753976
           UY    -0.009567629    0.051693350   -0.003967221
           UZ    -0.008906790   -0.004036475    0.003073199

           MEAN ALPHA POLARIZABILITY =     0.029894711


  LMO ALPHA POLARIZABILITY TENSOR FOR CORE OR LONE PAIR ON ATOM  1
                      UX             UY             UZ
           UX     0.030608454   -0.000825795    0.009605913
           UY    -0.000825795    0.056002481    0.000312044
           UZ     0.009773599    0.000317491    0.003073199

           MEAN ALPHA POLARIZABILITY =     0.029894711

 ...... DONE WITH CPHF CONTRIBUTIONS ......
 STEP CPU TIME =     0.00 TOTAL CPU TIME =        0.1 (    0.0 MIN)
 TOTAL WALL CLOCK TIME=        0.2 SECONDS, CPU UTILIZATION IS  39.13%

          ---------------------
          ELECTROSTATIC MOMENTS
          ---------------------

 POINT   1           X           Y           Z (BOHR)    CHARGE
                 1.699923    2.103735   -1.583280        0.00 (A.U.)
         DX          DY          DZ         /D/  (DEBYE)
    -1.309949   -1.060886   -0.370100    1.725810

 Iter=  1 iFrag=      3 EFMOu=   -74.962928221

 RHF      monomer      1 corr= NONE       , L1=     7, L0=     7 ID=      3


 Resetting LABSIZ= 1 2


          ********************
          1 ELECTRON INTEGRALS
          ********************
 ...... END OF ONE-ELECTRON INTEGRALS ......
 STEP CPU TIME =     0.00 TOTAL CPU TIME =        0.1 (    0.0 MIN)
 TOTAL WALL CLOCK TIME=        0.3 SECONDS, CPU UTILIZATION IS  34.62%

          --------------------
          2 ELECTRON INTEGRALS
          --------------------

 THE -PK- OPTION IS OFF, THE INTEGRALS ARE NOT IN SUPERMATRIX FORM.
 STORING   15000 INTEGRALS/RECORD ON DISK, USING 12 BYTES/INTEGRAL.
 TWO ELECTRON INTEGRAL EVALUATION REQUIRES   89366 WORDS OF MEMORY.
 SCHWARZ INEQUALITY OVERHEAD:        28 INTEGRALS, T=        0.00
 II,JST,KST,LST =  1  1  1  1 NREC =         1 INTLOC =    1
 II,JST,KST,LST =  2  1  1  1 NREC =         1 INTLOC =    2
 II,JST,KST,LST =  3  1  1  1 NREC =         1 INTLOC =   34
 II,JST,KST,LST =  4  1  1  1 NREC =         1 INTLOC =   84
 SCHWARZ INEQUALITY TEST SKIPPED           0 INTEGRAL BLOCKS.
 TOTAL NUMBER OF NONZERO TWO-ELECTRON INTEGRALS =                 206
          1 INTEGRAL RECORDS WERE STORED ON DISK FILE  8.
  ...... END OF TWO-ELECTRON INTEGRALS .....
 STEP CPU TIME =     0.00 TOTAL CPU TIME =        0.1 (    0.0 MIN)
 TOTAL WALL CLOCK TIME=        0.3 SECONDS, CPU UTILIZATION IS  34.62%

          --------------------------
                 RHF SCF CALCULATION
          --------------------------

     NUCLEAR ENERGY =         9.1949667526
     MAXIT =   30     NPUNCH=    2
     EXTRAP=T  DAMP=F  SHIFT=F  RSTRCT=F  DIIS=F  DEM=F  SOSCF=T
     DENSITY MATRIX CONV=  1.00E-07
     SOSCF WILL OPTIMIZE      10 ORBITAL ROTATIONS, SOGTOL=   0.250
     MEMORY REQUIRED FOR RHF ITERS=     30481 WORDS.

 ITER EX DEM     TOTAL ENERGY        E CHANGE  DENSITY CHANGE     ORB. GRAD
   1  0  0      -74.7971476390   -74.7971476390   0.600278435   0.000000000
          ---------------START SECOND ORDER SCF---------------
   2  1  0      -74.9495177004    -0.1523700614   0.186408992   0.057423487
   3  2  0      -74.9615870259    -0.0120693255   0.087086151   0.017618523
   4  3  0      -74.9628915581    -0.0013045322   0.005376651   0.003122265
   5  4  0      -74.9629233234    -0.0000317653   0.003010346   0.001079198
   6  5  0      -74.9629282450    -0.0000049216   0.000010223   0.000008795
   7  6  0      -74.9629282451    -0.0000000001   0.000000571   0.000000330
   8  7  0      -74.9629282451    -0.0000000000   0.000000005   0.000000020
   9  8  0      -74.9629282451     0.0000000000   0.000000000   0.000000000

          -----------------
          DENSITY CONVERGED
          -----------------
     TIME TO FORM FOCK OPERATORS=       0.0 SECONDS (       0.0 SEC/ITER)
     TIME TO SOLVE SCF EQUATIONS=       0.0 SECONDS (       0.0 SEC/ITER)

 FINAL RHF ENERGY IS      -74.9629282451 AFTER   9 ITERATIONS

          ------------
          EIGENVECTORS
          ------------

                      1          2          3          4          5
                  -20.2417    -1.2684    -0.6179    -0.4530    -0.3912
                     A          A          A          A          A   
    1  O  1  S    0.994129  -0.232786  -0.000000   0.103176   0.000000
    2  O  1  S    0.026562   0.833491   0.000000  -0.536861   0.000000
    3  O  1  X    0.003437   0.102487  -0.371192   0.614247   0.000000
    4  O  1  Y    0.000000  -0.000000   0.000000  -0.000000   1.000000
    5  O  1  Z    0.002660   0.079325   0.479573   0.475429   0.000000
    6  H  2  S   -0.005972   0.158722   0.445001   0.277827   0.000000
    7  H  3  S   -0.005972   0.158722  -0.445001   0.277827   0.000000

                      6          7
                    0.6057     0.7424
                     A          A   
    1  O  1  S   -0.132391   0.000000
    2  O  1  S    0.884763  -0.000001
    3  O  1  X    0.587019  -0.606328
    4  O  1  Y    0.000000   0.000000
    5  O  1  Z    0.454356   0.783365
    6  H  2  S   -0.797163  -0.838699
    7  H  3  S   -0.797162   0.838700
 ...... END OF RHF CALCULATION ......
 STEP CPU TIME =     0.00 TOTAL CPU TIME =        0.1 (    0.0 MIN)
 TOTAL WALL CLOCK TIME=        0.3 SECONDS, CPU UTILIZATION IS  31.03%

     ----------------------------------------------------------------
     PROPERTY VALUES FOR THE RHF   SELF-CONSISTENT FIELD WAVEFUNCTION
     ----------------------------------------------------------------

          -----------------
          ENERGY COMPONENTS
          -----------------

         WAVEFUNCTION NORMALIZATION =       1.0000000000

                ONE ELECTRON ENERGY =    -122.3711466374
                TWO ELECTRON ENERGY =      38.2132516397
           NUCLEAR REPULSION ENERGY =       9.1949667526
                                      ------------------
                       TOTAL ENERGY =     -74.9629282451

 ELECTRON-ELECTRON POTENTIAL ENERGY =      38.2132516397
  NUCLEUS-ELECTRON POTENTIAL ENERGY =    -196.9600660715
   NUCLEUS-NUCLEUS POTENTIAL ENERGY =       9.1949667526
                                      ------------------
             TOTAL POTENTIAL ENERGY =    -149.5518476792
               TOTAL KINETIC ENERGY =      74.5889194340
                 VIRIAL RATIO (V/T) =       2.0050142677

  ...... PI ENERGY ANALYSIS ......

 ENERGY ANALYSIS:
            FOCK ENERGY=    -45.9446433581
          BARE H ENERGY=   -122.3711466374
     ELECTRONIC ENERGY =    -84.1578949978
         KINETIC ENERGY=     74.5889194340
          N-N REPULSION=      9.1949667526
           TOTAL ENERGY=    -74.9629282452
        SIGMA PART(1+2)=    -76.3089875427
               (K,V1,2)=     69.5314569820   -176.9872781159     31.1468335912
           PI PART(1+2)=     -7.8489074551
               (K,V1,2)=      5.0574624520    -19.9727879556      7.0664180485
  SIGMA SKELETON, ERROR=    -67.1140207901      0.0000000000
             MIXED PART= 0.00000E+00 0.00000E+00 0.00000E+00 0.00000E+00
 ...... END OF PI ENERGY ANALYSIS ......

          ---------------------------------------
          MULLIKEN AND LOWDIN POPULATION ANALYSES
          ---------------------------------------

     ATOMIC MULLIKEN POPULATION IN EACH MOLECULAR ORBITAL

                      1          2          3          4          5

                  2.000000   2.000000   2.000000   2.000000   2.000000

    1             2.001430   1.610772   1.071415   1.682740   2.000000
    2            -0.000715   0.194614   0.464293   0.158630   0.000000
    3            -0.000715   0.194614   0.464293   0.158630   0.000000

               ----- POPULATIONS IN EACH AO -----
                             MULLIKEN      LOWDIN
              1  O  1  S      1.99761     1.99601
              2  O  1  S      1.82937     1.67547
              3  O  1  X      1.31940     1.33860
              4  O  1  Y      2.00000     2.00000
              5  O  1  Z      1.21998     1.24330
              6  H  2  S      0.81682     0.87331
              7  H  3  S      0.81682     0.87331

          ----- MULLIKEN ATOMIC OVERLAP POPULATIONS -----
          (OFF-DIAGONAL ELEMENTS NEED TO BE MULTIPLIED BY 2)

             1           2           3

    1    7.8382145
    2    0.2640708   0.6008843
    3    0.2640708  -0.0481332   0.6008842

          TOTAL MULLIKEN AND LOWDIN ATOMIC POPULATIONS
       ATOM         MULL.POP.    CHARGE          LOW.POP.     CHARGE
    1 O             8.366356   -0.366356         8.253383   -0.253383
    2 H             0.816822    0.183178         0.873308    0.126692
    3 H             0.816822    0.183178         0.873308    0.126692

          -------------------------------
          BOND ORDER AND VALENCE ANALYSIS     BOND ORDER THRESHOLD=0.050
          -------------------------------

                   BOND                       BOND                       BOND
  ATOM PAIR DIST  ORDER      ATOM PAIR DIST  ORDER      ATOM PAIR DIST  ORDER
    1   2  0.957  0.954        1   3  0.957  0.954

                       TOTAL       BONDED        FREE
      ATOM            VALENCE     VALENCE     VALENCE
    1 O                 1.908       1.908      -0.000
    2 H                 0.966       0.966       0.000
    3 H                 0.966       0.966       0.000

          ---------------------
          ELECTROSTATIC MOMENTS
          ---------------------

 POINT   1           X           Y           Z (BOHR)    CHARGE
                 1.699923    2.103735   -1.583280       -0.00 (A.U.)
         DX          DY          DZ         /D/  (DEBYE)
     1.364765    0.000000    1.056333    1.725811
 ...... END OF PROPERTY EVALUATION ......
 STEP CPU TIME =     0.00 TOTAL CPU TIME =        0.1 (    0.0 MIN)
 TOTAL WALL CLOCK TIME=        0.3 SECONDS, CPU UTILIZATION IS  30.00%

 BEGINNING ONE ELECTRON GRADIENT...
 ..... END OF 1-ELECTRON GRADIENT ......
 STEP CPU TIME =     0.00 TOTAL CPU TIME =        0.1 (    0.0 MIN)
 TOTAL WALL CLOCK TIME=        0.3 SECONDS, CPU UTILIZATION IS  30.00%

          ----------------------
          GRADIENT OF THE ENERGY
          ----------------------
 THE COARSE/FINE SCHWARZ SCREENINGS SKIPPED            0/           0 BLOCKS.
 THE NUMBER OF GRADIENT INTEGRAL BLOCKS COMPUTED WAS        47
 ...... END OF 2-ELECTRON GRADIENT ......
 STEP CPU TIME =     0.01 TOTAL CPU TIME =        0.1 (    0.0 MIN)
 TOTAL WALL CLOCK TIME=        0.3 SECONDS, CPU UTILIZATION IS  33.33%

                         ----------------------
                         GRADIENT OF THE ENERGY
                         ----------------------

 UNITS ARE HARTREE/BOHR    E'X               E'Y               E'Z 
    1 O                0.049393715       0.000000000       0.038230533
    2 H               -0.009869659       0.000000000      -0.038271566
    3 H               -0.039524056       0.000000000       0.000041033

                   MAXIMUM GRADIENT =    0.049393715
                       RMS GRADIENT =    0.027939594

..... END OF SINGLE POINT GRADIENT .....
 STEP CPU TIME =     0.00 TOTAL CPU TIME =        0.1 (    0.0 MIN)
 TOTAL WALL CLOCK TIME=        0.3 SECONDS, CPU UTILIZATION IS  33.33%

     --------------------------------------------------
     GENERATING EFMO PARAMETERS FOR FMO MONOMER #    1
     --------------------------------------------------

 PROCESSING $STONE INPUT...
 THE NUMBER OF "BOUNDARY" CORE MOS IS  0
 THE NUMBER OF MOS WITH ZERO OCCUPATION NUMBER IS  0
 TOTAL ELECTRON CHARGE =    -10.0000000000

          ---------------------------------------------
          DISTRIBUTED MULTIPOLAR ANALYSIS (A. J. STONE)
          ---------------------------------------------

 NET CHARGES AT POINTS                    COORDINATES
 ---------------------                    -----------
    #   NAME        CHARGE          X           Y           Z
    1   ZO          8.00000      0.00000     0.00000     0.00000
    2   ZH          1.00000      0.00000     0.00000     1.80885
    3   ZH          1.00000      1.75107     0.00000    -0.45351
    4   O          -8.41627      0.00000     0.00000     0.00000
    5   H          -0.79186      0.00000     0.00000     1.80885
    6   H          -0.79186      1.75107     0.00000    -0.45351

 THE DISTRIBUTED MULTIPOLE ANALYSIS IS FOR THE -ELECTRONIC- PART ONLY
 OF THE FOLLOWING MOMENTS.  ALL QUANTITIES ARE IN ATOMIC UNITS


 FIRST MOMENTS AT POINTS
 -----------------------
 NAME               X             Y             Z
 O              0.13431       0.00000       0.10395
 H              0.00355       0.00000       0.03484
 H              0.03462       0.00000      -0.00530

 SECOND MOMENTS AT POINTS
 ------------------------
 NAME           XX         YY         ZZ         XY         XZ         YZ
 O          -3.39359   -3.59736   -3.37551    0.00000   -0.03490    0.00000
 H          -0.46362   -0.46681   -0.43345    0.00000   -0.00068    0.00000
 H          -0.43567   -0.46681   -0.46139    0.00000   -0.00792    0.00000

 THIRD MOMENTS AT POINTS
 -----------------------
 NAME           XXX        YYY        ZZZ        XXY        XXZ        XYY
                YYZ        XZZ        YZZ        XYZ
 O          -0.21812    0.00000   -0.26416    0.00000    0.10226    0.01199
             0.00928    0.00894    0.00000    0.00000
 H           0.00986    0.00000   -0.02366    0.00000    0.01089    0.00289
             0.01243    0.00253    0.00000    0.00000
 H          -0.01754    0.00000    0.00211    0.00000    0.01310    0.01275
            -0.00031    0.00829    0.00000    0.00000
 STEP CPU TIME =     0.00 TOTAL CPU TIME =        0.1 (    0.0 MIN)
 TOTAL WALL CLOCK TIME=        0.3 SECONDS, CPU UTILIZATION IS  33.33%

          -----------------------------
          LOCALIZATION INPUT PARAMETERS
          -----------------------------
           LOCAL=BOYS          NOUTA=       1
          PRTLOC=       F      NOUTB=       0
          MAXLOC=    1000     CVGLOC=1.00E-07
           FCORE=       T     SYMLOC=       F
          MOIDON=       F     EDCOMP=       F
          DIPDCM=       F      NPROT=       0
          QADDCM=       F     DEPRNT=       F
          POLNUM=       F     ORIENT=       F
          POLDYN=       F      VMTOL=1.50E-01
          NPRDTL=       2
          MOOUTA =      1

          -------------------------
          BOYS ORBITAL LOCALIZATION
          -------------------------
          S.F.BOYS, IN "QUANTUM THEORY OF ATOMS, MOLECULES, AND SOLIDS"
          P.O.LOWDIN, ED. ACADEMIC PRESS, NY, 1966 PP253-266.

          THIS LOCALIZATION REQUIRES       261 WORDS OF MEMORY.
          THIS LOCALIZATION HAS    5 ORBITALS, OF WHICH   1 ARE FROZEN.

          THE INITIAL LOCALIZATION SUM IS    252.538945 DEBYE**2
          BOYS ITERATION  10 ORBITAL CHANGE=    1.6827214132E-05
          BOYS ITERATION  20 ORBITAL CHANGE=    3.8159164665E-09
          LOCALIZATION CONVERGED IN  21 ITERATIONS
            THE FINAL LOCALIZATION SUM IS    269.678900 DEBYE**2

          THE BOYS LOCALIZED ORBITALS ARE

                      1          2          3          4          5

    1  O  1  S    0.994129   0.092174  -0.092174  -0.154665  -0.154665
    2  O  1  S    0.026562  -0.261610   0.261610   0.650403   0.650403
    3  O  1  X    0.003437  -0.572617   0.047673  -0.312588  -0.312588
    4  O  1  Y    0.000000  -0.000000   0.000000  -0.707107   0.707107
    5  O  1  Z    0.002660   0.099056   0.579163  -0.241945  -0.241945
    6  H  2  S   -0.005972   0.109539   0.519787  -0.095469  -0.095469
    7  H  3  S   -0.005972  -0.519787  -0.109539  -0.095469  -0.095469
 ...... END OF ORBITAL LOCALIZATION ......
 STEP CPU TIME =     0.00 TOTAL CPU TIME =        0.1 (    0.0 MIN)
 TOTAL WALL CLOCK TIME=        0.3 SECONDS, CPU UTILIZATION IS  33.33%
 NORMALIZED MULL. POP. FOR EACH LMO
   1   1.001-0.000-0.000
   2   0.575-0.011 0.436
   3   0.575 0.436-0.011
   4   1.016-0.008-0.008
   5   1.016-0.008-0.008

 ATOMS ARE ASSIGNED TO THE LMOS BASED ON THEIR MULLIKEN POPULATION.
 (MULLIKEN POP. THRESHOLD(VMTOL)=0.150 WAS USED)
 ORBITAL   1 BELONGS TO ATOM(S)   1
 ORBITAL   2 BELONGS TO ATOM(S)   1  3
 ORBITAL   3 BELONGS TO ATOM(S)   1  2
 ORBITAL   4 BELONGS TO ATOM(S)   1
 ORBITAL   5 BELONGS TO ATOM(S)   1

  LCD DIPOLES 

 LMO    XP        YP        ZP        MUX       MUY       MUZ     TOTAL
   1  0.00035   0.00000   0.00027  -0.00178  -0.00000  -0.00138   0.00225
   2  1.05582   0.00000  -0.26343  -0.91647  -0.00000   0.18646   0.93525
   3  0.00969   0.00000   1.08814  -0.04927  -0.00000  -0.93395   0.93525
   4 -0.22940  -0.49625  -0.17755   1.16614   2.52271   0.90260   2.92210
   5 -0.22940   0.49625  -0.17755   1.16614  -2.52271   0.90260   2.92210

     -------------------------------------------
      CALCULATING U USING TRUNCATED PERTURBATION 
     -------------------------------------------

          -----------------------------------
           LOCALIZED ALPHA POLARIZABILITIES 
                 IN ANGSTROMS**3            
          -----------------------------------

           CORE ALPHA POLARIZABILITY TENSOR 
                      UX             UY             UZ
           UX     0.000066792    0.000000000   -0.000017094
           UY     0.000000000    0.000000000    0.000000000
           UZ    -0.000017094    0.000000000    0.000075646

           MEAN ALPHA POLARIZABILITY =     0.000047479


  LMO ALPHA POLARIZABILITY TENSOR FOR BOND BETWEEN ATOM  1 AND ATOM  3
                      UX             UY             UZ
           UX     0.301254015   -0.000000000   -0.085332188
           UY    -0.000000000    0.000000000    0.000000000
           UZ    -0.085204551    0.000000000    0.044585552

           MEAN ALPHA POLARIZABILITY =     0.115279856


  LMO ALPHA POLARIZABILITY TENSOR FOR BOND BETWEEN ATOM  1 AND ATOM  2
                      UX             UY             UZ
           UX     0.019328607    0.000000000   -0.012188730
           UY     0.000000000    0.000000000   -0.000000000
           UZ    -0.012316366   -0.000000000    0.326511176

           MEAN ALPHA POLARIZABILITY =     0.115279928


  LMO ALPHA POLARIZABILITY TENSOR FOR CORE OR LONE PAIR ON ATOM  1
                      UX             UY             UZ
           UX     0.041017164   -0.005782241   -0.011619461
           UY    -0.005649566    0.001631215   -0.004372789
           UZ    -0.011619462   -0.004475480    0.047035839

           MEAN ALPHA POLARIZABILITY =     0.029894739


  LMO ALPHA POLARIZABILITY TENSOR FOR CORE OR LONE PAIR ON ATOM  1
                      UX             UY             UZ
           UX     0.041017168    0.005782242   -0.011619462
           UY     0.005649566    0.001631215    0.004372789
           UZ    -0.011619463    0.004475480    0.047035842

           MEAN ALPHA POLARIZABILITY =     0.029894742


               -----------------------------------
                TOTAL ALPHA POLARIZABILITY TENSOR 
               -----------------------------------
                      UX             UY             UZ
           UX     0.402683746   -0.000000000   -0.120776935
           UY    -0.000000000    0.003262429   -0.000000000
           UZ    -0.120776935   -0.000000000    0.465244055

           MEAN ALPHA POLARIZABILITY =     0.290396744


          -----------------------------------------------
           LOCALIZED ALPHA POLARIZABILITY TENSORS FOR 
           LONE PAIRS AND BONDS PROJECTED ONTO THE Z-AXIS 
          -----------------------------------------------


  LMO ALPHA POLARIZABILITY TENSOR FOR BOND BETWEEN ATOM  1 AND ATOM  3
[...]
   9  8  0     -149.9328882780    -0.0000000000   0.000000317   0.000000074
  10  9  0     -149.9328882780    -0.0000000000   0.000000035   0.000000016
  11 10  0     -149.9328882780     0.0000000000   0.000000000   0.000000004

          -----------------
          DENSITY CONVERGED
          -----------------
     TIME TO FORM FOCK OPERATORS=       0.0 SECONDS (       0.0 SEC/ITER)
     TIME TO SOLVE SCF EQUATIONS=       0.0 SECONDS (       0.0 SEC/ITER)

 FINAL RHF ENERGY IS     -149.9328882780 AFTER  11 ITERATIONS

          ------------
          EIGENVECTORS
          ------------

                      1          2          3          4          5
                  -20.2641   -20.2076    -1.2899    -1.2439    -0.6393
                     A          A          A          A          A   
    1  O  1  S    0.994121  -0.001286  -0.231391   0.029931   0.000201
    2  O  1  S    0.026592   0.000257   0.829385  -0.109525  -0.002638
    3  O  1  X   -0.000564  -0.000309  -0.019126  -0.001985   0.395793
    4  O  1  Y    0.001471  -0.000241   0.042421  -0.007412  -0.388579
    5  O  1  Z   -0.003961   0.000231  -0.116826   0.017592  -0.218527
    6  H  2  S   -0.005911   0.000203   0.154507  -0.021818  -0.418722
    7  H  3  S   -0.005945   0.000122   0.154535  -0.023683   0.436020
    8  O  4  S    0.001177   0.994107  -0.026779  -0.231337  -0.006014
    9  O  4  S    0.000439   0.026676   0.093522   0.828306   0.027829
   10  O  4  X    0.000311   0.003453   0.015147   0.100736  -0.086016
   11  O  4  Y    0.000022  -0.000003   0.001122   0.000475  -0.012358
   12  O  4  Z   -0.000116   0.002653   0.006920   0.076344   0.091062
   13  H  5  S    0.000060  -0.005982   0.016159   0.159762   0.089863
   14  H  6  S   -0.000858  -0.006094   0.029012   0.155214  -0.105309

                      6          7          8          9         10
                   -0.5974    -0.4781    -0.4367    -0.4009    -0.3672
                     A          A          A          A          A   
    1  O  1  S    0.002735  -0.096189   0.030262   0.010041   0.001414
    2  O  1  S   -0.018399   0.501231  -0.155297  -0.053085  -0.007429
    3  O  1  X   -0.012351   0.053727  -0.388227   0.650436   0.054184
    4  O  1  Y    0.203274  -0.294930  -0.246682   0.553710   0.024988
    5  O  1  Z   -0.019027   0.684146  -0.262382   0.071492   0.010000
    6  H  2  S    0.139106  -0.266744   0.054152   0.015251  -0.000905
    7  H  3  S   -0.068430  -0.259338   0.079690   0.029904   0.008805
    8  O  4  S   -0.000643   0.031698   0.087305   0.042883   0.001565
    9  O  4  S    0.002694  -0.166849  -0.454046  -0.221786  -0.007660
   10  O  4  X   -0.362829   0.075025   0.476310   0.407574   0.020239
   11  O  4  Y    0.002447  -0.002358   0.011606  -0.060254   0.997969
   12  O  4  Z    0.452358   0.187107   0.417932   0.171630   0.005718
   13  H  5  S    0.427075   0.131894   0.256953   0.080676   0.002060
   14  H  6  S   -0.428795   0.050997   0.212826   0.142146   0.004120

                     11         12         13         14
                    0.5780     0.6543     0.7239     0.7875
                     A          A          A          A   
    1  O  1  S   -0.127324  -0.039072   0.001641  -0.005563
    2  O  1  S    0.841170   0.279587  -0.013170   0.060774
    3  O  1  X   -0.099118   0.019099   0.622774   0.121277
    4  O  1  Y    0.202825   0.157454  -0.688736   0.049170
    5  O  1  Z   -0.615699  -0.277733  -0.319820  -0.170535
    6  H  2  S   -0.709447  -0.330100   0.857330  -0.073695
    7  H  3  S   -0.748044  -0.278726  -0.821136  -0.186497
    8  O  4  S   -0.051246   0.121336   0.001785   0.020344
    9  O  4  S    0.336385  -0.813358  -0.009253  -0.138726
   10  O  4  X    0.276265  -0.409693   0.046818  -0.668913
   11  O  4  Y    0.010196   0.005637  -0.008331   0.002508
   12  O  4  Z    0.112558  -0.566751  -0.066733   0.697511
   13  H  5  S   -0.244410   0.880894   0.076940  -0.701145
   14  H  6  S   -0.340747   0.593542  -0.072938   0.958184
 ...... END OF RHF CALCULATION ......
 STEP CPU TIME =     0.01 TOTAL CPU TIME =        0.2 (    0.0 MIN)
 TOTAL WALL CLOCK TIME=        0.7 SECONDS, CPU UTILIZATION IS  25.35%

     ----------------------------------------------------------------
     PROPERTY VALUES FOR THE RHF   SELF-CONSISTENT FIELD WAVEFUNCTION
     ----------------------------------------------------------------

          -----------------
          ENERGY COMPONENTS
          -----------------

         WAVEFUNCTION NORMALIZATION =       1.0000000000

                ONE ELECTRON ENERGY =    -281.9467586229
                TWO ELECTRON ENERGY =      95.0482711100
           NUCLEAR REPULSION ENERGY =      36.9655992349
                                      ------------------
                       TOTAL ENERGY =    -149.9328882780

 ELECTRON-ELECTRON POTENTIAL ENERGY =      95.0482711100
  NUCLEUS-ELECTRON POTENTIAL ENERGY =    -431.1660074452
   NUCLEUS-NUCLEUS POTENTIAL ENERGY =      36.9655992349
                                      ------------------
             TOTAL POTENTIAL ENERGY =    -299.1521371003
               TOTAL KINETIC ENERGY =     149.2192488223
                 VIRIAL RATIO (V/T) =       2.0047824893

          ---------------------------------------
          MULLIKEN AND LOWDIN POPULATION ANALYSES
          ---------------------------------------

     ATOMIC MULLIKEN POPULATION IN EACH MOLECULAR ORBITAL

                      1          2          3          4          5

                  2.000000   2.000000   2.000000   2.000000   2.000000

    1             2.001426   0.000003   1.590917   0.025768   1.031870
    2            -0.000708   0.000000   0.188192   0.002566   0.418980
    3            -0.000712  -0.000000   0.187270   0.003646   0.449074
    4             0.000003   2.001442   0.022091   1.588013   0.049133
    5             0.000000  -0.000716   0.002348   0.194657   0.019437
    6            -0.000010  -0.000729   0.009181   0.185350   0.031506

                      6          7          8          9         10

                  2.000000   2.000000   2.000000   2.000000   2.000000

    1             0.112286   1.542470   0.606984   1.452809   0.007152
    2             0.038979   0.147499   0.006899   0.000658  -0.000000
    3             0.011136   0.140404   0.012973   0.001887   0.000150
    4             0.980320   0.126922   1.138943   0.494178   1.992662
    5             0.426216   0.037439   0.136216   0.012639   0.000007
    6             0.431063   0.005267   0.097984   0.037829   0.000030

               ----- POPULATIONS IN EACH AO -----
                             MULLIKEN      LOWDIN
              1  O  1  S      1.99759     1.99594
              2  O  1  S      1.82683     1.67094
              3  O  1  X      1.61456     1.62533
              4  O  1  Y      1.49025     1.50552
              5  O  1  Z      1.44246     1.45621
              6  H  2  S      0.80307     0.86133
              7  H  3  S      0.80583     0.86409
              8  O  4  S      1.99758     1.99596
              9  O  4  S      1.82620     1.67263
             10  O  4  X      1.35776     1.37549
             11  O  4  Y      1.99980     1.99980
             12  O  4  Z      1.21237     1.23679
             13  H  5  S      0.82824     0.88246
             14  H  6  S      0.79747     0.85750

          ----- MULLIKEN ATOMIC OVERLAP POPULATIONS -----
          (OFF-DIAGONAL ELEMENTS NEED TO BE MULTIPLIED BY 2)

             1           2           3           4           5

    1    7.8342728
    2    0.2658234   0.5867605
    3    0.2657983  -0.0471824   0.5877043
    4   -0.0016318   0.0000751   0.0001150   7.8673271
    5    0.0001514   0.0000111  -0.0000074   0.2631662   0.6124459
    6    0.0072711  -0.0024219  -0.0005988   0.2646550  -0.0475241

             6

    6    0.5760887

          TOTAL MULLIKEN AND LOWDIN ATOMIC POPULATIONS
       ATOM         MULL.POP.    CHARGE          LOW.POP.     CHARGE
    1 O             8.371685   -0.371685         8.253942   -0.253942
    2 H             0.803066    0.196934         0.861330    0.138670
    3 H             0.805829    0.194171         0.864087    0.135913
    4 O             8.393707   -0.393707         8.280683   -0.280683
    5 H             0.828243    0.171757         0.882456    0.117544
    6 H             0.797470    0.202530         0.857502    0.142498

          -------------------------------
          BOND ORDER AND VALENCE ANALYSIS     BOND ORDER THRESHOLD=0.050
          -------------------------------

                   BOND                       BOND                       BOND
  ATOM PAIR DIST  ORDER      ATOM PAIR DIST  ORDER      ATOM PAIR DIST  ORDER
    1   2  0.957  0.949        1   3  0.957  0.949        4   5  0.957  0.958
    4   6  0.957  0.924

                       TOTAL       BONDED        FREE
      ATOM            VALENCE     VALENCE     VALENCE
    1 O                 1.936       1.936       0.000
    2 H                 0.961       0.961      -0.000
    3 H                 0.962       0.962      -0.000
    4 O                 1.898       1.898      -0.000
    5 H                 0.970       0.970       0.000
    6 H                 0.959       0.959       0.000

          ---------------------
          ELECTROSTATIC MOMENTS
          ---------------------

 POINT   1           X           Y           Z (BOHR)    CHARGE
                 1.699923    2.103735   -1.583280        0.00 (A.U.)
         DX          DY          DZ         /D/  (DEBYE)
     1.451192    0.710789   -0.752721    1.782629
 ...... END OF PROPERTY EVALUATION ......
 STEP CPU TIME =     0.00 TOTAL CPU TIME =        0.2 (    0.0 MIN)
 TOTAL WALL CLOCK TIME=        0.7 SECONDS, CPU UTILIZATION IS  25.35%

 BEGINNING ONE ELECTRON GRADIENT...
 ..... END OF 1-ELECTRON GRADIENT ......
 STEP CPU TIME =     0.00 TOTAL CPU TIME =        0.2 (    0.0 MIN)
 TOTAL WALL CLOCK TIME=        0.7 SECONDS, CPU UTILIZATION IS  25.00%

          ----------------------
          GRADIENT OF THE ENERGY
          ----------------------
 THE COARSE/FINE SCHWARZ SCREENINGS SKIPPED           41/           8 BLOCKS.
 THE NUMBER OF GRADIENT INTEGRAL BLOCKS COMPUTED WAS       601
 ...... END OF 2-ELECTRON GRADIENT ......
 STEP CPU TIME =     0.01 TOTAL CPU TIME =        0.2 (    0.0 MIN)
 TOTAL WALL CLOCK TIME=        0.7 SECONDS, CPU UTILIZATION IS  26.39%

                         ----------------------
                         GRADIENT OF THE ENERGY
                         ----------------------

 UNITS ARE HARTREE/BOHR    E'X               E'Y               E'Z 
    1 O               -0.002223117       0.022642119      -0.056627152
    2 H                0.016931926      -0.028279626       0.019915506
    3 H               -0.011704310       0.006523999       0.035515723
    4 O                0.046397406       0.001064956       0.036460442
    5 H               -0.009159729       0.000015649      -0.037090781
    6 H               -0.040242176      -0.001967096       0.001826263

                   MAXIMUM GRADIENT =    0.056627152
                       RMS GRADIENT =    0.027098276

..... END OF SINGLE POINT GRADIENT .....
 STEP CPU TIME =     0.00 TOTAL CPU TIME =        0.2 (    0.0 MIN)
 TOTAL WALL CLOCK TIME=        0.7 SECONDS, CPU UTILIZATION IS  26.39%

  iFrag=      2 jFrag=      1 EFMOu=  -149.932888278 Tr= 0.000190098
 STEP CPU TIME =     0.00 TOTAL CPU TIME =        0.2 (    0.0 MIN)
 TOTAL WALL CLOCK TIME=        0.7 SECONDS, CPU UTILIZATION IS  26.39%

 Dimer synchronisation for layer 1 took     0.0 s.
 STEP CPU TIME =     0.00 TOTAL CPU TIME =        0.2 (    0.0 MIN)
 TOTAL WALL CLOCK TIME=        0.7 SECONDS, CPU UTILIZATION IS  26.39%
 STEP CPU TIME =     0.00 TOTAL CPU TIME =        0.2 (    0.0 MIN)
 TOTAL WALL CLOCK TIME=        0.7 SECONDS, CPU UTILIZATION IS  26.39%


         FMO properties
         ###############


 Layer 1 converged in  1 iterations (max 30, conv .10E-06).


 Nuclear repulsion energy:             83.203451965
 Total number of atoms:                     9
 Total number of electrons:                30
 Total charge:                              0
 Total spin multiplicity:                   1
 Total number of basis functions:          21
 Total number of molecular orbitals:       21

 Energy values (E) are given with external ESP subtracted.

 D(dipole), Q(quadrupole) and O(octopole) moments are printed in the order:
 X,Y,Z; XX,YY,ZZ,XY,XZ,YZ; XXX,XXY,XXZ,XYY,YYY,YYZ,XZZ,YZZ,ZZZ,XYZ,
 computed at the point:    1.69992265   2.10373450  -1.58327994

 One-body FMO properties.
 =======================

                            E"          DX        DY        DZ
    1(FRAG01  ,L1)    -74.962928245   1.36476   0.00000   1.05633
    2(FRAG02  ,L1)    -74.962928250  -0.19707   0.61513  -1.60038
    3(FRAG03  ,L1)    -74.962928221  -1.30995  -1.06089  -0.37010

 Frontier molecular orbital (FMO!) properties based on Koopmans' theorem.
 Electronegativity = - chemical potential. All values are in eV.

  Frag  Ionization    Electron    Chemical    Global       Global  Electrophili-
         potential    affinity    potential  hardness     softness  city index
 EA and related properties are often very inaccurate.
 -------------------------------------------------------------------------------
     1   10.646310   16.481229  -13.563770   -5.834919   -0.171382    -15.765071
     2   10.646311   16.481235  -13.563773   -5.834924   -0.171382    -15.765068
     3   10.646309   16.481228  -13.563769   -5.834920   -0.171382    -15.765069

 Total energy of the molecule: Euncorr(1)=     -224.888784716
 Dipole moment D(xyz),DA(1)=   -0.1422580   -0.4457575   -0.9141432    1.0269346

 Energy gradient (hartree/bohr), no BSSE: G(1)

   ATOM#  FRG#   Z            E'X              E'Y              E'Z 
      1     1   8.0       0.049393715       0.000000000       0.038230533
      2     1   1.0      -0.009869659       0.000000000      -0.038271566
      3     1   1.0      -0.039524056       0.000000000       0.000041033
      4     2   8.0      -0.007132425       0.022262664      -0.057920743
      5     2   1.0       0.019033382      -0.027816659       0.020642421
      6     2   1.0      -0.011900957       0.005553996       0.037278322
      7     3   8.0      -0.047409824      -0.038395790      -0.013394584
      8     3   1.0       0.020732058       0.030306653      -0.014623259
      9     3   1.0       0.026677765       0.008089137       0.028017843

      (1) MAXIMUM GRADIENT =  0.0579207    RMS GRADIENT = 0.0279396

 Two-body FMO properties.
 ========================

 DL: D=C dynamically correlated (MP2,CI), D=N not dynamically correlated
 (RHF,DFT). D=S separated dimer: semiclassical interaction (ES), D=M MCSCF.
 L stands for layer, Z is the monomer charge product, R is the interfragment
 distance relative to van-der-Waals radii (-1.00 is printed if distances are
 not computed). dDIJ*VIJ is the explicit embedded charge transfer energy.
 Q(I->J) is the charge transfer amount, printed as zero if not available.
 Positive values correspond to I in IJ having extra negative charge.

    I    J DL  Z    R   Q(I->J)        E"        E"IJ-E"I-E"J   dDIJ*VIJ      Gsol     tot
 ------------------------------------------------------------------------------------------
    2    1 N1  0   0.77  0.0000   -149.932888278  -0.00703178  0.00019010    0.000   -4.413
    3    1 N1  0   0.77  0.0000   -149.932857048  -0.00700058  0.00018020    0.000   -4.393
    3    2 N1  0   0.78  0.0000   -149.931842487  -0.00598602  0.00017816    0.000   -3.756

 Total energy of the molecule: Euncorr(2)=     -224.909200469

 Total energy of the molecule: Etotpol(2)=       -0.000945833
 Dipole moment D(xyz),DA(2)=   -0.1137589   -0.4554084   -0.8938082    1.0095697

 Energy gradient (hartree/bohr), no BSSE: G(2)

   ATOM#  FRG#   Z            E'X              E'Y              E'Z 
      1     1   8.0       0.043749698      -0.003981660       0.037299267
      2     1   1.0      -0.007879844      -0.000215623      -0.035980278
      3     1   1.0      -0.039403494       0.000254267       0.001717005
      4     2   8.0      -0.001511580       0.021060651      -0.053389074
      5     2   1.0       0.019370864      -0.028715106       0.018297664
      6     2   1.0      -0.012175443       0.006742641       0.034503921
      7     3   8.0      -0.046179177      -0.031624213      -0.013256187
      8     3   1.0       0.019631127       0.029977545      -0.016429430
      9     3   1.0       0.024397849       0.006501497       0.027237113

      (2) MAXIMUM GRADIENT =  0.0533891    RMS GRADIENT = 0.0263103

                ONE ELECTRON ENERGY =         -478.4913518719
                TWO ELECTRON ENERGY =          170.3786994371
           NUCLEAR REPULSION ENERGY =           83.2034519654
                                      -----------------------
                       TOTAL ENERGY =         -224.9092004693

 ELECTRON-ELECTRON POTENTIAL ENERGY =          170.3786994371
  NUCLEUS-ELECTRON POTENTIAL ENERGY =         -702.3779353169
   NUCLEUS-NUCLEUS POTENTIAL ENERGY =           83.2034519654
                                      -----------------------
             TOTAL POTENTIAL ENERGY =         -448.7957839143
               TOTAL KINETIC ENERGY =          223.8865834450
                 VIRIAL RATIO (V/T) =            2.0045675672

 Done with FMO properties.
 STEP CPU TIME =     0.00 TOTAL CPU TIME =        0.2 (    0.0 MIN)
 TOTAL WALL CLOCK TIME=        0.7 SECONDS, CPU UTILIZATION IS  26.39%
 STEP CPU TIME =     0.00 TOTAL CPU TIME =        0.2 (    0.0 MIN)
 TOTAL WALL CLOCK TIME=        0.7 SECONDS, CPU UTILIZATION IS  25.68%

 Total timing statistics in pairs (CPU,wall) for each rank, sec

    Rank   total     SCF    corr     DFT    CPHF     EFP    solv     ESP    geom
 -------------------------------------------------------------------------------
       1       0.2      0.0      0.0      0.0    0.0   0.0    0.0     0.0    0.0
       1       0.7      0.4      0.0      0.0    0.0   0.0    0.0     0.0    0.0
averaged       0.2      0.0      0.0      0.0    0.0   0.0    0.0     0.0    0.0
averaged       0.7      0.4      0.0      0.0    0.0   0.0    0.0     0.0    0.0

  FMO  timing statistics in pairs (CPU,wall) for each rank, sec

    Rank  FMOini FMOscf1  FMOdm1 FMOsyn1 FMOscf2  FMOes2 FMOsyn2 FMOscf3 FMOsyn3
 -------------------------------------------------------------------------------
       1    0.0       0.1    0.0    0.0       0.1       0.0    0.0    0.0    0.0
       1    0.1       0.2    0.0    0.0       0.4       0.0    0.0    0.0    0.0
averaged    0.0       0.1    0.0    0.0       0.1       0.0    0.0    0.0    0.0
averaged    0.1       0.2    0.0    0.0       0.4       0.0    0.0    0.0    0.0
               580000  WORDS OF DYNAMIC MEMORY USED
 EXECUTION OF GAMESS TERMINATED NORMALLY Mon Nov 28 18:37:19 2016
 DDI: 263640 bytes (0.3 MB / 0 MWords) used by master data server.

 ----------------------------------------
 CPU timing information for all processes
 ========================================
 0: 0.123 + 0.73 = 0.197
 ----------------------------------------
 ddikick.x: exited gracefully.
unset echo
----- accounting info -----
Files used on the master node compute-3-0 were:
-rw-rw-r-- 1 sarom sarom  17740 Nov 29  2016 .//exam01.dat
-rw-rw-r-- 1 sarom sarom    915 Nov 29  2016 .//exam01.F05
-rw-rw-r-- 1 sarom sarom 180016 Nov 29  2016 .//exam01.F08
-rw-rw-r-- 1 sarom sarom  65440 Nov 29  2016 .//exam01.F10
-rw-rw-r-- 1 sarom sarom    208 Nov 29  2016 .//exam01.F102
-rw-rw-r-- 1 sarom sarom 313224 Nov 29  2016 .//exam01.F103
-rw-rw-r-- 1 sarom sarom 114688 Nov 29  2016 .//exam01.F40
-rw-rw-r-- 1 sarom sarom    915 Nov 28 17:27 .//exam01.inp
-rw-rw-r-- 1 sarom sarom 141555 Nov 29  2016 .//exam01.log
Mon Nov 28 18:37:22 CST 2016
0.226u 0.088s 0:04.10 7.3%	0+0k 0+136io 0pf+0w
