----- GAMESS execution script 'rungms' -----
This job is running on host compute-3-0
under operating system Linux at Mon Nov 28 23:11:01 CST 2016
Available scratch disk space (Kbyte units) at beginning of the job is
Filesystem            1K-blocks       Used  Available Use% Mounted on
bolt.local:/export/home/sarom
                     9590469632 1553219584 7550082048  18% /home/sarom
Copying input file p4.inp to your run's scratch directory...
cp p4.inp .//p4.F05
unset echo
/home/sarom/gamessGH/ddikick.x /home/sarom/gamessGH/gamess.00.x p4 -ddi 1 1 localhost -scr ./

 Distributed Data Interface kickoff program.
 Initiating 1 compute processes on 1 nodes to run the following command:
 /home/sarom/gamessGH/gamess.00.x p4 

          ******************************************************
          *         GAMESS VERSION = 18 AUG 2016 (R1)          *
          *             FROM IOWA STATE UNIVERSITY             *
          * M.W.SCHMIDT, K.K.BALDRIDGE, J.A.BOATZ, S.T.ELBERT, *
          *   M.S.GORDON, J.H.JENSEN, S.KOSEKI, N.MATSUNAGA,   *
          *          K.A.NGUYEN, S.J.SU, T.L.WINDUS,           *
          *       TOGETHER WITH M.DUPUIS, J.A.MONTGOMERY       *
          *         J.COMPUT.CHEM.  14, 1347-1363(1993)        *
          **************** 64 BIT LINUX VERSION ****************

  SINCE 1993, STUDENTS AND POSTDOCS WORKING AT IOWA STATE UNIVERSITY
  AND ALSO IN THEIR VARIOUS JOBS AFTER LEAVING ISU HAVE MADE IMPORTANT
  CONTRIBUTIONS TO THE CODE:
     IVANA ADAMOVIC, CHRISTINE AIKENS, YURI ALEXEEV, POOJA ARORA,
     ANDREY ASADCHEV, ROB BELL, PRADIPTA BANDYOPADHYAY, JONATHAN BENTZ,
     BRETT BODE, KURT BRORSEN, CALEB CARLIN, GALINA CHABAN, WEI CHEN,
     CHEOL HO CHOI, PAUL DAY, ALBERT DEFUSCO, NUWAN DESILVA, TIM DUDLEY,
     DMITRI FEDOROV, GRAHAM FLETCHER, MARK FREITAG, KURT GLAESEMANN,
     DAN KEMP, GRANT MERRILL, NORIYUKI MINEZAWA, JONATHAN MULLIN,
     TAKESHI NAGATA, SEAN NEDD, HEATHER NETZLOFF, BOSILJKA NJEGIC, RYAN OLSON,
     MIKE PAK, SPENCER PRUITT, LUKE ROSKOP, JIM SHOEMAKER, LYUDMILA SLIPCHENKO,
     TONY SMITH, SAROM SOK LEANG, JIE SONG, TETSUYA TAKETSUGU, SIMON WEBB,
     PENG XU, SOOHAENG YOO, FEDERICO ZAHARIEV

  ADDITIONAL CODE HAS BEEN PROVIDED BY COLLABORATORS IN OTHER GROUPS:
     IOWA STATE UNIVERSITY:
          JOE IVANIC, AARON WEST, LAIMUTIS BYTAUTAS, KLAUS RUEDENBERG
     UNIVERSITY OF TOKYO: KIMIHIKO HIRAO, TAKAHITO NAKAJIMA,
          TAKAO TSUNEDA, MUNEAKI KAMIYA, SUSUMU YANAGISAWA,
          KIYOSHI YAGI, MAHITO CHIBA, SEIKEN TOKURA, NAOAKI KAWAKAMI
     UNIVERSITY OF AARHUS: FRANK JENSEN
     UNIVERSITY OF IOWA: VISVALDAS KAIRYS, HUI LI
     NATIONAL INST. OF STANDARDS AND TECHNOLOGY: WALT STEVENS, DAVID GARMER
     UNIVERSITY OF PISA: BENEDETTA MENNUCCI, JACOPO TOMASI
     UNIVERSITY OF MEMPHIS: HENRY KURTZ, PRAKASHAN KORAMBATH
     UNIVERSITY OF ALBERTA: TOBY ZENG, MARIUSZ KLOBUKOWSKI
     UNIVERSITY OF NEW ENGLAND: MARK SPACKMAN
     MIE UNIVERSITY: HIROAKI UMEDA
     NAT. INST. OF ADVANCED INDUSTRIAL SCIENCE AND TECHNOLOGY: KAZUO KITAURA
     MICHIGAN STATE UNIVERSITY:
          KAROL KOWALSKI, MARTA WLOCH, JEFFREY GOUR, JESSE LUTZ,
          WEI LI, PIOTR PIECUCH
     UNIVERSITY OF SILESIA: MONIKA MUSIAL, STANISLAW KUCHARSKI
     FACULTES UNIVERSITAIRES NOTRE-DAME DE LA PAIX:
          OLIVIER QUINET, BENOIT CHAMPAGNE
     UNIVERSITY OF CALIFORNIA - SANTA BARBARA: BERNARD KIRTMAN
     INSTITUTE FOR MOLECULAR SCIENCE:
          KAZUYA ISHIMURA, MICHIO KATOUDA, AND SHIGERU NAGASE
     UNIVERSITY OF NOTRE DAME: ANNA POMOGAEVA, DAN CHIPMAN
     KYUSHU UNIVERSITY:
          HARUYUKI NAKANO,
          FENG LONG GU, JACEK KORCHOWIEC, MARCIN MAKOWSKI, AND YURIKO AOKI,
          HIROTOSHI MORI AND EISAKU MIYOSHI
     PENNSYLVANIA STATE UNIVERSITY:
          TZVETELIN IORDANOV, CHET SWALINA, JONATHAN SKONE,
          SHARON HAMMES-SCHIFFER
     WASEDA UNIVERSITY:
          MASATO KOBAYASHI, TOMOKO AKAMA, TSUGUKI TOUMA,
          TAKESHI YOSHIKAWA, YASUHIRO IKABATA, JUNJI SEINO,
          YUYA NAKAJIMA, HIROMI NAKAI
     NANJING UNIVERSITY: SHUHUA LI
     UNIVERSITY OF NEBRASKA:
          PEIFENG SU, DEJUN SI, NANDUN THELLAMUREGE, YALI WANG, HUI LI
     UNIVERSITY OF ZURICH: ROBERTO PEVERATI, KIM BALDRIDGE
     N. COPERNICUS UNIVERSITY AND JACKSON STATE UNIVERSITY:
          MARIA BARYSZ
     UNIVERSITY OF COPENHAGEN: Jimmy Kromann, CASPER STEINMANN
     TOKYO INSTITUTE OF TECHNOLOGY: HIROYA NAKATA
     NAGOYA UNIVERSITY: YOSHIO NISHIMOTO, STEPHAN IRLE
     MOSCOW STATE UNIVERSITY: VLADIMIR MIRONOV

 EXECUTION OF GAMESS BEGUN Mon Nov 28 23:11:01 2016

            ECHO OF THE FIRST FEW INPUT CARDS -
 INPUT CARD>!  This idea comes from a study of P2, P4, and P8 by                            
 INPUT CARD>!  M.W.Schmidt & M.S.Gordon, Inorg.Chem., 1985, 24, 4503-4506.                  
 INPUT CARD>!                                                                               
 INPUT CARD>!  FINAL E= -1363.0558913779, 10 iters,                                         
 INPUT CARD>!  VVOs appear at energies 31-33= +0.138 (t1) and 34-36= +0.213 (t2)            
 INPUT CARD>!   loc: DIAGONAL SUM D=        4.7416520799 to start,                          
 INPUT CARD>!        DIAGONAL SUM D=        7.0453262263 to end.                            
 INPUT CARD>!                                                                               
 INPUT CARD>!  This run takes 296 seconds on 2.66 GHz Cloverton (M7 mar 2015)               
 INPUT CARD>!                                                                               
 INPUT CARD>!  Canonical VVOs look a little odd to chemists, but localization               
 INPUT CARD>!  gives six equivalent PP antibonds, nicely curved outside                     
 INPUT CARD>!  the PP bonds, just like the localized bent PP sigma orbs.                    
 INPUT CARD>!                                                                               
 INPUT CARD>!  structure needs f orbitals:                                                  
 INPUT CARD>!     RHF/ACCT gets R=2.174,                                                    
 INPUT CARD>!     MP2/ACCT gets R=2.201,                                                    
 INPUT CARD>!       experiment is 2.2258 (J.Raman Spetrosc. 11, 346(1981))                  
 INPUT CARD>!                                                                               
 INPUT CARD> $contrl scftyp=rhf mplevl=0 runtyp=energy ispher=1                             
 INPUT CARD>         local=ruednbrg pltorb=.true. $end                                      
 INPUT CARD> $system mwords=100 memddi=0 $end                                               
 INPUT CARD>x$system mwords=10 memddi=500 $end                                              
 INPUT CARD> $basis  gbasis=acct $end                                                       
 INPUT CARD> $guess  guess=huckel $end                                                      
 INPUT CARD> $scf    dirscf=.true. vvos=.true. $end                                         
 INPUT CARD> $data                                                                          
 INPUT CARD>tetrahedral P4...MP2/ACCT geometry                                              
 INPUT CARD>Td                                                                              
 INPUT CARD>                                                                                
 INPUT CARD>P  15.0  0.7784633440 0.7784633440 0.7784633440                                 
 INPUT CARD> $end                                                                           
 INPUT CARD>                                                                                
 INPUT CARD>!    RHF/ACCT geom:   RHF E= -1363.0569745108                                   
 INPUT CARD>P  15.0  0.7685847608 0.7685847608 0.7685847608                                 
 INPUT CARD>                                                                                
 INPUT CARD>!    MP2/ACCT geom:   RHF E= -1363.0558913770   MP2 E= -1363.6548837219         
 INPUT CARD>P  15.0  0.7784633440 0.7784633440 0.7784633440                                 
  100000000 WORDS OF MEMORY AVAILABLE

     BASIS OPTIONS
     -------------
     GBASIS=ACCT         IGAUSS=       0      POLAR=NONE    
     NDFUNC=       0     NFFUNC=       0     DIFFSP=       F
     NPFUNC=       0      DIFFS=       F     BASNAM=        


     RUN TITLE
     ---------
 tetrahedral P4...MP2/ACCT geometry                                              

 THE POINT GROUP OF THE MOLECULE IS TD      
 THE ORDER OF THE PRINCIPAL AXIS IS     0

 ATOM      ATOMIC                      COORDINATES (BOHR)
           CHARGE         X                   Y                   Z
 P          15.0     1.4710824116       -1.4710824116       -1.4710824116
 P          15.0    -1.4710824116        1.4710824116       -1.4710824116
 P          15.0    -1.4710824116       -1.4710824116        1.4710824116
 P          15.0     1.4710824116        1.4710824116        1.4710824116

          INTERNUCLEAR DISTANCES (ANGS.)
          ------------------------------

                1 P          2 P          3 P          4 P     

   1 P       0.0000000    2.2018268 *  2.2018268 *  2.2018268 *
   2 P       2.2018268 *  0.0000000    2.2018268 *  2.2018268 *
   3 P       2.2018268 *  2.2018268 *  0.0000000    2.2018268 *
   4 P       2.2018268 *  2.2018268 *  2.2018268 *  0.0000000  

  * ... LESS THAN  3.000


     ATOMIC BASIS SET
     ----------------
 THE CONTRACTED PRIMITIVE FUNCTIONS HAVE BEEN UNNORMALIZED
 THE CONTRACTED BASIS FUNCTIONS ARE NOW NORMALIZED TO UNITY

  SHELL TYPE  PRIMITIVE        EXPONENT          CONTRACTION COEFFICIENT(S)

 P         

     52   S       1        312400.0000000    0.000057689641
     52   S       2         46800.0000000    0.000448246591
     52   S       3         10650.0000000    0.002349131061
     52   S       4          3018.0000000    0.009781571802
     52   S       5           986.8000000    0.034142936511
     52   S       6           357.4000000    0.100192955985
     52   S       7           139.6000000    0.234346168617
     52   S       8            57.6300000    0.382391849918
     52   S       9            24.6000000    0.318052941833
     52   S      10            10.1200000    0.070770999093
     52   S      11             4.2830000   -0.001817789630
     52   S      12             1.8050000    0.002161561737
     52   S      13             0.2782000    0.000432249354

     53   S      14        312400.0000000   -0.000016380204
     53   S      15         46800.0000000   -0.000127233535
     53   S      16         10650.0000000   -0.000668625166
     53   S      17          3018.0000000   -0.002795303744
     53   S      18           986.8000000   -0.009928227435
     53   S      19           357.4000000   -0.030244566456
     53   S      20           139.6000000   -0.077884705328
     53   S      21            57.6300000   -0.156724571545
     53   S      22            24.6000000   -0.198042753651
     53   S      23            10.1200000    0.037971251521
     53   S      24             4.2830000    0.552751544147
     53   S      25             1.8050000    0.542611452452
     53   S      26             0.2782000   -0.009675942874

     54   S      27        312400.0000000    0.000006865735
     54   S      28         46800.0000000    0.000053281983
     54   S      29         10650.0000000    0.000280421002
     54   S      30          3018.0000000    0.001170789768
     54   S      31           986.8000000    0.004173591138
     54   S      32           357.4000000    0.012720496749
     54   S      33           139.6000000    0.033152766352
     54   S      34            57.6300000    0.067671246836
     54   S      35            24.6000000    0.089831018862
     54   S      36            10.1200000   -0.020305232360
     54   S      37             4.2830000   -0.313280408979
     54   S      38             1.8050000   -0.563687905527
     54   S      39             0.2782000    1.117494073734

     55   S      40             0.6158000    1.000000000000

     56   S      41             0.1055000    1.000000000000

     57   P      42           504.9000000    0.002433660431
     57   P      43           119.4000000    0.019305559477
     57   P      44            37.9600000    0.088473106893
     57   P      45            13.9500000    0.254701981099
     57   P      46             5.4570000    0.440199242653
     57   P      47             2.1770000    0.383632006272
     57   P      48             0.2877000   -0.003946337074

     58   P      49           504.9000000   -0.000954298933
     58   P      50           119.4000000   -0.007664025747
     58   P      51            37.9600000   -0.035465925259
     58   P      52            13.9500000   -0.106164716437
     58   P      53             5.4570000   -0.187210586037
     58   P      54             2.1770000   -0.181495819791
     58   P      55             0.2877000    0.991672644618

     59   P      56             0.8010000    1.000000000000

     60   P      57             0.0971400    1.000000000000

     61   D      58             0.6480000    1.000000000000

     62   D      59             0.2180000    1.000000000000

     63   F      60             0.4520000    1.000000000000

     64   D      61             3.1200000    1.000000000000

     65   S      62             0.0409000    1.000000000000

     66   P      63             0.0307000    1.000000000000

     67   D      64             0.0775000    1.000000000000

     68   F      65             0.1650000    1.000000000000

 TOTAL NUMBER OF BASIS SET SHELLS             =   68
 NUMBER OF CARTESIAN GAUSSIAN BASIS FUNCTIONS =  260
 NOTE: THIS RUN WILL RESTRICT THE MO VARIATION SPACE TO SPHERICAL HARMONICS.
 THE NUMBER OF ORBITALS KEPT IN THE VARIATIONAL SPACE WILL BE PRINTED LATER.
 NUMBER OF ELECTRONS                          =   60
 CHARGE OF MOLECULE                           =    0
 SPIN MULTIPLICITY                            =    1
 NUMBER OF OCCUPIED ORBITALS (ALPHA)          =   30
 NUMBER OF OCCUPIED ORBITALS (BETA )          =   30
 TOTAL NUMBER OF ATOMS                        =    4
 THE NUCLEAR REPULSION ENERGY IS      324.4529834103

     $CONTRL OPTIONS
     ---------------
 SCFTYP=RHF          RUNTYP=ENERGY       EXETYP=RUN     
 MPLEVL=       0     CITYP =NONE         CCTYP =NONE         VBTYP =NONE    
 DFTTYP=NONE         TDDFT =NONE    
 MULT  =       1     ICHARG=       0     NZVAR =       0     COORD =UNIQUE  
 PP    =NONE         RELWFN=NONE         LOCAL =RUEDNBRG     NUMGRD=       F
 ISPHER=       1     NOSYM =       0     MAXIT =      30     UNITS =ANGS    
 PLTORB=       T     MOLPLT=       F     AIMPAC=       F     FRIEND=        
 NPRINT=       7     IREST =       0     GEOM  =INPUT   
 NORMF =       0     NORMP =       0     ITOL  =      20     ICUT  =       9
 INTTYP=BEST         GRDTYP=BEST         QMTTOL= 1.0E-06

     $SYSTEM OPTIONS
     ---------------
  REPLICATED MEMORY=   100000000 WORDS (ON EVERY NODE).
 DISTRIBUTED MEMDDI=           0 MILLION WORDS IN AGGREGATE,
 MEMDDI DISTRIBUTED OVER   1 PROCESSORS IS           0 WORDS/PROCESSOR.
 TOTAL MEMORY REQUESTED ON EACH PROCESSOR=   100000000 WORDS.
 TIMLIM=      525600.00 MINUTES, OR     365.0 DAYS.
 PARALL= F  BALTYP=  DLB     KDIAG=    0  COREFL= F
 MXSEQ2=     300 MXSEQ3=     150  mem10=         0

          ----------------
          PROPERTIES INPUT
          ----------------

     MOMENTS            FIELD           POTENTIAL          DENSITY
 IEMOM =       1   IEFLD =       0   IEPOT =       0   IEDEN =       0
 WHERE =COMASS     WHERE =NUCLEI     WHERE =NUCLEI     WHERE =NUCLEI  
 OUTPUT=BOTH       OUTPUT=BOTH       OUTPUT=BOTH       OUTPUT=BOTH    
 IEMINT=       0   IEFINT=       0                     IEDINT=       0
                                                       MORB  =       0
          EXTRAPOLATION IN EFFECT
          DIIS IN EFFECT
 ORBITAL PRINTING OPTION: NPREO=     1   260     2     1

     -------------------------------
     INTEGRAL TRANSFORMATION OPTIONS
     -------------------------------
     NWORD  =            0
     CUTOFF = 1.0E-09     MPTRAN =       0
     DIRTRF =       T     AOINTS =DUP     

          -----------------------------
          LOCALIZATION INPUT PARAMETERS
          -----------------------------
           LOCAL=RUEDNBRG      NOUTA=      20
          PRTLOC=       F      NOUTB=       0
          MAXLOC=     250     CVGLOC=1.00E-06
           FCORE=       T     SYMLOC=       F
          MOIDON=       F     EDCOMP=       F
          DIPDCM=       F      NPROT=       0
          QADDCM=       F     DEPRNT=       F
          POLNUM=       F     ORIENT=       F
          POLDYN=       F      VMTOL=1.50E-01
          NPRDTL=       2
          MOOUTA =      1    2    3    4    5    6    7    8    9   10   11   12
                       13   14   15   16   17   18   19   20

          ----------------------
          INTEGRAL INPUT OPTIONS
          ----------------------
 NOPK  =       1 NORDER=       0 SCHWRZ=       T

     --------------------------------
     THE POINT GROUP IS TD , ORDER=24
     --------------------------------

 -- VARIATIONAL SPACE WILL BE RESTRICTED TO PURE SPHERICAL HARMONICS ONLY --
 AFTER EXCLUDING CONTAMINANT COMBINATIONS FROM THE CARTESIAN GAUSSIAN BASIS
 SET, THE NUMBER OF SPHERICAL HARMONICS KEPT IN THE VARIATION SPACE IS  220

     DIMENSIONS OF THE SYMMETRY SUBSPACES ARE
 A1  =   19     A2  =    2     E   =   17     T1  =   19     T2  =   36

 ..... DONE SETTING UP THE RUN .....
 STEP CPU TIME =     0.05 TOTAL CPU TIME =        0.0 (    0.0 MIN)
 TOTAL WALL CLOCK TIME=        0.1 SECONDS, CPU UTILIZATION IS  83.33%

          ********************
          1 ELECTRON INTEGRALS
          ********************
 ...... END OF ONE-ELECTRON INTEGRALS ......
 STEP CPU TIME =     0.03 TOTAL CPU TIME =        0.1 (    0.0 MIN)
 TOTAL WALL CLOCK TIME=        0.1 SECONDS, CPU UTILIZATION IS 100.00%

          -------------
          GUESS OPTIONS
          -------------
          GUESS =HUCKEL            NORB  =       0          NORDER=       0
          MIX   =       F          PRTMO =       F          PUNMO =       F
          TOLZ  = 1.0E-08          TOLE  = 1.0E-05
          SYMDEN=       F          PURIFY=       F

 INITIAL GUESS ORBITALS GENERATED BY HUCKEL   ROUTINE.
 HUCKEL GUESS REQUIRES    493052 WORDS.

 STATISTICS FOR GENERATION OF SYMMETRY ORBITAL -Q- MATRIX
 NUMBER OF CARTESIAN ATOMIC ORBITALS=        260
 NUMBER OF SPHERICAL CONTAMINANTS DROPPED=    40
 NUMBER OF LINEARLY DEPENDENT MOS DROPPED=     0
 TOTAL NUMBER OF MOS IN VARIATION SPACE=     220

 SYMMETRIES FOR INITIAL GUESS ORBITALS FOLLOW.   BOTH SET(S).
    30 ORBITALS ARE OCCUPIED (   20 CORE ORBITALS).
    21=?A1     22=?T2     23=?T2     24=?T2     25=?T2     26=?T2     27=?T2 
    28=?E      29=?E      30=?A1     31=?T1     32=?T1     33=?T1     34=?T2 
    35=?T2     36=A1      37=A1      38=A1      39=A1      40=A1  
 ...... END OF INITIAL ORBITAL SELECTION ......
 STEP CPU TIME =     0.20 TOTAL CPU TIME =        0.3 (    0.0 MIN)
 TOTAL WALL CLOCK TIME=        0.3 SECONDS, CPU UTILIZATION IS  96.55%

                    ----------------------
                    AO INTEGRAL TECHNOLOGY
                    ----------------------
     S,P,L SHELL ROTATED AXIS INTEGRALS, REPROGRAMMED BY
        KAZUYA ISHIMURA (IMS) AND JOSE SIERRA (SYNSTAR).
     S,P,D,L SHELL ROTATED AXIS INTEGRALS PROGRAMMED BY
        KAZUYA ISHIMURA (INSTITUTE FOR MOLECULAR SCIENCE).
     S,P,D,F,G SHELL TO TOTAL QUARTET ANGULAR MOMENTUM SUM 5,
        ERIC PROGRAM BY GRAHAM FLETCHER (ELORET AND NASA ADVANCED
        SUPERCOMPUTING DIVISION, AMES RESEARCH CENTER).
     S,P,D,F,G,L SHELL GENERAL RYS QUADRATURE PROGRAMMED BY
        MICHEL DUPUIS (PACIFIC NORTHWEST NATIONAL LABORATORY).

          --------------------
          2 ELECTRON INTEGRALS
          --------------------

 DIRECT SCF METHOD SKIPS INTEGRAL STORAGE ON DISK.
 DIRECT TRANSFORMATION SKIPS AO INTEGRAL STORAGE ON DISK.
  ...... END OF TWO-ELECTRON INTEGRALS .....
 STEP CPU TIME =     0.02 TOTAL CPU TIME =        0.3 (    0.0 MIN)
 TOTAL WALL CLOCK TIME=        0.4 SECONDS, CPU UTILIZATION IS  85.71%

          --------------------------
                 RHF SCF CALCULATION
          --------------------------

     NUCLEAR ENERGY =       324.4529834103
     MAXIT =   30     NPUNCH=    2
     EXTRAP=T  DAMP=F  SHIFT=F  RSTRCT=F  DIIS=T  DEM=F  SOSCF=F
     DENSITY MATRIX CONV=  2.00E-05
     MEMORY REQUIRED FOR RHF ITERS=    536297 WORDS.

 DIRECT SCF CALCULATION, SCHWRZ=T   FDIFF=T,  DIRTHR=  0.00E+00 NITDIR=10
 SCHWARZ INEQUALITY OVERHEAD:     33930 INTEGRALS, T=        0.09

                                                                                   NONZERO     BLOCKS
 ITER EX DEM     TOTAL ENERGY        E CHANGE  DENSITY CHANGE    DIIS ERROR      INTEGRALS    SKIPPED
   1  0  0    -1361.6810409937 -1361.6810409937   0.379914772   2.304474723       24703415        668
          * * *   INITIATING DIIS PROCEDURE   * * *
   2  1  0    -1362.8265818138    -1.1455408201   0.127323120   0.251626949       24727548        555
   3  2  0    -1362.9703392581    -0.1437574443   0.056016755   0.146739514       24721073        820
   4  3  0    -1363.0551440911    -0.0848048330   0.002911529   0.011883119       24696554       1210
   5  4  0    -1363.0558566237    -0.0007125325   0.000967013   0.001347572       24663542       1907
   6  5  0    -1363.0558892682    -0.0000326446   0.000360717   0.000385895       24635367       2689
   7  6  0    -1363.0558912262    -0.0000019580   0.000082324   0.000107696       24571014       4089
   8  7  0    -1363.0558913658    -0.0000001395   0.000030730   0.000020897       24438097       6732
   9  8  0    -1363.0558913774    -0.0000000116   0.000009894   0.000004748       24266081       9390
  10  9  0    -1363.0558913780    -0.0000000007   0.000000878   0.000000557       23888044      13947

          -----------------
          DENSITY CONVERGED
          -----------------
     TIME TO FORM FOCK OPERATORS=      27.8 SECONDS (       2.8 SEC/ITER)
     FOCK TIME ON FIRST ITERATION=       3.0, LAST ITERATION=       2.6
     TIME TO SOLVE SCF EQUATIONS=       0.9 SECONDS (       0.1 SEC/ITER)

 FINAL RHF ENERGY IS    -1363.0558913780 AFTER  10 ITERATIONS

 FORMING VIRTUAL VALENCE ORBITALS FOR RHF...
 THE ATOMS POSSESS   20 CHEMICAL CORES, AND   16 VALENCE ORBITALS.
 THIS MOLECULE HAS   10 OCCUPIED VALENCE ORBITALS,
 SO WE ARE SEEKING    6  VIRTUAL VALENCE ORBITALS FROM
 WITHIN THE MOLECULE'S VIRTUAL SPACE OF DIMENSION  190

 THERE SHOULD BE A CLEAR DROPOFF IN THE EIGENVALUES OF -B- BETWEEN THE
 VALENCE VIRTUAL AND EXTERNAL VIRTUAL ORBITALS, PLEASE CHECK THIS.
 LAST FEW SVD EIGENVALUES KEPT AS VALENCE:
    0.9999675645   0.9999675645   0.9999651309   0.9999651309   0.9999651309
 FIRST FEW SVD EIGENVALUES REJECTED AS EXTERNAL:
    0.2283337904   0.1685272674   0.1685272674   0.1685272674   0.1591756745

 THE QUASIATOMIC MINIMAL-BASIS-SET ORBITALS (QUAMBO'S) HAVE BEEN PUNCHED.
 THE   36 QUAMBO'S ARE MOLECULAR ORBITALS WHICH
    A) ARE MUTUALLY ORTHONORMAL,
    B) SPAN THE   30 DIMENSIONAL OCCUPIED ORBITAL SPACE OF THIS MOLECULE
       EXACTLY, AND    6 ADDITIONAL VALENCE VIRTUAL ORBITALS,
    C) ARE AS CLOSE AS POSSIBLE TO THE FREE ATOM AO'S (IN THE SENSE OF 
       MAXIMUM OVERLAP), WHILE SATISFYING "A" AND "B".

 USING THE RHF FOCK MATRIX TO CANONICALIZE THE VVOS.

 VIRTUAL VALENCE ORBITAL GENERATION IS FINISHED.
 THE VIRTUAL VALENCE ORBITALS ARE A QUANTIFICATION OF THE FRONTIER ORBITAL
 SPACE (I.E. LUMO, LUMO+1, ...) WITHIN THE HARTREE-FOCK APPROXIMATION.
 THE   30 OCCUPIED AND  190 VIRTUAL ORBITALS PRINTED BELOW ARE
      FIRST, THE OCCUPIED CANONICAL ORBITALS (    1-   30)
     SECOND, THE VIRTUAL VALENCE ORBITALS    (   31-   36)
      THIRD, THE EXTERNAL VIRTUAL ORBITALS   (   37-  220)
 NOTE THAT THE VIRTUAL SPACE IS ONLY SEMI-CANONICALIZED, MEANING THAT
 THE FOCK OPERATOR IS DIAGONAL ONLY WITHIN ITS VALENCE AND EXTERNAL
 VIRTUAL SUBBLOCKS.  THE VIRTUAL "EIGENVALUES" BELOW ARE THESE DIAGONALS,
 WHICH ARE EXPECTATION VALUES OF THE FOCK OPERATOR, NOT ITS EIGENVALUES.

          ------------
          EIGENVECTORS
          ------------

                      1          2          3          4          5
                  -79.9783   -79.9783   -79.9783   -79.9783    -7.5175
                     A1         T2         T2         T2         A1  
    1  P  1  S    0.500068   0.500068   0.500068   0.500068  -0.000089
    2  P  1  S    0.000088   0.000079   0.000079   0.000079   0.477785
    3  P  1  S    0.000105   0.000086   0.000086   0.000086  -0.000357
    4  P  1  S   -0.000446  -0.000489  -0.000489  -0.000489   0.030527
    5  P  1  S   -0.000054   0.000044   0.000044   0.000044   0.001257
    6  P  1  X   -0.000043  -0.000051  -0.000051  -0.000066  -0.001193
    7  P  1  Y    0.000043   0.000066   0.000051   0.000051   0.001193
    8  P  1  Z    0.000043   0.000051   0.000066   0.000051   0.001193
    9  P  1  X   -0.000040  -0.000055  -0.000055  -0.000089   0.000115
   10  P  1  Y    0.000040   0.000089   0.000055   0.000055  -0.000115
   11  P  1  Z    0.000040   0.000055   0.000089   0.000055  -0.000115
   12  P  1  X    0.000022   0.000033   0.000033   0.000043  -0.000559
   13  P  1  Y   -0.000022  -0.000043  -0.000033  -0.000033   0.000559
   14  P  1  Z   -0.000022  -0.000033  -0.000043  -0.000033   0.000559
   15  P  1  X    0.000041  -0.000046  -0.000046  -0.000072  -0.000222
   16  P  1  Y   -0.000041   0.000072   0.000046   0.000046   0.000222
   17  P  1  Z   -0.000041   0.000046   0.000072   0.000046   0.000222
   18  P  1 XX   -0.000000  -0.000001  -0.000001   0.000003  -0.000000
   19  P  1 YY   -0.000000   0.000003  -0.000001  -0.000001  -0.000000
   20  P  1 ZZ   -0.000000  -0.000001   0.000003  -0.000001  -0.000000
   21  P  1 XY   -0.000001  -0.000000   0.000007  -0.000000  -0.000087
   22  P  1 XZ   -0.000001   0.000007  -0.000000  -0.000000  -0.000087
   23  P  1 YZ    0.000001   0.000000   0.000000  -0.000007   0.000087
   24  P  1 XX   -0.000000  -0.000012  -0.000012   0.000023  -0.000000
   25  P  1 YY   -0.000000   0.000023  -0.000012  -0.000012  -0.000000
   26  P  1 ZZ   -0.000000  -0.000012   0.000023  -0.000012  -0.000000
   27  P  1 XY    0.000005  -0.000046  -0.000012  -0.000046  -0.000026
   28  P  1 XZ    0.000005  -0.000012  -0.000046  -0.000046  -0.000026
   29  P  1 YZ   -0.000005   0.000046   0.000046   0.000012   0.000026
   30  P  1 XXX   0.000001   0.000002   0.000002   0.000005   0.000006
   31  P  1 YYY  -0.000001  -0.000005  -0.000002  -0.000002  -0.000006
   32  P  1 ZZZ  -0.000001  -0.000002  -0.000005  -0.000002  -0.000006
   33  P  1 XXY   0.000000   0.000003  -0.000009   0.000012   0.000004
   34  P  1 XXZ   0.000000  -0.000009   0.000003   0.000012   0.000004
   35  P  1 YYX  -0.000000  -0.000012   0.000009  -0.000003  -0.000004
   36  P  1 YYZ   0.000000   0.000012   0.000003  -0.000009   0.000004
   37  P  1 ZZX  -0.000000   0.000009  -0.000012  -0.000003  -0.000004
   38  P  1 ZZY   0.000000   0.000003   0.000012  -0.000009   0.000004
   39  P  1 XYZ  -0.000003  -0.000001  -0.000001  -0.000001   0.000025
   40  P  1 XX   -0.000000   0.000001   0.000001  -0.000001  -0.000000
   41  P  1 YY   -0.000000  -0.000001   0.000001   0.000001  -0.000000
   42  P  1 ZZ   -0.000000   0.000001  -0.000001   0.000001  -0.000000
   43  P  1 XY   -0.000000   0.000001  -0.000001   0.000001   0.000020
   44  P  1 XZ   -0.000000  -0.000001   0.000001   0.000001   0.000020
   45  P  1 YZ    0.000000  -0.000001  -0.000001   0.000001  -0.000020
   46  P  1  S   -0.000018   0.000120   0.000120   0.000120  -0.000064
   47  P  1  X    0.000008  -0.000012  -0.000012  -0.000017   0.000005
   48  P  1  Y   -0.000008   0.000017   0.000012   0.000012  -0.000005
   49  P  1  Z   -0.000008   0.000012   0.000017   0.000012  -0.000005
   50  P  1 XX   -0.000000  -0.000001  -0.000001   0.000002  -0.000000
   51  P  1 YY   -0.000000   0.000002  -0.000001  -0.000001  -0.000000
   52  P  1 ZZ   -0.000000  -0.000001   0.000002  -0.000001  -0.000000
   53  P  1 XY    0.000019  -0.000010  -0.000012  -0.000010  -0.000089
   54  P  1 XZ    0.000019  -0.000012  -0.000010  -0.000010  -0.000089
   55  P  1 YZ   -0.000019   0.000010   0.000010   0.000012   0.000089
   56  P  1 XXX  -0.000006   0.000005   0.000005   0.000003   0.000016
   57  P  1 YYY   0.000006  -0.000003  -0.000005  -0.000005  -0.000016
   58  P  1 ZZZ   0.000006  -0.000005  -0.000003  -0.000005  -0.000016
   59  P  1 XXY  -0.000004   0.000002  -0.000002   0.000009   0.000011
   60  P  1 XXZ  -0.000004  -0.000002   0.000002   0.000009   0.000011
   61  P  1 YYX   0.000004  -0.000009   0.000002  -0.000002  -0.000011
   62  P  1 YYZ  -0.000004   0.000009   0.000002  -0.000002   0.000011
   63  P  1 ZZX   0.000004   0.000002  -0.000009  -0.000002  -0.000011
   64  P  1 ZZY  -0.000004   0.000002   0.000009  -0.000002   0.000011
   65  P  1 XYZ   0.000003  -0.000011  -0.000011  -0.000011   0.000044
   66  P  2  S    0.500068  -0.500068   0.500068  -0.500068  -0.000089
   67  P  2  S    0.000088  -0.000079   0.000079  -0.000079   0.477785
   68  P  2  S    0.000105  -0.000086   0.000086  -0.000086  -0.000357
   69  P  2  S   -0.000446   0.000489  -0.000489   0.000489   0.030527
   70  P  2  S   -0.000054  -0.000044   0.000044  -0.000044   0.001257
   71  P  2  X    0.000043  -0.000051   0.000051  -0.000066   0.001193
   72  P  2  Y   -0.000043   0.000066  -0.000051   0.000051  -0.001193
   73  P  2  Z    0.000043  -0.000051   0.000066  -0.000051   0.001193
   74  P  2  X    0.000040  -0.000055   0.000055  -0.000089  -0.000115
   75  P  2  Y   -0.000040   0.000089  -0.000055   0.000055   0.000115
   76  P  2  Z    0.000040  -0.000055   0.000089  -0.000055  -0.000115
   77  P  2  X   -0.000022   0.000033  -0.000033   0.000043   0.000559
   78  P  2  Y    0.000022  -0.000043   0.000033  -0.000033  -0.000559
   79  P  2  Z   -0.000022   0.000033  -0.000043   0.000033   0.000559
   80  P  2  X   -0.000041  -0.000046   0.000046  -0.000072   0.000222
   81  P  2  Y    0.000041   0.000072  -0.000046   0.000046  -0.000222
   82  P  2  Z   -0.000041  -0.000046   0.000072  -0.000046   0.000222
   83  P  2 XX   -0.000000   0.000001  -0.000001  -0.000003  -0.000000
   84  P  2 YY   -0.000000  -0.000003  -0.000001   0.000001  -0.000000
   85  P  2 ZZ   -0.000000   0.000001   0.000003   0.000001  -0.000000
   86  P  2 XY   -0.000001   0.000000   0.000007   0.000000  -0.000087
   87  P  2 XZ    0.000001   0.000007   0.000000  -0.000000   0.000087
   88  P  2 YZ   -0.000001   0.000000  -0.000000  -0.000007  -0.000087
   89  P  2 XX   -0.000000   0.000012  -0.000012  -0.000023  -0.000000
   90  P  2 YY   -0.000000  -0.000023  -0.000012   0.000012  -0.000000
   91  P  2 ZZ   -0.000000   0.000012   0.000023   0.000012  -0.000000
   92  P  2 XY    0.000005   0.000046  -0.000012   0.000046  -0.000026
   93  P  2 XZ   -0.000005  -0.000012   0.000046  -0.000046   0.000026
   94  P  2 YZ    0.000005   0.000046  -0.000046   0.000012  -0.000026
   95  P  2 XXX  -0.000001   0.000002  -0.000002   0.000005  -0.000006
   96  P  2 YYY   0.000001  -0.000005   0.000002  -0.000002   0.000006
   97  P  2 ZZZ  -0.000001   0.000002  -0.000005   0.000002  -0.000006
   98  P  2 XXY  -0.000000   0.000003   0.000009   0.000012  -0.000004
   99  P  2 XXZ   0.000000   0.000009   0.000003  -0.000012   0.000004
  100  P  2 YYX   0.000000  -0.000012  -0.000009  -0.000003   0.000004
  101  P  2 YYZ   0.000000  -0.000012   0.000003   0.000009   0.000004
  102  P  2 ZZX   0.000000   0.000009   0.000012  -0.000003   0.000004
  103  P  2 ZZY  -0.000000   0.000003  -0.000012  -0.000009  -0.000004
  104  P  2 XYZ  -0.000003   0.000001  -0.000001   0.000001   0.000025
  105  P  2 XX   -0.000000  -0.000001   0.000001   0.000001  -0.000000
  106  P  2 YY   -0.000000   0.000001   0.000001  -0.000001  -0.000000
  107  P  2 ZZ   -0.000000  -0.000001  -0.000001  -0.000001  -0.000000
  108  P  2 XY   -0.000000  -0.000001  -0.000001  -0.000001   0.000020
  109  P  2 XZ    0.000000  -0.000001  -0.000001   0.000001  -0.000020
  110  P  2 YZ   -0.000000  -0.000001   0.000001   0.000001   0.000020
  111  P  2  S   -0.000018  -0.000120   0.000120  -0.000120  -0.000064
  112  P  2  X   -0.000008  -0.000012   0.000012  -0.000017  -0.000005
  113  P  2  Y    0.000008   0.000017  -0.000012   0.000012   0.000005
  114  P  2  Z   -0.000008  -0.000012   0.000017  -0.000012  -0.000005
  115  P  2 XX   -0.000000   0.000001  -0.000001  -0.000002  -0.000000
  116  P  2 YY   -0.000000  -0.000002  -0.000001   0.000001  -0.000000
  117  P  2 ZZ   -0.000000   0.000001   0.000002   0.000001  -0.000000
  118  P  2 XY    0.000019   0.000010  -0.000012   0.000010  -0.000089
  119  P  2 XZ   -0.000019  -0.000012   0.000010  -0.000010   0.000089
  120  P  2 YZ    0.000019   0.000010  -0.000010   0.000012  -0.000089
  121  P  2 XXX   0.000006   0.000005  -0.000005   0.000003  -0.000016
  122  P  2 YYY  -0.000006  -0.000003   0.000005  -0.000005   0.000016
  123  P  2 ZZZ   0.000006   0.000005  -0.000003   0.000005  -0.000016
  124  P  2 XXY   0.000004   0.000002   0.000002   0.000009  -0.000011
  125  P  2 XXZ  -0.000004   0.000002   0.000002  -0.000009   0.000011
  126  P  2 YYX  -0.000004  -0.000009  -0.000002  -0.000002   0.000011
  127  P  2 YYZ  -0.000004  -0.000009   0.000002   0.000002   0.000011
  128  P  2 ZZX  -0.000004   0.000002   0.000009  -0.000002   0.000011
  129  P  2 ZZY   0.000004   0.000002  -0.000009  -0.000002  -0.000011
  130  P  2 XYZ   0.000003   0.000011  -0.000011   0.000011   0.000044
  131  P  3  S    0.500068   0.500068  -0.500068  -0.500068  -0.000089
  132  P  3  S    0.000088   0.000079  -0.000079  -0.000079   0.477785
  133  P  3  S    0.000105   0.000086  -0.000086  -0.000086  -0.000357
  134  P  3  S   -0.000446  -0.000489   0.000489   0.000489   0.030527
  135  P  3  S   -0.000054   0.000044  -0.000044  -0.000044   0.001257
  136  P  3  X    0.000043   0.000051  -0.000051  -0.000066   0.001193
  137  P  3  Y    0.000043   0.000066  -0.000051  -0.000051   0.001193
  138  P  3  Z   -0.000043  -0.000051   0.000066   0.000051  -0.001193
  139  P  3  X    0.000040   0.000055  -0.000055  -0.000089  -0.000115
  140  P  3  Y    0.000040   0.000089  -0.000055  -0.000055  -0.000115
  141  P  3  Z   -0.000040  -0.000055   0.000089   0.000055   0.000115
  142  P  3  X   -0.000022  -0.000033   0.000033   0.000043   0.000559
  143  P  3  Y   -0.000022  -0.000043   0.000033   0.000033   0.000559
  144  P  3  Z    0.000022   0.000033  -0.000043  -0.000033  -0.000559
  145  P  3  X   -0.000041   0.000046  -0.000046  -0.000072   0.000222
  146  P  3  Y   -0.000041   0.000072  -0.000046  -0.000046   0.000222
  147  P  3  Z    0.000041  -0.000046   0.000072   0.000046  -0.000222
  148  P  3 XX   -0.000000  -0.000001   0.000001  -0.000003  -0.000000
  149  P  3 YY   -0.000000   0.000003   0.000001   0.000001  -0.000000
  150  P  3 ZZ   -0.000000  -0.000001  -0.000003   0.000001  -0.000000
  151  P  3 XY    0.000001   0.000000   0.000007  -0.000000   0.000087
  152  P  3 XZ   -0.000001   0.000007   0.000000   0.000000  -0.000087
  153  P  3 YZ   -0.000001  -0.000000   0.000000  -0.000007  -0.000087
  154  P  3 XX   -0.000000  -0.000012   0.000012  -0.000023  -0.000000
  155  P  3 YY   -0.000000   0.000023   0.000012   0.000012  -0.000000
  156  P  3 ZZ   -0.000000  -0.000012  -0.000023   0.000012  -0.000000
  157  P  3 XY   -0.000005   0.000046  -0.000012  -0.000046   0.000026
  158  P  3 XZ    0.000005  -0.000012   0.000046   0.000046  -0.000026
  159  P  3 YZ    0.000005  -0.000046   0.000046   0.000012  -0.000026
  160  P  3 XXX  -0.000001  -0.000002   0.000002   0.000005  -0.000006
  161  P  3 YYY  -0.000001  -0.000005   0.000002   0.000002  -0.000006
  162  P  3 ZZZ   0.000001   0.000002  -0.000005  -0.000002   0.000006
  163  P  3 XXY   0.000000   0.000003   0.000009  -0.000012   0.000004
  164  P  3 XXZ  -0.000000   0.000009   0.000003   0.000012  -0.000004
  165  P  3 YYX   0.000000   0.000012   0.000009  -0.000003   0.000004
  166  P  3 YYZ  -0.000000  -0.000012   0.000003  -0.000009  -0.000004
  167  P  3 ZZX   0.000000  -0.000009  -0.000012  -0.000003   0.000004
  168  P  3 ZZY   0.000000   0.000003  -0.000012   0.000009   0.000004
  169  P  3 XYZ  -0.000003  -0.000001   0.000001   0.000001   0.000025
  170  P  3 XX   -0.000000   0.000001  -0.000001   0.000001  -0.000000
  171  P  3 YY   -0.000000  -0.000001  -0.000001  -0.000001  -0.000000
  172  P  3 ZZ   -0.000000   0.000001   0.000001  -0.000001  -0.000000
  173  P  3 XY    0.000000  -0.000001  -0.000001   0.000001  -0.000020
  174  P  3 XZ   -0.000000  -0.000001  -0.000001  -0.000001   0.000020
  175  P  3 YZ   -0.000000   0.000001  -0.000001   0.000001   0.000020
  176  P  3  S   -0.000018   0.000120  -0.000120  -0.000120  -0.000064
  177  P  3  X   -0.000008   0.000012  -0.000012  -0.000017  -0.000005
  178  P  3  Y   -0.000008   0.000017  -0.000012  -0.000012  -0.000005
  179  P  3  Z    0.000008  -0.000012   0.000017   0.000012   0.000005
  180  P  3 XX   -0.000000  -0.000001   0.000001  -0.000002  -0.000000
  181  P  3 YY   -0.000000   0.000002   0.000001   0.000001  -0.000000
  182  P  3 ZZ   -0.000000  -0.000001  -0.000002   0.000001  -0.000000
  183  P  3 XY   -0.000019   0.000010  -0.000012  -0.000010   0.000089
  184  P  3 XZ    0.000019  -0.000012   0.000010   0.000010  -0.000089
  185  P  3 YZ    0.000019  -0.000010   0.000010   0.000012  -0.000089
  186  P  3 XXX   0.000006  -0.000005   0.000005   0.000003  -0.000016
  187  P  3 YYY   0.000006  -0.000003   0.000005   0.000005  -0.000016
  188  P  3 ZZZ  -0.000006   0.000005  -0.000003  -0.000005   0.000016
  189  P  3 XXY  -0.000004   0.000002   0.000002  -0.000009   0.000011
  190  P  3 XXZ   0.000004   0.000002   0.000002   0.000009  -0.000011
  191  P  3 YYX  -0.000004   0.000009   0.000002  -0.000002   0.000011
  192  P  3 YYZ   0.000004  -0.000009   0.000002  -0.000002  -0.000011
  193  P  3 ZZX  -0.000004  -0.000002  -0.000009  -0.000002   0.000011
  194  P  3 ZZY  -0.000004   0.000002  -0.000009   0.000002   0.000011
  195  P  3 XYZ   0.000003  -0.000011   0.000011   0.000011   0.000044
  196  P  4  S    0.500068  -0.500068  -0.500068   0.500068  -0.000089
  197  P  4  S    0.000088  -0.000079  -0.000079   0.000079   0.477785
  198  P  4  S    0.000105  -0.000086  -0.000086   0.000086  -0.000357
  199  P  4  S   -0.000446   0.000489   0.000489  -0.000489   0.030527
  200  P  4  S   -0.000054  -0.000044  -0.000044   0.000044   0.001257
  201  P  4  X   -0.000043   0.000051   0.000051  -0.000066  -0.001193
  202  P  4  Y   -0.000043   0.000066   0.000051  -0.000051  -0.001193
  203  P  4  Z   -0.000043   0.000051   0.000066  -0.000051  -0.001193
  204  P  4  X   -0.000040   0.000055   0.000055  -0.000089   0.000115
  205  P  4  Y   -0.000040   0.000089   0.000055  -0.000055   0.000115
  206  P  4  Z   -0.000040   0.000055   0.000089  -0.000055   0.000115
  207  P  4  X    0.000022  -0.000033  -0.000033   0.000043  -0.000559
  208  P  4  Y    0.000022  -0.000043  -0.000033   0.000033  -0.000559
  209  P  4  Z    0.000022  -0.000033  -0.000043   0.000033  -0.000559
  210  P  4  X    0.000041   0.000046   0.000046  -0.000072  -0.000222
  211  P  4  Y    0.000041   0.000072   0.000046  -0.000046  -0.000222
  212  P  4  Z    0.000041   0.000046   0.000072  -0.000046  -0.000222
  213  P  4 XX   -0.000000   0.000001   0.000001   0.000003  -0.000000
  214  P  4 YY   -0.000000  -0.000003   0.000001  -0.000001  -0.000000
  215  P  4 ZZ   -0.000000   0.000001  -0.000003  -0.000001  -0.000000
  216  P  4 XY    0.000001  -0.000000   0.000007   0.000000   0.000087
  217  P  4 XZ    0.000001   0.000007  -0.000000   0.000000   0.000087
  218  P  4 YZ    0.000001  -0.000000  -0.000000  -0.000007   0.000087
  219  P  4 XX   -0.000000   0.000012   0.000012   0.000023  -0.000000
  220  P  4 YY   -0.000000  -0.000023   0.000012  -0.000012  -0.000000
  221  P  4 ZZ   -0.000000   0.000012  -0.000023  -0.000012  -0.000000
  222  P  4 XY   -0.000005  -0.000046  -0.000012   0.000046   0.000026
  223  P  4 XZ   -0.000005  -0.000012  -0.000046   0.000046   0.000026
  224  P  4 YZ   -0.000005  -0.000046  -0.000046   0.000012   0.000026
  225  P  4 XXX   0.000001  -0.000002  -0.000002   0.000005   0.000006
  226  P  4 YYY   0.000001  -0.000005  -0.000002   0.000002   0.000006
  227  P  4 ZZZ   0.000001  -0.000002  -0.000005   0.000002   0.000006
  228  P  4 XXY  -0.000000   0.000003  -0.000009  -0.000012  -0.000004
  229  P  4 XXZ  -0.000000  -0.000009   0.000003  -0.000012  -0.000004
  230  P  4 YYX  -0.000000   0.000012  -0.000009  -0.000003  -0.000004
  231  P  4 YYZ  -0.000000   0.000012   0.000003   0.000009  -0.000004
  232  P  4 ZZX  -0.000000  -0.000009   0.000012  -0.000003  -0.000004
  233  P  4 ZZY  -0.000000   0.000003   0.000012   0.000009  -0.000004
  234  P  4 XYZ  -0.000003   0.000001   0.000001  -0.000001   0.000025
  235  P  4 XX   -0.000000  -0.000001  -0.000001  -0.000001  -0.000000
  236  P  4 YY   -0.000000   0.000001  -0.000001   0.000001  -0.000000
  237  P  4 ZZ   -0.000000  -0.000001   0.000001   0.000001  -0.000000
  238  P  4 XY    0.000000   0.000001  -0.000001  -0.000001  -0.000020
  239  P  4 XZ    0.000000  -0.000001   0.000001  -0.000001  -0.000020
  240  P  4 YZ    0.000000   0.000001   0.000001   0.000001  -0.000020
  241  P  4  S   -0.000018  -0.000120  -0.000120   0.000120  -0.000064
  242  P  4  X    0.000008   0.000012   0.000012  -0.000017   0.000005
  243  P  4  Y    0.000008   0.000017   0.000012  -0.000012   0.000005
  244  P  4  Z    0.000008   0.000012   0.000017  -0.000012   0.000005
  245  P  4 XX   -0.000000   0.000001   0.000001   0.000002  -0.000000
  246  P  4 YY   -0.000000  -0.000002   0.000001  -0.000001  -0.000000
  247  P  4 ZZ   -0.000000   0.000001  -0.000002  -0.000001  -0.000000
  248  P  4 XY   -0.000019  -0.000010  -0.000012   0.000010   0.000089
  249  P  4 XZ   -0.000019  -0.000012  -0.000010   0.000010   0.000089
  250  P  4 YZ   -0.000019  -0.000010  -0.000010   0.000012   0.000089
  251  P  4 XXX  -0.000006  -0.000005  -0.000005   0.000003   0.000016
  252  P  4 YYY  -0.000006  -0.000003  -0.000005   0.000005   0.000016
  253  P  4 ZZZ  -0.000006  -0.000005  -0.000003   0.000005   0.000016
  254  P  4 XXY   0.000004   0.000002  -0.000002  -0.000009  -0.000011
  255  P  4 XXZ   0.000004  -0.000002   0.000002  -0.000009  -0.000011
  256  P  4 YYX   0.000004   0.000009  -0.000002  -0.000002  -0.000011
  257  P  4 YYZ   0.000004   0.000009   0.000002   0.000002  -0.000011
  258  P  4 ZZX   0.000004  -0.000002   0.000009  -0.000002  -0.000011
  259  P  4 ZZY   0.000004   0.000002   0.000009   0.000002  -0.000011
  260  P  4 XYZ   0.000003   0.000011   0.000011  -0.000011   0.000044

                      6          7          8          9         10
                   -7.5171    -7.5171    -7.5171    -5.4096    -5.4090
                     T2         T2         T2         A1         T2  
    1  P  1  S   -0.000117  -0.000117  -0.000117   0.000159   0.000171
    2  P  1  S    0.477661   0.477661   0.477661   0.003283   0.002958
    3  P  1  S   -0.000677  -0.000677  -0.000677  -0.000640  -0.000236
    4  P  1  S    0.030950   0.030950   0.030950  -0.000948  -0.001509
    5  P  1  S   -0.000104  -0.000104  -0.000104   0.002091   0.006579
    6  P  1  X   -0.001058  -0.001058  -0.000896   0.277153   0.334349
    7  P  1  Y    0.001058   0.000896   0.001058  -0.277153  -0.080163
    8  P  1  Z    0.000896   0.001058   0.001058  -0.277153  -0.334349
    9  P  1  X    0.000431   0.000431   0.000887   0.000169  -0.000726
   10  P  1  Y   -0.000431  -0.000887  -0.000431  -0.000169   0.001270
   11  P  1  Z   -0.000887  -0.000431  -0.000431  -0.000169   0.000726
   12  P  1  X   -0.000605  -0.000605  -0.000635   0.022429   0.027191
   13  P  1  Y    0.000605   0.000635   0.000605  -0.022429  -0.006734
   14  P  1  Z    0.000635   0.000605   0.000605  -0.022429  -0.027191
   15  P  1  X    0.000484   0.000484   0.000911   0.000747  -0.000736
   16  P  1  Y   -0.000484  -0.000911  -0.000484  -0.000747   0.002698
   17  P  1  Z   -0.000911  -0.000484  -0.000484  -0.000747   0.000736
   18  P  1 XX    0.000026   0.000026  -0.000051  -0.000000  -0.000111
   19  P  1 YY    0.000026  -0.000051   0.000026  -0.000000   0.000223
   20  P  1 ZZ   -0.000051   0.000026   0.000026  -0.000000  -0.000111
   21  P  1 XY   -0.000117  -0.000013  -0.000013   0.000369   0.000119
   22  P  1 XZ   -0.000013  -0.000117  -0.000013   0.000369   0.000418
   23  P  1 YZ    0.000013   0.000013   0.000117  -0.000369  -0.000119
   24  P  1 XX    0.000117   0.000117  -0.000235  -0.000000  -0.000201
   25  P  1 YY    0.000117  -0.000235   0.000117  -0.000000   0.000403
   26  P  1 ZZ   -0.000235   0.000117   0.000117  -0.000000  -0.000201
   27  P  1 XY    0.000009   0.000404   0.000404  -0.000161  -0.001056
   28  P  1 XZ    0.000404   0.000009   0.000404  -0.000161  -0.000471
   29  P  1 YZ   -0.000404  -0.000404  -0.000009   0.000161   0.001056
   30  P  1 XXX   0.000001   0.000001  -0.000026  -0.000029   0.000052
   31  P  1 YYY  -0.000001   0.000026  -0.000001   0.000029   0.000005
   32  P  1 ZZZ   0.000026  -0.000001  -0.000001   0.000029  -0.000052
   33  P  1 XXY   0.000075  -0.000017  -0.000074  -0.000019  -0.000003
   34  P  1 XXZ  -0.000017   0.000075  -0.000074  -0.000019  -0.000106
   35  P  1 YYX  -0.000075   0.000074   0.000017   0.000019  -0.000176
   36  P  1 YYZ  -0.000017  -0.000074   0.000075  -0.000019   0.000176
   37  P  1 ZZX   0.000074  -0.000075   0.000017   0.000019   0.000106
   38  P  1 ZZY  -0.000074  -0.000017   0.000075  -0.000019  -0.000003
   39  P  1 XYZ   0.000001   0.000001   0.000001   0.000104  -0.000057
   40  P  1 XX   -0.000002  -0.000002   0.000005  -0.000000  -0.000082
   41  P  1 YY   -0.000002   0.000005  -0.000002  -0.000000   0.000165
   42  P  1 ZZ    0.000005  -0.000002  -0.000002  -0.000000  -0.000082
   43  P  1 XY    0.000025   0.000014   0.000014   0.000361   0.000309
   44  P  1 XZ    0.000014   0.000025   0.000014   0.000361   0.000397
   45  P  1 YZ   -0.000014  -0.000014  -0.000025  -0.000361  -0.000309
   46  P  1  S   -0.001692  -0.001692  -0.001692  -0.000947   0.001081
   47  P  1  X    0.000147   0.000147   0.000244   0.000326   0.000008
   48  P  1  Y   -0.000147  -0.000244  -0.000147  -0.000326   0.000164
   49  P  1  Z   -0.000244  -0.000147  -0.000147  -0.000326  -0.000008
   50  P  1 XX    0.000022   0.000022  -0.000043  -0.000000  -0.000200
   51  P  1 YY    0.000022  -0.000043   0.000022  -0.000000   0.000399
   52  P  1 ZZ   -0.000043   0.000022   0.000022  -0.000000  -0.000200
   53  P  1 XY    0.000076   0.000124   0.000124   0.000333  -0.000287
   54  P  1 XZ    0.000124   0.000076   0.000124   0.000333   0.000461
   55  P  1 YZ   -0.000124  -0.000124  -0.000076  -0.000333   0.000287
   56  P  1 XXX  -0.000038  -0.000038  -0.000047  -0.000005   0.000114
   57  P  1 YYY   0.000038   0.000047   0.000038   0.000005  -0.000091
   58  P  1 ZZZ   0.000047   0.000038   0.000038   0.000005  -0.000114
   59  P  1 XXY   0.000044  -0.000032  -0.000095  -0.000004   0.000061
   60  P  1 XXZ  -0.000032   0.000044  -0.000095  -0.000004  -0.000109
   61  P  1 YYX  -0.000044   0.000095   0.000032   0.000004  -0.000262
   62  P  1 YYZ  -0.000032  -0.000095   0.000044  -0.000004   0.000262
   63  P  1 ZZX   0.000095  -0.000044   0.000032   0.000004   0.000109
   64  P  1 ZZY  -0.000095  -0.000032   0.000044  -0.000004   0.000061
   65  P  1 XYZ   0.000070   0.000070   0.000070  -0.000092  -0.000224
   66  P  2  S   -0.000117   0.000117   0.000117   0.000159  -0.000171
   67  P  2  S    0.477661  -0.477661  -0.477661   0.003283  -0.002958
   68  P  2  S   -0.000677   0.000677   0.000677  -0.000640   0.000236
   69  P  2  S    0.030950  -0.030950  -0.030950  -0.000948   0.001509
   70  P  2  S   -0.000104   0.000104   0.000104   0.002091  -0.006579
   71  P  2  X    0.001058  -0.001058  -0.000896  -0.277153   0.334349
   72  P  2  Y   -0.001058   0.000896   0.001058   0.277153  -0.080163
   73  P  2  Z    0.000896  -0.001058  -0.001058  -0.277153   0.334349
   74  P  2  X   -0.000431   0.000431   0.000887  -0.000169  -0.000726
   75  P  2  Y    0.000431  -0.000887  -0.000431   0.000169   0.001270
   76  P  2  Z   -0.000887   0.000431   0.000431  -0.000169  -0.000726
   77  P  2  X    0.000605  -0.000605  -0.000635  -0.022429   0.027191
   78  P  2  Y   -0.000605   0.000635   0.000605   0.022429  -0.006734
   79  P  2  Z    0.000635  -0.000605  -0.000605  -0.022429   0.027191
   80  P  2  X   -0.000484   0.000484   0.000911  -0.000747  -0.000736
   81  P  2  Y    0.000484  -0.000911  -0.000484   0.000747   0.002698
   82  P  2  Z   -0.000911   0.000484   0.000484  -0.000747  -0.000736
   83  P  2 XX    0.000026  -0.000026   0.000051  -0.000000   0.000111
   84  P  2 YY    0.000026   0.000051  -0.000026  -0.000000  -0.000223
   85  P  2 ZZ   -0.000051  -0.000026  -0.000026  -0.000000   0.000111
   86  P  2 XY   -0.000117   0.000013   0.000013   0.000369  -0.000119
   87  P  2 XZ    0.000013  -0.000117  -0.000013  -0.000369   0.000418
   88  P  2 YZ   -0.000013   0.000013   0.000117   0.000369  -0.000119
   89  P  2 XX    0.000117  -0.000117   0.000235  -0.000000   0.000201
   90  P  2 YY    0.000117   0.000235  -0.000117  -0.000000  -0.000403
   91  P  2 ZZ   -0.000235  -0.000117  -0.000117  -0.000000   0.000201
   92  P  2 XY    0.000009  -0.000404  -0.000404  -0.000161   0.001056
   93  P  2 XZ   -0.000404   0.000009   0.000404   0.000161  -0.000471
   94  P  2 YZ    0.000404  -0.000404  -0.000009  -0.000161   0.001056
   95  P  2 XXX  -0.000001   0.000001  -0.000026   0.000029   0.000052
   96  P  2 YYY   0.000001   0.000026  -0.000001  -0.000029   0.000005
   97  P  2 ZZZ   0.000026   0.000001   0.000001   0.000029   0.000052
   98  P  2 XXY  -0.000075  -0.000017  -0.000074   0.000019  -0.000003
   99  P  2 XXZ  -0.000017  -0.000075   0.000074  -0.000019   0.000106
  100  P  2 YYX   0.000075   0.000074   0.000017  -0.000019  -0.000176
  101  P  2 YYZ  -0.000017   0.000074  -0.000075  -0.000019  -0.000176
  102  P  2 ZZX  -0.000074  -0.000075   0.000017  -0.000019   0.000106
  103  P  2 ZZY   0.000074  -0.000017   0.000075   0.000019  -0.000003
  104  P  2 XYZ   0.000001  -0.000001  -0.000001   0.000104   0.000057
  105  P  2 XX   -0.000002   0.000002  -0.000005  -0.000000   0.000082
  106  P  2 YY   -0.000002  -0.000005   0.000002  -0.000000  -0.000165
  107  P  2 ZZ    0.000005   0.000002   0.000002  -0.000000   0.000082
  108  P  2 XY    0.000025  -0.000014  -0.000014   0.000361  -0.000309
  109  P  2 XZ   -0.000014   0.000025   0.000014  -0.000361   0.000397
  110  P  2 YZ    0.000014  -0.000014  -0.000025   0.000361  -0.000309
  111  P  2  S   -0.001692   0.001692   0.001692  -0.000947  -0.001081
  112  P  2  X   -0.000147   0.000147   0.000244  -0.000326   0.000008
  113  P  2  Y    0.000147  -0.000244  -0.000147   0.000326   0.000164
  114  P  2  Z   -0.000244   0.000147   0.000147  -0.000326   0.000008
  115  P  2 XX    0.000022  -0.000022   0.000043  -0.000000   0.000200
  116  P  2 YY    0.000022   0.000043  -0.000022  -0.000000  -0.000399
  117  P  2 ZZ   -0.000043  -0.000022  -0.000022  -0.000000   0.000200
  118  P  2 XY    0.000076  -0.000124  -0.000124   0.000333   0.000287
  119  P  2 XZ   -0.000124   0.000076   0.000124  -0.000333   0.000461
  120  P  2 YZ    0.000124  -0.000124  -0.000076   0.000333   0.000287
  121  P  2 XXX   0.000038  -0.000038  -0.000047   0.000005   0.000114
  122  P  2 YYY  -0.000038   0.000047   0.000038  -0.000005  -0.000091
  123  P  2 ZZZ   0.000047  -0.000038  -0.000038   0.000005   0.000114
  124  P  2 XXY  -0.000044  -0.000032  -0.000095   0.000004   0.000061
  125  P  2 XXZ  -0.000032  -0.000044   0.000095  -0.000004   0.000109
  126  P  2 YYX   0.000044   0.000095   0.000032  -0.000004  -0.000262
  127  P  2 YYZ  -0.000032   0.000095  -0.000044  -0.000004  -0.000262
  128  P  2 ZZX  -0.000095  -0.000044   0.000032  -0.000004   0.000109
  129  P  2 ZZY   0.000095  -0.000032   0.000044   0.000004   0.000061
  130  P  2 XYZ   0.000070  -0.000070  -0.000070  -0.000092   0.000224
  131  P  3  S    0.000117  -0.000117   0.000117   0.000159   0.000171
  132  P  3  S   -0.477661   0.477661  -0.477661   0.003283   0.002958
  133  P  3  S    0.000677  -0.000677   0.000677  -0.000640  -0.000236
  134  P  3  S   -0.030950   0.030950  -0.030950  -0.000948  -0.001509
  135  P  3  S    0.000104  -0.000104   0.000104   0.002091   0.006579
  136  P  3  X   -0.001058   0.001058  -0.000896  -0.277153  -0.334349
  137  P  3  Y   -0.001058   0.000896  -0.001058  -0.277153  -0.080163
  138  P  3  Z    0.000896  -0.001058   0.001058   0.277153   0.334349
  139  P  3  X    0.000431  -0.000431   0.000887  -0.000169   0.000726
  140  P  3  Y    0.000431  -0.000887   0.000431  -0.000169   0.001270
  141  P  3  Z   -0.000887   0.000431  -0.000431   0.000169  -0.000726
  142  P  3  X   -0.000605   0.000605  -0.000635  -0.022429  -0.027191
  143  P  3  Y   -0.000605   0.000635  -0.000605  -0.022429  -0.006734
  144  P  3  Z    0.000635  -0.000605   0.000605   0.022429   0.027191
  145  P  3  X    0.000484  -0.000484   0.000911  -0.000747   0.000736
  146  P  3  Y    0.000484  -0.000911   0.000484  -0.000747   0.002698
  147  P  3  Z   -0.000911   0.000484  -0.000484   0.000747  -0.000736
  148  P  3 XX   -0.000026   0.000026   0.000051  -0.000000  -0.000111
  149  P  3 YY   -0.000026  -0.000051  -0.000026  -0.000000   0.000223
  150  P  3 ZZ    0.000051   0.000026  -0.000026  -0.000000  -0.000111
  151  P  3 XY   -0.000117   0.000013  -0.000013  -0.000369  -0.000119
  152  P  3 XZ    0.000013  -0.000117   0.000013   0.000369   0.000418
  153  P  3 YZ    0.000013  -0.000013   0.000117   0.000369   0.000119
  154  P  3 XX   -0.000117   0.000117   0.000235  -0.000000  -0.000201
  155  P  3 YY   -0.000117  -0.000235  -0.000117  -0.000000   0.000403
  156  P  3 ZZ    0.000235   0.000117  -0.000117  -0.000000  -0.000201
  157  P  3 XY    0.000009  -0.000404   0.000404   0.000161   0.001056
  158  P  3 XZ   -0.000404   0.000009  -0.000404  -0.000161  -0.000471
  159  P  3 YZ   -0.000404   0.000404  -0.000009  -0.000161  -0.001056
  160  P  3 XXX   0.000001  -0.000001  -0.000026   0.000029  -0.000052
  161  P  3 YYY   0.000001   0.000026   0.000001   0.000029   0.000005
  162  P  3 ZZZ   0.000026   0.000001  -0.000001  -0.000029   0.000052
  163  P  3 XXY  -0.000075  -0.000017   0.000074  -0.000019  -0.000003
  164  P  3 XXZ  -0.000017  -0.000075  -0.000074   0.000019   0.000106
  165  P  3 YYX  -0.000075  -0.000074   0.000017  -0.000019   0.000176
  166  P  3 YYZ  -0.000017   0.000074   0.000075   0.000019  -0.000176
  167  P  3 ZZX   0.000074   0.000075   0.000017  -0.000019  -0.000106
  168  P  3 ZZY   0.000074  -0.000017  -0.000075  -0.000019  -0.000003
  169  P  3 XYZ  -0.000001   0.000001  -0.000001   0.000104  -0.000057
  170  P  3 XX    0.000002  -0.000002  -0.000005  -0.000000  -0.000082
  171  P  3 YY    0.000002   0.000005   0.000002  -0.000000   0.000165
  172  P  3 ZZ   -0.000005  -0.000002   0.000002  -0.000000  -0.000082
  173  P  3 XY    0.000025  -0.000014   0.000014  -0.000361  -0.000309
  174  P  3 XZ   -0.000014   0.000025  -0.000014   0.000361   0.000397
  175  P  3 YZ   -0.000014   0.000014  -0.000025   0.000361   0.000309
  176  P  3  S    0.001692  -0.001692   0.001692  -0.000947   0.001081
  177  P  3  X    0.000147  -0.000147   0.000244  -0.000326  -0.000008
  178  P  3  Y    0.000147  -0.000244   0.000147  -0.000326   0.000164
  179  P  3  Z   -0.000244   0.000147  -0.000147   0.000326   0.000008
  180  P  3 XX   -0.000022   0.000022   0.000043  -0.000000  -0.000200
  181  P  3 YY   -0.000022  -0.000043  -0.000022  -0.000000   0.000399
  182  P  3 ZZ    0.000043   0.000022  -0.000022  -0.000000  -0.000200
  183  P  3 XY    0.000076  -0.000124   0.000124  -0.000333   0.000287
  184  P  3 XZ   -0.000124   0.000076  -0.000124   0.000333   0.000461
  185  P  3 YZ   -0.000124   0.000124  -0.000076   0.000333  -0.000287
  186  P  3 XXX  -0.000038   0.000038  -0.000047   0.000005  -0.000114
  187  P  3 YYY  -0.000038   0.000047  -0.000038   0.000005  -0.000091
  188  P  3 ZZZ   0.000047  -0.000038   0.000038  -0.000005   0.000114
  189  P  3 XXY  -0.000044  -0.000032   0.000095  -0.000004   0.000061
  190  P  3 XXZ  -0.000032  -0.000044  -0.000095   0.000004   0.000109
  191  P  3 YYX  -0.000044  -0.000095   0.000032  -0.000004   0.000262
  192  P  3 YYZ  -0.000032   0.000095   0.000044   0.000004  -0.000262
  193  P  3 ZZX   0.000095   0.000044   0.000032  -0.000004  -0.000109
  194  P  3 ZZY   0.000095  -0.000032  -0.000044  -0.000004   0.000061
  195  P  3 XYZ  -0.000070   0.000070  -0.000070  -0.000092  -0.000224
  196  P  4  S    0.000117   0.000117  -0.000117   0.000159  -0.000171
  197  P  4  S   -0.477661  -0.477661   0.477661   0.003283  -0.002958
  198  P  4  S    0.000677   0.000677  -0.000677  -0.000640   0.000236
  199  P  4  S   -0.030950  -0.030950   0.030950  -0.000948   0.001509
  200  P  4  S    0.000104   0.000104  -0.000104   0.002091  -0.006579
  201  P  4  X    0.001058   0.001058  -0.000896   0.277153  -0.334349
  202  P  4  Y    0.001058   0.000896  -0.001058   0.277153  -0.080163
  203  P  4  Z    0.000896   0.001058  -0.001058   0.277153  -0.334349
  204  P  4  X   -0.000431  -0.000431   0.000887   0.000169   0.000726
  205  P  4  Y   -0.000431  -0.000887   0.000431   0.000169   0.001270
  206  P  4  Z   -0.000887  -0.000431   0.000431   0.000169   0.000726
  207  P  4  X    0.000605   0.000605  -0.000635   0.022429  -0.027191
  208  P  4  Y    0.000605   0.000635  -0.000605   0.022429  -0.006734
  209  P  4  Z    0.000635   0.000605  -0.000605   0.022429  -0.027191
  210  P  4  X   -0.000484  -0.000484   0.000911   0.000747   0.000736
  211  P  4  Y   -0.000484  -0.000911   0.000484   0.000747   0.002698
  212  P  4  Z   -0.000911  -0.000484   0.000484   0.000747   0.000736
  213  P  4 XX   -0.000026  -0.000026  -0.000051  -0.000000   0.000111
  214  P  4 YY   -0.000026   0.000051   0.000026  -0.000000  -0.000223
  215  P  4 ZZ    0.000051  -0.000026   0.000026  -0.000000   0.000111
  216  P  4 XY   -0.000117  -0.000013   0.000013  -0.000369   0.000119
  217  P  4 XZ   -0.000013  -0.000117   0.000013  -0.000369   0.000418
  218  P  4 YZ   -0.000013  -0.000013   0.000117  -0.000369   0.000119
  219  P  4 XX   -0.000117  -0.000117  -0.000235  -0.000000   0.000201
  220  P  4 YY   -0.000117   0.000235   0.000117  -0.000000  -0.000403
  221  P  4 ZZ    0.000235  -0.000117   0.000117  -0.000000   0.000201
  222  P  4 XY    0.000009   0.000404  -0.000404   0.000161  -0.001056
  223  P  4 XZ    0.000404   0.000009  -0.000404   0.000161  -0.000471
  224  P  4 YZ    0.000404   0.000404  -0.000009   0.000161  -0.001056
  225  P  4 XXX  -0.000001  -0.000001  -0.000026  -0.000029  -0.000052
  226  P  4 YYY  -0.000001   0.000026   0.000001  -0.000029   0.000005
  227  P  4 ZZZ   0.000026  -0.000001   0.000001  -0.000029  -0.000052
  228  P  4 XXY   0.000075  -0.000017   0.000074   0.000019  -0.000003
  229  P  4 XXZ  -0.000017   0.000075   0.000074   0.000019  -0.000106
  230  P  4 YYX   0.000075  -0.000074   0.000017   0.000019   0.000176
  231  P  4 YYZ  -0.000017  -0.000074  -0.000075   0.000019   0.000176
  232  P  4 ZZX  -0.000074   0.000075   0.000017   0.000019  -0.000106
  233  P  4 ZZY  -0.000074  -0.000017  -0.000075   0.000019  -0.000003
  234  P  4 XYZ  -0.000001  -0.000001   0.000001   0.000104   0.000057
  235  P  4 XX    0.000002   0.000002   0.000005  -0.000000   0.000082
  236  P  4 YY    0.000002  -0.000005  -0.000002  -0.000000  -0.000165
  237  P  4 ZZ   -0.000005   0.000002  -0.000002  -0.000000   0.000082
  238  P  4 XY    0.000025   0.000014  -0.000014  -0.000361   0.000309
  239  P  4 XZ    0.000014   0.000025  -0.000014  -0.000361   0.000397
  240  P  4 YZ    0.000014   0.000014  -0.000025  -0.000361   0.000309
  241  P  4  S    0.001692   0.001692  -0.001692  -0.000947  -0.001081
  242  P  4  X   -0.000147  -0.000147   0.000244   0.000326  -0.000008
  243  P  4  Y   -0.000147  -0.000244   0.000147   0.000326   0.000164
  244  P  4  Z   -0.000244  -0.000147   0.000147   0.000326  -0.000008
  245  P  4 XX   -0.000022  -0.000022  -0.000043  -0.000000   0.000200
  246  P  4 YY   -0.000022   0.000043   0.000022  -0.000000  -0.000399
  247  P  4 ZZ    0.000043  -0.000022   0.000022  -0.000000   0.000200
  248  P  4 XY    0.000076   0.000124  -0.000124  -0.000333  -0.000287
  249  P  4 XZ    0.000124   0.000076  -0.000124  -0.000333   0.000461
  250  P  4 YZ    0.000124   0.000124  -0.000076  -0.000333  -0.000287
  251  P  4 XXX   0.000038   0.000038  -0.000047  -0.000005  -0.000114
  252  P  4 YYY   0.000038   0.000047  -0.000038  -0.000005  -0.000091
  253  P  4 ZZZ   0.000047   0.000038  -0.000038  -0.000005  -0.000114
  254  P  4 XXY   0.000044  -0.000032   0.000095   0.000004   0.000061
  255  P  4 XXZ  -0.000032   0.000044   0.000095   0.000004  -0.000109
  256  P  4 YYX   0.000044  -0.000095   0.000032   0.000004   0.000262
  257  P  4 YYZ  -0.000032  -0.000095  -0.000044   0.000004   0.000262
  258  P  4 ZZX  -0.000095   0.000044   0.000032   0.000004  -0.000109
  259  P  4 ZZY  -0.000095  -0.000032  -0.000044   0.000004   0.000061
  260  P  4 XYZ  -0.000070  -0.000070   0.000070  -0.000092   0.000224

                     11         12         13         14         15
                   -5.4090    -5.4090    -5.4086    -5.4086    -5.4085
                     T2         T2         E          E          T2  
    1  P  1  S   -0.000171   0.000171  -0.000000   0.000000   0.000030
    2  P  1  S   -0.002958   0.002958  -0.000000   0.000000   0.000980
    3  P  1  S    0.000236  -0.000236  -0.000000   0.000000  -0.000525
    4  P  1  S    0.001509  -0.001509  -0.000000   0.000000  -0.001030
    5  P  1  S   -0.006579   0.006579  -0.000000   0.000000   0.006091
    6  P  1  X   -0.080163   0.334349   0.195898   0.339305   0.472686
    7  P  1  Y    0.334349  -0.334349  -0.195898   0.339305   0.057128
    8  P  1  Z    0.334349  -0.080163   0.391796   0.000000   0.057128
    9  P  1  X    0.001270  -0.000726  -0.000273  -0.000473  -0.001650
   10  P  1  Y   -0.000726   0.000726   0.000273  -0.000473   0.000317
   11  P  1  Z   -0.000726   0.001270  -0.000546   0.000000   0.000317
   12  P  1  X   -0.006734   0.027191   0.015863   0.027475   0.038462
   13  P  1  Y    0.027191  -0.027191  -0.015863   0.027475   0.004503
   14  P  1  Z    0.027191  -0.006734   0.031725   0.000000   0.004503
   15  P  1  X    0.002698  -0.000736   0.000742   0.001286  -0.002080
   16  P  1  Y   -0.000736   0.000736  -0.000742   0.001286   0.002218
   17  P  1  Z   -0.000736   0.002698   0.001485   0.000000   0.002218
   18  P  1 XX   -0.000223  -0.000111  -0.000129  -0.000224  -0.000150
   19  P  1 YY    0.000111  -0.000111  -0.000129   0.000224   0.000075
   20  P  1 ZZ    0.000111   0.000223   0.000259   0.000000   0.000075
   21  P  1 XY   -0.000119   0.000418   0.000166   0.000000   0.000116
   22  P  1 XZ   -0.000119   0.000119  -0.000083   0.000144   0.000116
   23  P  1 YZ    0.000418  -0.000119   0.000083   0.000144   0.000012
   24  P  1 XX   -0.000403  -0.000201   0.000261   0.000452   0.000530
   25  P  1 YY    0.000201  -0.000201   0.000261  -0.000452  -0.000265
   26  P  1 ZZ    0.000201   0.000403  -0.000522   0.000000  -0.000265
   27  P  1 XY    0.001056  -0.000471   0.000089   0.000000  -0.000862
   28  P  1 XZ    0.001056  -0.001056  -0.000045   0.000077  -0.000862
   29  P  1 YZ   -0.000471   0.001056   0.000045   0.000077  -0.000038
   30  P  1 XXX   0.000005   0.000052  -0.000064  -0.000111   0.000057
   31  P  1 YYY   0.000052  -0.000052   0.000064  -0.000111   0.000023
   32  P  1 ZZZ   0.000052   0.000005  -0.000128   0.000000   0.000023
   33  P  1 XXY  -0.000176  -0.000106  -0.000049   0.000071   0.000086
   34  P  1 XXZ  -0.000176  -0.000003   0.000086  -0.000007   0.000086
   35  P  1 YYX  -0.000003   0.000106   0.000049   0.000071  -0.000038
   36  P  1 YYZ   0.000106  -0.000003   0.000086   0.000007  -0.000117
   37  P  1 ZZX  -0.000003  -0.000176   0.000037   0.000078  -0.000038
   38  P  1 ZZY   0.000106   0.000176  -0.000037   0.000078  -0.000117
   39  P  1 XYZ   0.000057  -0.000057  -0.000000   0.000000   0.000090
   40  P  1 XX   -0.000165  -0.000082  -0.000205  -0.000356  -0.000377
   41  P  1 YY    0.000082  -0.000082  -0.000205   0.000356   0.000188
   42  P  1 ZZ    0.000082   0.000165   0.000411   0.000000   0.000188
   43  P  1 XY   -0.000309   0.000397   0.000163   0.000000   0.000241
   44  P  1 XZ   -0.000309   0.000309  -0.000081   0.000141   0.000241
   45  P  1 YZ    0.000397  -0.000309   0.000081   0.000141  -0.000011
   46  P  1  S   -0.001081   0.001081  -0.000000   0.000000   0.000729
   47  P  1  X    0.000164   0.000008   0.000121   0.000210  -0.000043
   48  P  1  Y    0.000008  -0.000008  -0.000121   0.000210   0.000166
   49  P  1  Z    0.000008   0.000164   0.000242   0.000000   0.000166
   50  P  1 XX   -0.000399  -0.000200  -0.000506  -0.000876  -0.000154
   51  P  1 YY    0.000200  -0.000200  -0.000506   0.000876   0.000077
   52  P  1 ZZ    0.000200   0.000399   0.001012   0.000000   0.000077
   53  P  1 XY    0.000287   0.000461   0.000336   0.000000  -0.000423
   54  P  1 XZ    0.000287  -0.000287  -0.000168   0.000291  -0.000423
   55  P  1 YZ    0.000461   0.000287   0.000168   0.000291   0.000791
   56  P  1 XXX  -0.000091   0.000114  -0.000082  -0.000142   0.000159
   57  P  1 YYY   0.000114  -0.000114   0.000082  -0.000142  -0.000065
   58  P  1 ZZZ   0.000114  -0.000091  -0.000164   0.000000  -0.000065
   59  P  1 XXY  -0.000262  -0.000109  -0.000215   0.000003   0.000025
   60  P  1 XXZ  -0.000262   0.000061   0.000110  -0.000185   0.000025
   61  P  1 YYX   0.000061   0.000109   0.000215   0.000003  -0.000107
   62  P  1 YYZ   0.000109   0.000061   0.000110   0.000185   0.000063
   63  P  1 ZZX   0.000061  -0.000262  -0.000105   0.000188  -0.000107
   64  P  1 ZZY   0.000109   0.000262   0.000105   0.000188   0.000063
   65  P  1 XYZ   0.000224  -0.000224  -0.000000   0.000000   0.000088
   66  P  2  S    0.000171   0.000171  -0.000000   0.000000  -0.000030
   67  P  2  S    0.002958   0.002958  -0.000000   0.000000  -0.000980
   68  P  2  S   -0.000236  -0.000236  -0.000000   0.000000   0.000525
   69  P  2  S   -0.001509  -0.001509  -0.000000   0.000000   0.001030
   70  P  2  S    0.006579   0.006579  -0.000000   0.000000  -0.006091
   71  P  2  X   -0.080163  -0.334349  -0.195898  -0.339305   0.472686
   72  P  2  Y    0.334349   0.334349   0.195898  -0.339305   0.057128
   73  P  2  Z   -0.334349  -0.080163   0.391796   0.000000  -0.057128
   74  P  2  X    0.001270   0.000726   0.000273   0.000473  -0.001650
   75  P  2  Y   -0.000726  -0.000726  -0.000273   0.000473   0.000317
   76  P  2  Z    0.000726   0.001270  -0.000546   0.000000  -0.000317
   77  P  2  X   -0.006734  -0.027191  -0.015863  -0.027475   0.038462
   78  P  2  Y    0.027191   0.027191   0.015863  -0.027475   0.004503
   79  P  2  Z   -0.027191  -0.006734   0.031725   0.000000  -0.004503
   80  P  2  X    0.002698   0.000736  -0.000742  -0.001286  -0.002080
   81  P  2  Y   -0.000736  -0.000736   0.000742  -0.001286   0.002218
   82  P  2  Z    0.000736   0.002698   0.001485   0.000000  -0.002218
   83  P  2 XX    0.000223  -0.000111  -0.000129  -0.000224   0.000150
   84  P  2 YY   -0.000111  -0.000111  -0.000129   0.000224  -0.000075
   85  P  2 ZZ   -0.000111   0.000223   0.000259   0.000000  -0.000075
   86  P  2 XY    0.000119   0.000418   0.000166   0.000000  -0.000116
   87  P  2 XZ   -0.000119  -0.000119   0.000083  -0.000144   0.000116
   88  P  2 YZ    0.000418   0.000119  -0.000083  -0.000144   0.000012
   89  P  2 XX    0.000403  -0.000201   0.000261   0.000452  -0.000530
   90  P  2 YY   -0.000201  -0.000201   0.000261  -0.000452   0.000265
   91  P  2 ZZ   -0.000201   0.000403  -0.000522   0.000000   0.000265
   92  P  2 XY   -0.001056  -0.000471   0.000089   0.000000   0.000862
   93  P  2 XZ    0.001056   0.001056   0.000045  -0.000077  -0.000862
   94  P  2 YZ   -0.000471  -0.001056  -0.000045  -0.000077  -0.000038
   95  P  2 XXX   0.000005  -0.000052   0.000064   0.000111   0.000057
   96  P  2 YYY   0.000052   0.000052  -0.000064   0.000111   0.000023
   97  P  2 ZZZ  -0.000052   0.000005  -0.000128   0.000000  -0.000023
   98  P  2 XXY  -0.000176   0.000106   0.000049  -0.000071   0.000086
   99  P  2 XXZ   0.000176  -0.000003   0.000086  -0.000007  -0.000086
  100  P  2 YYX  -0.000003  -0.000106  -0.000049  -0.000071  -0.000038
  101  P  2 YYZ  -0.000106  -0.000003   0.000086   0.000007   0.000117
  102  P  2 ZZX  -0.000003   0.000176  -0.000037  -0.000078  -0.000038
  103  P  2 ZZY   0.000106  -0.000176   0.000037  -0.000078  -0.000117
  104  P  2 XYZ  -0.000057  -0.000057  -0.000000   0.000000  -0.000090
  105  P  2 XX    0.000165  -0.000082  -0.000205  -0.000356   0.000377
  106  P  2 YY   -0.000082  -0.000082  -0.000205   0.000356  -0.000188
  107  P  2 ZZ   -0.000082   0.000165   0.000411   0.000000  -0.000188
  108  P  2 XY    0.000309   0.000397   0.000163   0.000000  -0.000241
  109  P  2 XZ   -0.000309  -0.000309   0.000081  -0.000141   0.000241
  110  P  2 YZ    0.000397   0.000309  -0.000081  -0.000141  -0.000011
  111  P  2  S    0.001081   0.001081  -0.000000   0.000000  -0.000729
  112  P  2  X    0.000164  -0.000008  -0.000121  -0.000210  -0.000043
  113  P  2  Y    0.000008   0.000008   0.000121  -0.000210   0.000166
  114  P  2  Z   -0.000008   0.000164   0.000242   0.000000  -0.000166
  115  P  2 XX    0.000399  -0.000200  -0.000506  -0.000876   0.000154
  116  P  2 YY   -0.000200  -0.000200  -0.000506   0.000876  -0.000077
  117  P  2 ZZ   -0.000200   0.000399   0.001012   0.000000  -0.000077
  118  P  2 XY   -0.000287   0.000461   0.000336   0.000000   0.000423
  119  P  2 XZ    0.000287   0.000287   0.000168  -0.000291  -0.000423
  120  P  2 YZ    0.000461  -0.000287  -0.000168  -0.000291   0.000791
  121  P  2 XXX  -0.000091  -0.000114   0.000082   0.000142   0.000159
  122  P  2 YYY   0.000114   0.000114  -0.000082   0.000142  -0.000065
  123  P  2 ZZZ  -0.000114  -0.000091  -0.000164   0.000000   0.000065
  124  P  2 XXY  -0.000262   0.000109   0.000215  -0.000003   0.000025
  125  P  2 XXZ   0.000262   0.000061   0.000110  -0.000185  -0.000025
  126  P  2 YYX   0.000061  -0.000109  -0.000215  -0.000003  -0.000107
  127  P  2 YYZ  -0.000109   0.000061   0.000110   0.000185  -0.000063
  128  P  2 ZZX   0.000061   0.000262   0.000105  -0.000188  -0.000107
  129  P  2 ZZY   0.000109  -0.000262  -0.000105  -0.000188   0.000063
  130  P  2 XYZ  -0.000224  -0.000224  -0.000000   0.000000  -0.000088
  131  P  3  S    0.000171  -0.000171  -0.000000   0.000000  -0.000030
  132  P  3  S    0.002958  -0.002958  -0.000000   0.000000  -0.000980
  133  P  3  S   -0.000236   0.000236  -0.000000   0.000000   0.000525
  134  P  3  S   -0.001509   0.001509  -0.000000   0.000000   0.001030
  135  P  3  S    0.006579  -0.006579  -0.000000   0.000000  -0.006091
  136  P  3  X   -0.080163   0.334349  -0.195898  -0.339305   0.472686
  137  P  3  Y   -0.334349   0.334349  -0.195898   0.339305  -0.057128
  138  P  3  Z    0.334349  -0.080163  -0.391796   0.000000   0.057128
  139  P  3  X    0.001270  -0.000726   0.000273   0.000473  -0.001650
  140  P  3  Y    0.000726  -0.000726   0.000273  -0.000473  -0.000317
  141  P  3  Z   -0.000726   0.001270   0.000546   0.000000   0.000317
  142  P  3  X   -0.006734   0.027191  -0.015863  -0.027475   0.038462
  143  P  3  Y   -0.027191   0.027191  -0.015863   0.027475  -0.004503
  144  P  3  Z    0.027191  -0.006734  -0.031725   0.000000   0.004503
  145  P  3  X    0.002698  -0.000736  -0.000742  -0.001286  -0.002080
  146  P  3  Y    0.000736  -0.000736  -0.000742   0.001286  -0.002218
  147  P  3  Z   -0.000736   0.002698  -0.001485   0.000000   0.002218
  148  P  3 XX    0.000223   0.000111  -0.000129  -0.000224   0.000150
  149  P  3 YY   -0.000111   0.000111  -0.000129   0.000224  -0.000075
  150  P  3 ZZ   -0.000111  -0.000223   0.000259   0.000000  -0.000075
  151  P  3 XY   -0.000119   0.000418  -0.000166   0.000000   0.000116
  152  P  3 XZ    0.000119  -0.000119  -0.000083   0.000144  -0.000116
  153  P  3 YZ    0.000418  -0.000119  -0.000083  -0.000144   0.000012
  154  P  3 XX    0.000403   0.000201   0.000261   0.000452  -0.000530
  155  P  3 YY   -0.000201   0.000201   0.000261  -0.000452   0.000265
  156  P  3 ZZ   -0.000201  -0.000403  -0.000522   0.000000   0.000265
  157  P  3 XY    0.001056  -0.000471  -0.000089   0.000000  -0.000862
  158  P  3 XZ   -0.001056   0.001056  -0.000045   0.000077   0.000862
  159  P  3 YZ   -0.000471   0.001056  -0.000045  -0.000077  -0.000038
  160  P  3 XXX   0.000005   0.000052   0.000064   0.000111   0.000057
  161  P  3 YYY  -0.000052   0.000052   0.000064  -0.000111  -0.000023
  162  P  3 ZZZ   0.000052   0.000005   0.000128   0.000000   0.000023
  163  P  3 XXY   0.000176   0.000106  -0.000049   0.000071  -0.000086
  164  P  3 XXZ  -0.000176  -0.000003  -0.000086   0.000007   0.000086
  165  P  3 YYX  -0.000003   0.000106  -0.000049  -0.000071  -0.000038
  166  P  3 YYZ   0.000106  -0.000003  -0.000086  -0.000007  -0.000117
  167  P  3 ZZX  -0.000003  -0.000176  -0.000037  -0.000078  -0.000038
  168  P  3 ZZY  -0.000106  -0.000176  -0.000037   0.000078   0.000117
  169  P  3 XYZ  -0.000057   0.000057  -0.000000   0.000000  -0.000090
  170  P  3 XX    0.000165   0.000082  -0.000205  -0.000356   0.000377
  171  P  3 YY   -0.000082   0.000082  -0.000205   0.000356  -0.000188
  172  P  3 ZZ   -0.000082  -0.000165   0.000411   0.000000  -0.000188
  173  P  3 XY   -0.000309   0.000397  -0.000163   0.000000   0.000241
  174  P  3 XZ    0.000309  -0.000309  -0.000081   0.000141  -0.000241
  175  P  3 YZ    0.000397  -0.000309  -0.000081  -0.000141  -0.000011
  176  P  3  S    0.001081  -0.001081  -0.000000   0.000000  -0.000729
  177  P  3  X    0.000164   0.000008  -0.000121  -0.000210  -0.000043
  178  P  3  Y   -0.000008   0.000008  -0.000121   0.000210  -0.000166
  179  P  3  Z    0.000008   0.000164  -0.000242   0.000000   0.000166
  180  P  3 XX    0.000399   0.000200  -0.000506  -0.000876   0.000154
  181  P  3 YY   -0.000200   0.000200  -0.000506   0.000876  -0.000077
  182  P  3 ZZ   -0.000200  -0.000399   0.001012   0.000000  -0.000077
  183  P  3 XY    0.000287   0.000461  -0.000336   0.000000  -0.000423
  184  P  3 XZ   -0.000287   0.000287  -0.000168   0.000291   0.000423
  185  P  3 YZ    0.000461   0.000287  -0.000168  -0.000291   0.000791
  186  P  3 XXX  -0.000091   0.000114   0.000082   0.000142   0.000159
  187  P  3 YYY  -0.000114   0.000114   0.000082  -0.000142   0.000065
  188  P  3 ZZZ   0.000114  -0.000091   0.000164   0.000000  -0.000065
  189  P  3 XXY   0.000262   0.000109  -0.000215   0.000003  -0.000025
  190  P  3 XXZ  -0.000262   0.000061  -0.000110   0.000185   0.000025
  191  P  3 YYX   0.000061   0.000109  -0.000215  -0.000003  -0.000107
  192  P  3 YYZ   0.000109   0.000061  -0.000110  -0.000185   0.000063
  193  P  3 ZZX   0.000061  -0.000262   0.000105  -0.000188  -0.000107
  194  P  3 ZZY  -0.000109  -0.000262   0.000105   0.000188  -0.000063
  195  P  3 XYZ  -0.000224   0.000224  -0.000000   0.000000  -0.000088
  196  P  4  S   -0.000171  -0.000171  -0.000000   0.000000   0.000030
  197  P  4  S   -0.002958  -0.002958  -0.000000   0.000000   0.000980
  198  P  4  S    0.000236   0.000236  -0.000000   0.000000  -0.000525
  199  P  4  S    0.001509   0.001509  -0.000000   0.000000  -0.001030
  200  P  4  S   -0.006579  -0.006579  -0.000000   0.000000   0.006091
  201  P  4  X   -0.080163  -0.334349   0.195898   0.339305   0.472686
  202  P  4  Y   -0.334349  -0.334349   0.195898  -0.339305  -0.057128
  203  P  4  Z   -0.334349  -0.080163  -0.391796   0.000000  -0.057128
  204  P  4  X    0.001270   0.000726  -0.000273  -0.000473  -0.001650
  205  P  4  Y    0.000726   0.000726  -0.000273   0.000473  -0.000317
  206  P  4  Z    0.000726   0.001270   0.000546   0.000000  -0.000317
  207  P  4  X   -0.006734  -0.027191   0.015863   0.027475   0.038462
  208  P  4  Y   -0.027191  -0.027191   0.015863  -0.027475  -0.004503
  209  P  4  Z   -0.027191  -0.006734  -0.031725   0.000000  -0.004503
  210  P  4  X    0.002698   0.000736   0.000742   0.001286  -0.002080
  211  P  4  Y    0.000736   0.000736   0.000742  -0.001286  -0.002218
  212  P  4  Z    0.000736   0.002698  -0.001485   0.000000  -0.002218
  213  P  4 XX   -0.000223   0.000111  -0.000129  -0.000224  -0.000150
  214  P  4 YY    0.000111   0.000111  -0.000129   0.000224   0.000075
  215  P  4 ZZ    0.000111  -0.000223   0.000259   0.000000   0.000075
  216  P  4 XY    0.000119   0.000418  -0.000166   0.000000  -0.000116
  217  P  4 XZ    0.000119   0.000119   0.000083  -0.000144  -0.000116
  218  P  4 YZ    0.000418   0.000119   0.000083   0.000144   0.000012
  219  P  4 XX   -0.000403   0.000201   0.000261   0.000452   0.000530
  220  P  4 YY    0.000201   0.000201   0.000261  -0.000452  -0.000265
  221  P  4 ZZ    0.000201  -0.000403  -0.000522   0.000000  -0.000265
  222  P  4 XY   -0.001056  -0.000471  -0.000089   0.000000   0.000862
  223  P  4 XZ   -0.001056  -0.001056   0.000045  -0.000077   0.000862
  224  P  4 YZ   -0.000471  -0.001056   0.000045   0.000077  -0.000038
  225  P  4 XXX   0.000005  -0.000052  -0.000064  -0.000111   0.000057
  226  P  4 YYY  -0.000052  -0.000052  -0.000064   0.000111  -0.000023
  227  P  4 ZZZ  -0.000052   0.000005   0.000128   0.000000  -0.000023
  228  P  4 XXY   0.000176  -0.000106   0.000049  -0.000071  -0.000086
  229  P  4 XXZ   0.000176  -0.000003  -0.000086   0.000007  -0.000086
  230  P  4 YYX  -0.000003  -0.000106   0.000049   0.000071  -0.000038
  231  P  4 YYZ  -0.000106  -0.000003  -0.000086  -0.000007   0.000117
  232  P  4 ZZX  -0.000003   0.000176   0.000037   0.000078  -0.000038
  233  P  4 ZZY  -0.000106   0.000176   0.000037  -0.000078   0.000117
  234  P  4 XYZ   0.000057   0.000057  -0.000000   0.000000   0.000090
  235  P  4 XX   -0.000165   0.000082  -0.000205  -0.000356  -0.000377
  236  P  4 YY    0.000082   0.000082  -0.000205   0.000356   0.000188
  237  P  4 ZZ    0.000082  -0.000165   0.000411   0.000000   0.000188
  238  P  4 XY    0.000309   0.000397  -0.000163   0.000000  -0.000241
  239  P  4 XZ    0.000309   0.000309   0.000081  -0.000141  -0.000241
  240  P  4 YZ    0.000397   0.000309   0.000081   0.000141  -0.000011
  241  P  4  S   -0.001081  -0.001081  -0.000000   0.000000   0.000729
  242  P  4  X    0.000164  -0.000008   0.000121   0.000210  -0.000043
  243  P  4  Y   -0.000008  -0.000008   0.000121  -0.000210  -0.000166
  244  P  4  Z   -0.000008   0.000164  -0.000242   0.000000  -0.000166
  245  P  4 XX   -0.000399   0.000200  -0.000506  -0.000876  -0.000154
  246  P  4 YY    0.000200   0.000200  -0.000506   0.000876   0.000077
  247  P  4 ZZ    0.000200  -0.000399   0.001012   0.000000   0.000077
  248  P  4 XY   -0.000287   0.000461  -0.000336   0.000000   0.000423
  249  P  4 XZ   -0.000287  -0.000287   0.000168  -0.000291   0.000423
  250  P  4 YZ    0.000461  -0.000287   0.000168   0.000291   0.000791
  251  P  4 XXX  -0.000091  -0.000114  -0.000082  -0.000142   0.000159
  252  P  4 YYY  -0.000114  -0.000114  -0.000082   0.000142   0.000065
  253  P  4 ZZZ  -0.000114  -0.000091   0.000164   0.000000   0.000065
  254  P  4 XXY   0.000262  -0.000109   0.000215  -0.000003  -0.000025
[...]
   95  P  2 XXX  -0.000032  -0.000228  -0.000000   0.000342  -0.000228
   96  P  2 YYY   0.000342  -0.000228   0.000228  -0.000032   0.000000
   97  P  2 ZZZ  -0.000342  -0.000000   0.000228   0.000342   0.000228
   98  P  2 XXY   0.000574  -0.000021  -0.000327   0.000022  -0.000798
   99  P  2 XXZ  -0.000574   0.000798  -0.000327  -0.001034   0.000021
  100  P  2 YYX   0.000022  -0.000021   0.000798   0.000574   0.000327
  101  P  2 YYZ   0.001034  -0.000798   0.000021   0.000574  -0.000327
  102  P  2 ZZX   0.000022   0.000327  -0.000798  -0.001034  -0.000021
  103  P  2 ZZY  -0.001034   0.000327   0.000021   0.000022   0.000798
  104  P  2 XYZ   0.000200   0.000000   0.000000  -0.000200   0.000000
  105  P  2 XX    0.000270  -0.000086   0.000000   0.000135  -0.000086
  106  P  2 YY   -0.000135   0.000086  -0.000086  -0.000270  -0.000000
  107  P  2 ZZ   -0.000135  -0.000000   0.000086   0.000135   0.000086
  108  P  2 XY   -0.000017  -0.000000   0.000132   0.000017   0.000132
  109  P  2 XZ    0.000017  -0.000132   0.000132   0.000502  -0.000000
  110  P  2 YZ    0.000502  -0.000132   0.000000   0.000017  -0.000132
  111  P  2  S   -0.022371  -0.000000  -0.000000   0.022371  -0.000000
  112  P  2  X   -0.017533  -0.008209  -0.000000  -0.012076  -0.008209
  113  P  2  Y   -0.012076  -0.008209   0.008209  -0.017534  -0.000000
  114  P  2  Z    0.012076   0.000000   0.008209  -0.012076   0.008209
  115  P  2 XX   -0.007913  -0.005127  -0.000000  -0.003957  -0.005127
  116  P  2 YY    0.003957   0.005127  -0.005127   0.007913   0.000000
  117  P  2 ZZ    0.003957   0.000000   0.005127  -0.003957   0.005127
  118  P  2 XY    0.003986   0.000000   0.006391  -0.003986   0.006391
  119  P  2 XZ   -0.003986  -0.006391   0.006391  -0.008220  -0.000000
  120  P  2 YZ   -0.008220  -0.006391  -0.000000  -0.003986  -0.006391
  121  P  2 XXX  -0.000720   0.000819  -0.000000  -0.000594   0.000819
  122  P  2 YYY  -0.000594   0.000819  -0.000819  -0.000720  -0.000000
  123  P  2 ZZZ   0.000594   0.000000  -0.000819  -0.000594  -0.000819
  124  P  2 XXY  -0.001525  -0.000568   0.000530   0.000483   0.000707
  125  P  2 XXZ   0.001525  -0.000707   0.000530   0.002321   0.000568
  126  P  2 YYX   0.000483  -0.000568  -0.000707  -0.001525  -0.000530
  127  P  2 YYZ  -0.002321   0.000707   0.000568  -0.001525   0.000530
  128  P  2 ZZX   0.000483  -0.000530   0.000707   0.002321  -0.000568
  129  P  2 ZZY   0.002321  -0.000530   0.000568   0.000483  -0.000707
  130  P  2 XYZ  -0.002802  -0.000000  -0.000000   0.002802  -0.000000
  131  P  3  S   -0.009084   0.009084  -0.000000   0.000000   0.009084
  132  P  3  S   -0.074112   0.074112  -0.000000   0.000000   0.074112
  133  P  3  S   -0.309834   0.309834  -0.000000   0.000000   0.309834
  134  P  3  S   -0.040764   0.040764  -0.000000   0.000000   0.040764
  135  P  3  S   -0.155991   0.155990  -0.000000   0.000000   0.155990
  136  P  3  X    0.002433   0.020324   0.000000  -0.001306   0.020324
  137  P  3  Y   -0.020324   0.020324  -0.001306   0.000000  -0.002433
  138  P  3  Z    0.020324   0.002433  -0.001306  -0.001306  -0.020324
  139  P  3  X    0.163545   0.379429   0.000000   0.019561   0.379429
  140  P  3  Y   -0.379429   0.379429   0.019561   0.000000  -0.163546
  141  P  3  Z    0.379429   0.163546   0.019561   0.019561  -0.379429
  142  P  3  X    0.045367   0.105331   0.000000   0.005705   0.105331
  143  P  3  Y   -0.105331   0.105331   0.005705   0.000000  -0.045368
  144  P  3  Z    0.105331   0.045368   0.005705   0.005705  -0.105331
  145  P  3  X    0.146939   0.270611   0.000000   0.031581   0.270611
  146  P  3  Y   -0.270611   0.270611   0.031581   0.000000  -0.146939
  147  P  3  Z    0.270611   0.146939   0.031581   0.031581  -0.270610
  148  P  3 XX    0.001514   0.000757   0.000000  -0.000498   0.000757
  149  P  3 YY   -0.000757   0.000757  -0.000498   0.000000  -0.001514
  150  P  3 ZZ   -0.000757  -0.001514   0.000498   0.000498   0.000757
  151  P  3 XY    0.000165   0.002696  -0.000730  -0.000730  -0.000165
  152  P  3 XZ   -0.000165   0.000165  -0.000730  -0.000000  -0.002696
  153  P  3 YZ    0.002696   0.000165   0.000000  -0.000730   0.000165
  154  P  3 XX   -0.006066  -0.003033  -0.000000   0.000834  -0.003033
  155  P  3 YY    0.003033  -0.003033   0.000834  -0.000000   0.006066
  156  P  3 ZZ    0.003033   0.006066  -0.000834  -0.000834  -0.003033
  157  P  3 XY   -0.001107  -0.010478   0.001644   0.001644   0.001107
  158  P  3 XZ    0.001107  -0.001107   0.001644  -0.000000   0.010478
  159  P  3 YZ   -0.010478  -0.001107  -0.000000   0.001644  -0.001107
  160  P  3 XXX   0.000032  -0.000342  -0.000000   0.000228  -0.000342
  161  P  3 YYY   0.000342  -0.000342   0.000228  -0.000000  -0.000032
  162  P  3 ZZZ  -0.000342   0.000032   0.000228   0.000228   0.000342
  163  P  3 XXY   0.000574   0.001034  -0.000327  -0.000798   0.000022
  164  P  3 XXZ  -0.000574  -0.000022  -0.000327   0.000021  -0.001034
  165  P  3 YYX  -0.000022   0.001034  -0.000798  -0.000327  -0.000574
  166  P  3 YYZ   0.001034  -0.000022   0.000021  -0.000327   0.000574
  167  P  3 ZZX  -0.000022  -0.000574   0.000798   0.000021   0.001034
  168  P  3 ZZY  -0.001034  -0.000574   0.000021   0.000798   0.000022
  169  P  3 XYZ  -0.000200   0.000200  -0.000000   0.000000   0.000200
  170  P  3 XX   -0.000270  -0.000135  -0.000000   0.000086  -0.000135
  171  P  3 YY    0.000135  -0.000135   0.000086  -0.000000   0.000270
  172  P  3 ZZ    0.000135   0.000270  -0.000086  -0.000086  -0.000135
  173  P  3 XY   -0.000017  -0.000502   0.000132   0.000132   0.000017
  174  P  3 XZ    0.000017  -0.000017   0.000132   0.000000   0.000502
  175  P  3 YZ   -0.000502  -0.000017  -0.000000   0.000132  -0.000017
  176  P  3  S    0.022371  -0.022371   0.000000  -0.000000  -0.022371
  177  P  3  X    0.017533   0.012076   0.000000   0.008209   0.012076
  178  P  3  Y   -0.012076   0.012076   0.008209   0.000000  -0.017534
  179  P  3  Z    0.012076   0.017534   0.008209   0.008209  -0.012076
  180  P  3 XX    0.007913   0.003957   0.000000   0.005127   0.003957
  181  P  3 YY   -0.003957   0.003957   0.005127   0.000000  -0.007913
  182  P  3 ZZ   -0.003957  -0.007913  -0.005127  -0.005127   0.003957
  183  P  3 XY    0.003986   0.008220   0.006391   0.006391  -0.003986
  184  P  3 XZ   -0.003986   0.003986   0.006391   0.000000  -0.008220
  185  P  3 YZ    0.008220   0.003986   0.000000   0.006391   0.003986
  186  P  3 XXX   0.000720   0.000594   0.000000  -0.000819   0.000594
  187  P  3 YYY  -0.000594   0.000594  -0.000819   0.000000  -0.000720
  188  P  3 ZZZ   0.000594   0.000720  -0.000819  -0.000819  -0.000594
  189  P  3 XXY  -0.001525  -0.002321   0.000530   0.000707   0.000483
  190  P  3 XXZ   0.001525  -0.000483   0.000530   0.000568   0.002321
  191  P  3 YYX  -0.000483  -0.002321   0.000707   0.000530   0.001525
  192  P  3 YYZ  -0.002321  -0.000483   0.000568   0.000530  -0.001525
  193  P  3 ZZX  -0.000483   0.001525  -0.000707   0.000568  -0.002321
  194  P  3 ZZY   0.002321   0.001525   0.000568  -0.000707   0.000483
  195  P  3 XYZ   0.002802  -0.002802   0.000000  -0.000000  -0.002802
  196  P  4  S   -0.000000  -0.009084   0.009084   0.009084  -0.000000
  197  P  4  S   -0.000000  -0.074112   0.074112   0.074112  -0.000000
  198  P  4  S   -0.000000  -0.309834   0.309834   0.309834  -0.000000
  199  P  4  S   -0.000000  -0.040764   0.040764   0.040764  -0.000000
  200  P  4  S   -0.000000  -0.155990   0.155990   0.155990  -0.000000
  201  P  4  X   -0.000000   0.020324   0.002433  -0.020324   0.001306
  202  P  4  Y   -0.001306   0.020324  -0.020324   0.002433  -0.000000
  203  P  4  Z    0.001306  -0.002433  -0.020324  -0.020324  -0.001306
  204  P  4  X   -0.000000   0.379429   0.163546  -0.379429  -0.019561
  205  P  4  Y    0.019561   0.379429  -0.379429   0.163546   0.000000
  206  P  4  Z   -0.019561  -0.163546  -0.379429  -0.379429   0.019561
  207  P  4  X   -0.000000   0.105331   0.045368  -0.105331  -0.005705
  208  P  4  Y    0.005705   0.105331  -0.105331   0.045368   0.000000
  209  P  4  Z   -0.005705  -0.045368  -0.105331  -0.105331   0.005705
  210  P  4  X   -0.000000   0.270611   0.146939  -0.270611  -0.031581
  211  P  4  Y    0.031581   0.270611  -0.270611   0.146939   0.000000
  212  P  4  Z   -0.031581  -0.146939  -0.270611  -0.270611   0.031581
  213  P  4 XX    0.000000  -0.000757  -0.001514   0.000757  -0.000498
  214  P  4 YY    0.000498  -0.000757   0.000757  -0.001514   0.000000
  215  P  4 ZZ   -0.000498   0.001514   0.000757   0.000757   0.000498
  216  P  4 XY    0.000730  -0.002696  -0.000165  -0.000165  -0.000730
  217  P  4 XZ   -0.000730   0.000165  -0.000165   0.002696  -0.000000
  218  P  4 YZ   -0.000000   0.000165   0.002696  -0.000165   0.000730
  219  P  4 XX   -0.000000   0.003033   0.006066  -0.003033   0.000834
  220  P  4 YY   -0.000834   0.003033  -0.003033   0.006066  -0.000000
  221  P  4 ZZ    0.000834  -0.006066  -0.003033  -0.003033  -0.000834
  222  P  4 XY   -0.001644   0.010478   0.001107   0.001107   0.001644
  223  P  4 XZ    0.001644  -0.001107   0.001107  -0.010478   0.000000
  224  P  4 YZ    0.000000  -0.001107  -0.010478   0.001107  -0.001644
  225  P  4 XXX   0.000000  -0.000342   0.000032   0.000342  -0.000228
  226  P  4 YYY   0.000228  -0.000342   0.000342   0.000032   0.000000
  227  P  4 ZZZ  -0.000228  -0.000032   0.000342   0.000342   0.000228
  228  P  4 XXY  -0.000327   0.001034   0.000574  -0.000022   0.000798
  229  P  4 XXZ   0.000327   0.000022   0.000574  -0.001034   0.000021
  230  P  4 YYX  -0.000798   0.001034  -0.000022   0.000574   0.000327
  231  P  4 YYZ  -0.000021   0.000022  -0.001034   0.000574  -0.000327
  232  P  4 ZZX   0.000798  -0.000574  -0.000022  -0.001034  -0.000021
  233  P  4 ZZY   0.000021  -0.000574  -0.001034  -0.000022  -0.000798
  234  P  4 XYZ  -0.000000  -0.000200   0.000200   0.000200  -0.000000
  235  P  4 XX   -0.000000   0.000135   0.000270  -0.000135   0.000086
  236  P  4 YY   -0.000086   0.000135  -0.000135   0.000270  -0.000000
  237  P  4 ZZ    0.000086  -0.000270  -0.000135  -0.000135  -0.000086
  238  P  4 XY   -0.000132   0.000502   0.000017   0.000017   0.000132
  239  P  4 XZ    0.000132  -0.000017   0.000017  -0.000502   0.000000
  240  P  4 YZ    0.000000  -0.000017  -0.000502   0.000017  -0.000132
  241  P  4  S    0.000000   0.022371  -0.022371  -0.022371   0.000000
  242  P  4  X   -0.000000   0.012076   0.017533  -0.012076  -0.008209
  243  P  4  Y    0.008209   0.012076  -0.012076   0.017534   0.000000
  244  P  4  Z   -0.008209  -0.017533  -0.012076  -0.012076   0.008209
  245  P  4 XX    0.000000  -0.003957  -0.007913   0.003957   0.005127
  246  P  4 YY   -0.005127  -0.003957   0.003957  -0.007913  -0.000000
  247  P  4 ZZ    0.005127   0.007913   0.003957   0.003957  -0.005127
  248  P  4 XY   -0.006391  -0.008220  -0.003986  -0.003986   0.006391
  249  P  4 XZ    0.006391   0.003986  -0.003986   0.008220   0.000000
  250  P  4 YZ   -0.000000   0.003986   0.008220  -0.003986  -0.006391
  251  P  4 XXX  -0.000000   0.000594   0.000720  -0.000594   0.000819
  252  P  4 YYY  -0.000819   0.000594  -0.000594   0.000720  -0.000000
  253  P  4 ZZZ   0.000819  -0.000720  -0.000594  -0.000594  -0.000819
  254  P  4 XXY   0.000530  -0.002321  -0.001525  -0.000483  -0.000707
  255  P  4 XXZ  -0.000530   0.000483  -0.001525   0.002321   0.000568
  256  P  4 YYX   0.000707  -0.002321  -0.000483  -0.001525  -0.000530
  257  P  4 YYZ  -0.000568   0.000483   0.002321  -0.001525   0.000530
  258  P  4 ZZX  -0.000707   0.001525  -0.000483   0.002321  -0.000568
  259  P  4 ZZY   0.000568   0.001525   0.002321  -0.000483   0.000707
  260  P  4 XYZ   0.000000   0.002802  -0.002802  -0.002802   0.000000

                     36

    1  P  1  S    0.009084
    2  P  1  S    0.074112
    3  P  1  S    0.309834
    4  P  1  S    0.040764
    5  P  1  S    0.155990
    6  P  1  X   -0.020324
    7  P  1  Y    0.020324
    8  P  1  Z   -0.002433
    9  P  1  X   -0.379429
   10  P  1  Y    0.379429
   11  P  1  Z   -0.163546
   12  P  1  X   -0.105331
   13  P  1  Y    0.105331
   14  P  1  Z   -0.045368
   15  P  1  X   -0.270611
   16  P  1  Y    0.270611
   17  P  1  Z   -0.146939
   18  P  1 XX    0.000757
   19  P  1 YY    0.000757
   20  P  1 ZZ   -0.001514
   21  P  1 XY   -0.002696
   22  P  1 XZ    0.000165
   23  P  1 YZ   -0.000165
   24  P  1 XX   -0.003033
   25  P  1 YY   -0.003033
   26  P  1 ZZ    0.006066
   27  P  1 XY    0.010478
   28  P  1 XZ   -0.001107
   29  P  1 YZ    0.001107
   30  P  1 XXX   0.000342
   31  P  1 YYY  -0.000342
   32  P  1 ZZZ  -0.000032
   33  P  1 XXY   0.001034
   34  P  1 XXZ   0.000022
   35  P  1 YYX  -0.001034
   36  P  1 YYZ   0.000022
   37  P  1 ZZX   0.000574
   38  P  1 ZZY  -0.000574
   39  P  1 XYZ   0.000200
   40  P  1 XX   -0.000135
   41  P  1 YY   -0.000135
   42  P  1 ZZ    0.000270
   43  P  1 XY    0.000502
   44  P  1 XZ   -0.000017
   45  P  1 YZ    0.000017
   46  P  1  S   -0.022371
   47  P  1  X   -0.012076
   48  P  1  Y    0.012076
   49  P  1  Z   -0.017534
   50  P  1 XX    0.003957
   51  P  1 YY    0.003957
   52  P  1 ZZ   -0.007913
   53  P  1 XY   -0.008220
   54  P  1 XZ    0.003986
   55  P  1 YZ   -0.003986
   56  P  1 XXX  -0.000594
   57  P  1 YYY   0.000594
   58  P  1 ZZZ  -0.000720
   59  P  1 XXY  -0.002321
   60  P  1 XXZ   0.000483
   61  P  1 YYX   0.002321
   62  P  1 YYZ   0.000483
   63  P  1 ZZX  -0.001525
   64  P  1 ZZY   0.001525
   65  P  1 XYZ  -0.002802
   66  P  2  S   -0.009084
   67  P  2  S   -0.074112
   68  P  2  S   -0.309834
   69  P  2  S   -0.040764
   70  P  2  S   -0.155990
   71  P  2  X   -0.020324
   72  P  2  Y    0.020324
   73  P  2  Z    0.002433
   74  P  2  X   -0.379429
   75  P  2  Y    0.379429
   76  P  2  Z    0.163546
   77  P  2  X   -0.105331
   78  P  2  Y    0.105331
   79  P  2  Z    0.045368
   80  P  2  X   -0.270611
   81  P  2  Y    0.270611
   82  P  2  Z    0.146939
   83  P  2 XX   -0.000757
   84  P  2 YY   -0.000757
   85  P  2 ZZ    0.001514
   86  P  2 XY    0.002696
   87  P  2 XZ    0.000165
   88  P  2 YZ   -0.000165
   89  P  2 XX    0.003033
   90  P  2 YY    0.003033
   91  P  2 ZZ   -0.006066
   92  P  2 XY   -0.010478
   93  P  2 XZ   -0.001107
   94  P  2 YZ    0.001107
   95  P  2 XXX   0.000342
   96  P  2 YYY  -0.000342
   97  P  2 ZZZ   0.000032
   98  P  2 XXY   0.001034
   99  P  2 XXZ  -0.000022
  100  P  2 YYX  -0.001034
  101  P  2 YYZ  -0.000022
  102  P  2 ZZX   0.000574
  103  P  2 ZZY  -0.000574
  104  P  2 XYZ  -0.000200
  105  P  2 XX    0.000135
  106  P  2 YY    0.000135
  107  P  2 ZZ   -0.000270
  108  P  2 XY   -0.000502
  109  P  2 XZ   -0.000017
  110  P  2 YZ    0.000017
  111  P  2  S    0.022371
  112  P  2  X   -0.012076
  113  P  2  Y    0.012076
  114  P  2  Z    0.017534
  115  P  2 XX   -0.003957
  116  P  2 YY   -0.003957
  117  P  2 ZZ    0.007913
  118  P  2 XY    0.008220
  119  P  2 XZ    0.003986
  120  P  2 YZ   -0.003986
  121  P  2 XXX  -0.000594
  122  P  2 YYY   0.000594
  123  P  2 ZZZ   0.000720
  124  P  2 XXY  -0.002321
  125  P  2 XXZ  -0.000483
  126  P  2 YYX   0.002321
  127  P  2 YYZ  -0.000483
  128  P  2 ZZX  -0.001525
  129  P  2 ZZY   0.001525
  130  P  2 XYZ   0.002802
  131  P  3  S   -0.000000
  132  P  3  S   -0.000000
  133  P  3  S   -0.000000
  134  P  3  S   -0.000000
  135  P  3  S   -0.000000
  136  P  3  X   -0.001306
  137  P  3  Y    0.001306
  138  P  3  Z    0.000000
  139  P  3  X    0.019561
  140  P  3  Y   -0.019561
  141  P  3  Z    0.000000
  142  P  3  X    0.005705
  143  P  3  Y   -0.005705
  144  P  3  Z    0.000000
  145  P  3  X    0.031581
  146  P  3  Y   -0.031581
  147  P  3  Z    0.000000
  148  P  3 XX   -0.000498
  149  P  3 YY    0.000498
  150  P  3 ZZ    0.000000
  151  P  3 XY   -0.000000
  152  P  3 XZ    0.000730
  153  P  3 YZ   -0.000730
  154  P  3 XX    0.000834
  155  P  3 YY   -0.000834
  156  P  3 ZZ   -0.000000
  157  P  3 XY    0.000000
  158  P  3 XZ   -0.001644
  159  P  3 YZ    0.001644
  160  P  3 XXX   0.000228
  161  P  3 YYY  -0.000228
  162  P  3 ZZZ  -0.000000
  163  P  3 XXY  -0.000021
  164  P  3 XXZ   0.000798
  165  P  3 YYX   0.000021
  166  P  3 YYZ  -0.000798
  167  P  3 ZZX  -0.000327
  168  P  3 ZZY   0.000327
  169  P  3 XYZ  -0.000000
  170  P  3 XX    0.000086
  171  P  3 YY   -0.000086
  172  P  3 ZZ   -0.000000
  173  P  3 XY    0.000000
  174  P  3 XZ   -0.000132
  175  P  3 YZ    0.000132
  176  P  3  S    0.000000
  177  P  3  X    0.008209
  178  P  3  Y   -0.008209
  179  P  3  Z    0.000000
  180  P  3 XX    0.005127
  181  P  3 YY   -0.005127
  182  P  3 ZZ   -0.000000
  183  P  3 XY    0.000000
  184  P  3 XZ   -0.006391
  185  P  3 YZ    0.006391
  186  P  3 XXX  -0.000819
  187  P  3 YYY   0.000819
  188  P  3 ZZZ  -0.000000
  189  P  3 XXY  -0.000568
  190  P  3 XXZ  -0.000707
  191  P  3 YYX   0.000568
  192  P  3 YYZ   0.000707
  193  P  3 ZZX   0.000530
  194  P  3 ZZY  -0.000530
  195  P  3 XYZ   0.000000
  196  P  4  S    0.000000
  197  P  4  S    0.000000
  198  P  4  S    0.000000
  199  P  4  S    0.000000
  200  P  4  S    0.000000
  201  P  4  X   -0.001306
  202  P  4  Y    0.001306
  203  P  4  Z   -0.000000
  204  P  4  X    0.019561
  205  P  4  Y   -0.019561
  206  P  4  Z   -0.000000
  207  P  4  X    0.005705
  208  P  4  Y   -0.005705
  209  P  4  Z   -0.000000
  210  P  4  X    0.031581
  211  P  4  Y   -0.031581
  212  P  4  Z   -0.000000
  213  P  4 XX    0.000498
  214  P  4 YY   -0.000498
  215  P  4 ZZ   -0.000000
  216  P  4 XY    0.000000
  217  P  4 XZ    0.000730
  218  P  4 YZ   -0.000730
  219  P  4 XX   -0.000834
  220  P  4 YY    0.000834
  221  P  4 ZZ   -0.000000
  222  P  4 XY   -0.000000
  223  P  4 XZ   -0.001644
  224  P  4 YZ    0.001644
  225  P  4 XXX   0.000228
  226  P  4 YYY  -0.000228
  227  P  4 ZZZ   0.000000
  228  P  4 XXY  -0.000021
  229  P  4 XXZ  -0.000798
  230  P  4 YYX   0.000021
  231  P  4 YYZ   0.000798
  232  P  4 ZZX  -0.000327
  233  P  4 ZZY   0.000327
  234  P  4 XYZ   0.000000
  235  P  4 XX   -0.000086
  236  P  4 YY    0.000086
  237  P  4 ZZ    0.000000
  238  P  4 XY   -0.000000
  239  P  4 XZ   -0.000132
  240  P  4 YZ    0.000132
  241  P  4  S   -0.000000
  242  P  4  X    0.008209
  243  P  4  Y   -0.008209
  244  P  4  Z   -0.000000
  245  P  4 XX   -0.005127
  246  P  4 YY    0.005127
  247  P  4 ZZ    0.000000
  248  P  4 XY   -0.000000
  249  P  4 XZ   -0.006391
  250  P  4 YZ    0.006391
  251  P  4 XXX  -0.000819
  252  P  4 YYY   0.000819
  253  P  4 ZZZ   0.000000
  254  P  4 XXY  -0.000568
  255  P  4 XXZ   0.000707
  256  P  4 YYX   0.000568
  257  P  4 YYZ  -0.000707
  258  P  4 ZZX   0.000530
  259  P  4 ZZY  -0.000530
  260  P  4 XYZ  -0.000000
 ... DONE WITH ENERGY LOCALIZATION ...
 STEP CPU TIME =     0.03 TOTAL CPU TIME =      132.3 (    2.2 MIN)
 TOTAL WALL CLOCK TIME=      207.7 SECONDS, CPU UTILIZATION IS  63.73%

 AN INPUT FILE FOR -PLTORB- HAS BEEN PUNCHED.
             71212092  WORDS OF DYNAMIC MEMORY USED
 EXECUTION OF GAMESS TERMINATED NORMALLY Mon Nov 28 23:14:29 2016
 DDI: 263640 bytes (0.3 MB / 0 MWords) used by master data server.

 ----------------------------------------
 CPU timing information for all processes
 ========================================
 0: 132.177 + 0.184 = 132.362
 ----------------------------------------
 ddikick.x: exited gracefully.
unset echo
----- accounting info -----
Files used on the master node compute-3-0 were:
-rw-rw-r-- 1 sarom sarom 1240028 Nov 29  2016 .//p4.dat
-rw-rw-r-- 1 sarom sarom    1329 Nov 29  2016 .//p4.F05
-rw-rw-r-- 1 sarom sarom  241112 Nov 29  2016 .//p4.F09
-rw-rw-r-- 1 sarom sarom 8932560 Nov 29  2016 .//p4.F10
-rw-rw-r-- 1 sarom sarom    1329 Nov 28 17:27 .//p4.inp
-rw-rw-r-- 1 sarom sarom 1007858 Nov 29  2016 .//p4.log
Mon Nov 28 23:14:58 CST 2016
0.205u 0.360s 3:57.46 0.2%	0+0k 0+136io 0pf+0w
