-catch_rsh /opt/gridengine/default/spool/compute-0-8/active_jobs/23784.1/pe_hostfile
compute-0-8
The primary node assigned by SGE to this run is compute-0-8
Warning: no access to tty (Bad file descriptor).
Thus no job control in this shell.
Deleting shmid=2785280.
Deleting shmid=2818049.
source /home/sarom/gamess.github.2017-05-31.14.06/install.info
setenv GMS_PATH /home/sarom/gamess.github.2017-05-31.14.06
setenv GMS_BUILD_DIR /home/sarom/gamess.github.2017-05-31.14.06
setenv GMS_TARGET linux64
setenv GMS_FORTRAN gfortran
setenv GMS_GFORTRAN_VERNO 4.4
setenv GMS_MATHLIB mkl-so
setenv GMS_MATHLIB_PATH /share/apps/intel/compilers_and_libraries_2017.1.132/linux/mkl/lib/intel64
setenv GMS_MKL_VERNO 12
setenv GMS_DDI_COMM sockets
setenv GMS_LIBCCHEM false
setenv GMS_EIGEN_PATH
setenv GMS_PHI false
setenv GMS_SHMTYPE sysv
setenv GMS_OPENMP false
unset echo
tbs
tests/rhf
----- GAMESS execution script 'rungms' -----
This job is running on host compute-0-8.local
under operating system Linux at Fri Jun 2 02:54:12 CDT 2017
Available scratch disk space (Kbyte units) at beginning of the job is
Filesystem           1K-blocks      Used Available Use% Mounted on
/dev/sda1             16126920   3867344  11440376  26% /
GAMESS temporary binary files will be written to /scratch
GAMESS supplementary output files will be written to /home/sarom/restart
Copying input file tbs.inp to your run's scratch directory...
cp tests/rhf/tbs.inp /scratch/tbs.F05
unset echo
The generated host list is
compute-0-8.local
/home/sarom/gamess.github.2017-05-31.14.06/ddikick.x /home/sarom/gamess.github.2017-05-31.14.06/gamess.00.x tbs -ddi 1 1 compute-0-8.local -scr /scratch

 Distributed Data Interface kickoff program.
 Initiating 1 compute processes on 1 nodes to run the following command:
 /home/sarom/gamess.github.2017-05-31.14.06/gamess.00.x tbs 

          ******************************************************
          *         GAMESS VERSION = 20 APR 2017 (R1)          *
          *             FROM IOWA STATE UNIVERSITY             *
          * M.W.SCHMIDT, K.K.BALDRIDGE, J.A.BOATZ, S.T.ELBERT, *
          *   M.S.GORDON, J.H.JENSEN, S.KOSEKI, N.MATSUNAGA,   *
          *          K.A.NGUYEN, S.J.SU, T.L.WINDUS,           *
          *       TOGETHER WITH M.DUPUIS, J.A.MONTGOMERY       *
          *         J.COMPUT.CHEM.  14, 1347-1363(1993)        *
          **************** 64 BIT LINUX VERSION ****************

  SINCE 1993, STUDENTS AND POSTDOCS WORKING AT IOWA STATE UNIVERSITY
  AND ALSO IN THEIR VARIOUS JOBS AFTER LEAVING ISU HAVE MADE IMPORTANT
  CONTRIBUTIONS TO THE CODE:
     IVANA ADAMOVIC, CHRISTINE AIKENS, YURI ALEXEEV, POOJA ARORA,
     ANDREY ASADCHEV, ROB BELL, PRADIPTA BANDYOPADHYAY, JONATHAN BENTZ,
     BRETT BODE, KURT BRORSEN, CALEB CARLIN, GALINA CHABAN, WEI CHEN,
     CHEOL HO CHOI, PAUL DAY, ALBERT DEFUSCO, NUWAN DESILVA, TIM DUDLEY,
     DMITRI FEDOROV, GRAHAM FLETCHER, MARK FREITAG, KURT GLAESEMANN,
     DAN KEMP, GRANT MERRILL, NORIYUKI MINEZAWA, JONATHAN MULLIN,
     TAKESHI NAGATA, SEAN NEDD, HEATHER NETZLOFF, BOSILJKA NJEGIC, RYAN OLSON,
     MIKE PAK, SPENCER PRUITT, LUKE ROSKOP, JIM SHOEMAKER, LYUDMILA SLIPCHENKO,
     TONY SMITH, SAROM SOK LEANG, JIE SONG, TETSUYA TAKETSUGU, SIMON WEBB,
     PENG XU, SOOHAENG YOO, FEDERICO ZAHARIEV

  ADDITIONAL CODE HAS BEEN PROVIDED BY COLLABORATORS IN OTHER GROUPS:
     IOWA STATE UNIVERSITY:
          JOE IVANIC, AARON WEST, LAIMUTIS BYTAUTAS, KLAUS RUEDENBERG
     UNIVERSITY OF TOKYO: KIMIHIKO HIRAO, TAKAHITO NAKAJIMA,
          TAKAO TSUNEDA, MUNEAKI KAMIYA, SUSUMU YANAGISAWA,
          KIYOSHI YAGI, MAHITO CHIBA, SEIKEN TOKURA, NAOAKI KAWAKAMI
     UNIVERSITY OF AARHUS: FRANK JENSEN
     UNIVERSITY OF IOWA: VISVALDAS KAIRYS, HUI LI
     NATIONAL INST. OF STANDARDS AND TECHNOLOGY: WALT STEVENS, DAVID GARMER
     UNIVERSITY OF PISA: BENEDETTA MENNUCCI, JACOPO TOMASI
     UNIVERSITY OF MEMPHIS: HENRY KURTZ, PRAKASHAN KORAMBATH
     UNIVERSITY OF ALBERTA: TOBY ZENG, MARIUSZ KLOBUKOWSKI
     UNIVERSITY OF NEW ENGLAND: MARK SPACKMAN
     MIE UNIVERSITY: HIROAKI UMEDA
     NAT. INST. OF ADVANCED INDUSTRIAL SCIENCE AND TECHNOLOGY: KAZUO KITAURA
     MICHIGAN STATE UNIVERSITY:
          KAROL KOWALSKI, MARTA WLOCH, JEFFREY GOUR, JESSE LUTZ,
          WEI LI, PIOTR PIECUCH
     UNIVERSITY OF SILESIA: MONIKA MUSIAL, STANISLAW KUCHARSKI
     FACULTES UNIVERSITAIRES NOTRE-DAME DE LA PAIX:
          OLIVIER QUINET, BENOIT CHAMPAGNE
     UNIVERSITY OF CALIFORNIA - SANTA BARBARA: BERNARD KIRTMAN
     INSTITUTE FOR MOLECULAR SCIENCE:
          KAZUYA ISHIMURA, MICHIO KATOUDA, AND SHIGERU NAGASE
     UNIVERSITY OF NOTRE DAME: ANNA POMOGAEVA, DAN CHIPMAN
     KYUSHU UNIVERSITY:
          HARUYUKI NAKANO,
          FENG LONG GU, JACEK KORCHOWIEC, MARCIN MAKOWSKI, AND YURIKO AOKI,
          HIROTOSHI MORI AND EISAKU MIYOSHI
     PENNSYLVANIA STATE UNIVERSITY:
          TZVETELIN IORDANOV, CHET SWALINA, JONATHAN SKONE,
          SHARON HAMMES-SCHIFFER
     WASEDA UNIVERSITY:
          MASATO KOBAYASHI, TOMOKO AKAMA, TSUGUKI TOUMA,
          TAKESHI YOSHIKAWA, YASUHIRO IKABATA, JUNJI SEINO,
          YUYA NAKAJIMA, HIROMI NAKAI
     NANJING UNIVERSITY: SHUHUA LI
     UNIVERSITY OF NEBRASKA:
          PEIFENG SU, DEJUN SI, NANDUN THELLAMUREGE, YALI WANG, HUI LI
     UNIVERSITY OF ZURICH: ROBERTO PEVERATI, KIM BALDRIDGE
     N. COPERNICUS UNIVERSITY AND JACKSON STATE UNIVERSITY:
          MARIA BARYSZ
     UNIVERSITY OF COPENHAGEN: Jimmy Kromann, CASPER STEINMANN
     TOKYO INSTITUTE OF TECHNOLOGY: HIROYA NAKATA
     NAGOYA UNIVERSITY: YOSHIO NISHIMOTO, STEPHAN IRLE
     MOSCOW STATE UNIVERSITY: VLADIMIR MIRONOV

 EXECUTION OF GAMESS BEGUN Fri Jun  2 02:54:12 2017

            ECHO OF THE FIRST FEW INPUT CARDS -
 INPUT CARD>!   Si(C(CH3)3)...called here as TBS...331 AOs, 53 atoms                        
 INPUT CARD>!   the novelty of tetra-(t-butyl)silane is its symmetry T, not Td.             
 INPUT CARD>!   note that the NMR internal standard TMS is Td, see below.                   
 INPUT CARD>!                                                                               
 INPUT CARD>!   FINAL E= -915.7279546107, 11 iters                                          
 INPUT CARD>!    minimum FREQ= 141.11 (t), 160.23 (e), 179.73 (a), ...                      
 INPUT CARD>!    maximum FREQ= ..., 3317.15 (a), 3325.75 (t), 3328.62 (e)                   
 INPUT CARD>!   residual FREQ= 0.03 (t) and 1.31 (t)                                        
 INPUT CARD>!                                                                               
 INPUT CARD>!   This run takes 1752 seconds on 2.66 GHz Cloverton (17 Mar 2015)             
 INPUT CARD>!   results have not changed since 2011                                         
 INPUT CARD>!                                                                               
 INPUT CARD> $contrl scftyp=rhf runtyp=hessian molplt=.true. $end                           
 INPUT CARD> $system mwords=25 $end                                                         
 INPUT CARD> $basis  gbasis=n31 ngauss=6 ndfunc=1 $end                                      
 INPUT CARD> $guess  guess=huckel $end                                                      
 INPUT CARD> $statpt opttol=1d-5 $end                                                       
 INPUT CARD> $data                                                                          
 INPUT CARD>tetra-(t-butyl)-silane...RHF/6-31G* coordinates                                 
 INPUT CARD>T                                                                               
 INPUT CARD>                                                                                
 INPUT CARD>Si 14.0   0.0000000000   0.0000000000   0.0000000000                            
 INPUT CARD>C   6.0   1.1523427023   1.1523427023   1.1523427023                            
 INPUT CARD>C   6.0   0.3769606901   1.7860243561   2.3313146952                            
 INPUT CARD>H   1.0   1.0366828323   2.4678367445   2.8648437658                            
 INPUT CARD>H   1.0   0.0403426709   1.0519099093   3.0508474240                            
 INPUT CARD>H   1.0  -0.4835693664   2.3608479787   2.0163133881                            
 INPUT CARD> $end                                                                           
 INPUT CARD>                                                                                
 INPUT CARD>------- T, E= -915.7279546107, pos.def.                                         
 INPUT CARD>Si 14.0   0.0000000000   0.0000000000   0.0000000000                            
 INPUT CARD>C   6.0   1.1523427023   1.1523427023   1.1523427023                            
 INPUT CARD>C   6.0   0.3769606901   1.7860243561   2.3313146952                            
 INPUT CARD>H   1.0   1.0366828323   2.4678367445   2.8648437658                            
 INPUT CARD>H   1.0   0.0403426709   1.0519099093   3.0508474240                            
 INPUT CARD>H   1.0  -0.4835693664   2.3608479787   2.0163133881                            
 INPUT CARD>                                                                                
 INPUT CARD>------- staggered Td, E= -915.7001156692, w= 204.29i (a2), 136.60i (t1)         
 INPUT CARD>Si 14.0   0.0000000000   0.0000000000   0.0000000000                            
 INPUT CARD>C   6.0   1.1742145015   1.1742145015   1.1742145015                            
 INPUT CARD>C   6.0   2.1122979607   2.1122979607   0.3783175296                            
 INPUT CARD>H   1.0   2.6977682448   2.6977682448   1.0842285277                            
 INPUT CARD>H   1.0  -0.2427036608   2.8187403942   1.5829544760                            
 INPUT CARD>                                                                                
 INPUT CARD>------- eclipsed Td, E= -915.6082536896, w= 154.59i (a2), 121.18 (t1)           
 INPUT CARD>Si 14.0   0.0000000000   0.0000000000   0.0000000000                            
 INPUT CARD>C   6.0   1.2431071405   1.2431071405   1.2431071405                            
 INPUT CARD>C   6.0   1.0532549788   1.0532549788   2.7629961391                            
 INPUT CARD>H   1.0   1.7328878909   1.7328878909   3.2708691072                            
 INPUT CARD>H   1.0   0.0607019969   1.3046704061   3.1029662147                            
   25000000 WORDS OF MEMORY AVAILABLE

     BASIS OPTIONS
     -------------
     GBASIS=N31          IGAUSS=       6      POLAR=POPN31  
     NDFUNC=       1     NFFUNC=       0     DIFFSP=       F
     NPFUNC=       0      DIFFS=       F     BASNAM=        


     RUN TITLE
     ---------
 tetra-(t-butyl)-silane...RHF/6-31G* coordinates                                 

 THE POINT GROUP OF THE MOLECULE IS T       
 THE ORDER OF THE PRINCIPAL AXIS IS     0

 ATOM      ATOMIC                      COORDINATES (BOHR)
           CHARGE         X                   Y                   Z
 SI         14.0     0.0000000000        0.0000000000        0.0000000000
 C           6.0     2.1776119513       -2.1776119513       -2.1776119513
 C           6.0    -2.1776119513        2.1776119513       -2.1776119513
 C           6.0    -2.1776119513       -2.1776119513        2.1776119513
 C           6.0     2.1776119513        2.1776119513        2.1776119513
 C           6.0     0.7123524124       -3.3750966404       -4.4055459651
 C           6.0    -0.7123524124        3.3750966404       -4.4055459651
 C           6.0    -0.7123524124       -3.3750966404        4.4055459651
 C           6.0     4.4055459651        0.7123524124        3.3750966404
 C           6.0    -4.4055459651        0.7123524124       -3.3750966404
 C           6.0    -4.4055459651       -0.7123524124        3.3750966404
 C           6.0     4.4055459651       -0.7123524124       -3.3750966404
 C           6.0     3.3750966404        4.4055459651        0.7123524124
 C           6.0    -3.3750966404       -4.4055459651        0.7123524124
 C           6.0     3.3750966404       -4.4055459651       -0.7123524124
 C           6.0    -3.3750966404        4.4055459651       -0.7123524124
 C           6.0     0.7123524124        3.3750966404        4.4055459651
 H           1.0     1.9590464892       -4.6635352295       -5.4137697150
 H           1.0    -1.9590464892        4.6635352295       -5.4137697150
 H           1.0    -1.9590464892       -4.6635352295        5.4137697150
 H           1.0     5.4137697150        1.9590464892        4.6635352295
 H           1.0    -5.4137697150        1.9590464892       -4.6635352295
 H           1.0    -5.4137697150       -1.9590464892        4.6635352295
 H           1.0     5.4137697150       -1.9590464892       -4.6635352295
 H           1.0     4.6635352295        5.4137697150        1.9590464892
 H           1.0    -4.6635352295       -5.4137697150        1.9590464892
 H           1.0     4.6635352295       -5.4137697150       -1.9590464892
 H           1.0    -4.6635352295        5.4137697150       -1.9590464892
 H           1.0     1.9590464892        4.6635352295        5.4137697150
 H           1.0     0.0762365936       -1.9878214923       -5.7652656617
 H           1.0    -0.0762365936        1.9878214923       -5.7652656617
 H           1.0    -0.0762365936       -1.9878214923        5.7652656617
 H           1.0     5.7652656617        0.0762365936        1.9878214923
 H           1.0    -5.7652656617        0.0762365936       -1.9878214923
 H           1.0    -5.7652656617       -0.0762365936        1.9878214923
 H           1.0     5.7652656617       -0.0762365936       -1.9878214923
 H           1.0     1.9878214923        5.7652656617        0.0762365936
 H           1.0    -1.9878214923       -5.7652656617        0.0762365936
 H           1.0     1.9878214923       -5.7652656617       -0.0762365936
 H           1.0    -1.9878214923        5.7652656617       -0.0762365936
 H           1.0     0.0762365936        1.9878214923        5.7652656617
 H           1.0    -0.9138135986       -4.4613557784       -3.8102798089
 H           1.0     0.9138135986        4.4613557784       -3.8102798089
 H           1.0     0.9138135986       -4.4613557784        3.8102798089
 H           1.0     3.8102798089       -0.9138135986        4.4613557784
 H           1.0    -3.8102798089       -0.9138135986       -4.4613557784
 H           1.0    -3.8102798089        0.9138135986        4.4613557784
 H           1.0     3.8102798089        0.9138135986       -4.4613557784
 H           1.0     4.4613557784        3.8102798089       -0.9138135986
 H           1.0    -4.4613557784       -3.8102798089       -0.9138135986
 H           1.0     4.4613557784       -3.8102798089        0.9138135986
 H           1.0    -4.4613557784        3.8102798089        0.9138135986
 H           1.0    -0.9138135986        4.4613557784        3.8102798089

          INTERNUCLEAR DISTANCES (ANGS.)
          ------------------------------

                1 SI         2 C          3 C          4 C          5 C     

   1 SI      0.0000000    1.9959161 *  1.9959161 *  1.9959161 *  1.9959161 *
   2 C       1.9959161 *  0.0000000    3.2593174    3.2593174    3.2593174  
   3 C       1.9959161 *  3.2593174    0.0000000    3.2593174    3.2593174  
   4 C       1.9959161 *  3.2593174    3.2593174    0.0000000    3.2593174  
   5 C       1.9959161 *  3.2593174    3.2593174    3.2593174    0.0000000  
   6 C       2.9609138 *  1.5468499 *  3.5160695    3.8569664    4.6228873  
   7 C       2.9609138 *  3.5160695    1.5468499 *  4.6228873    3.8569664  
   8 C       2.9609138 *  3.8569664    4.6228873    1.5468499 *  3.5160695  
   9 C       2.9609138 *  3.5160695    4.6228873    3.8569664    1.5468499 *
  10 C       2.9609138 *  3.8569664    1.5468499 *  3.5160695    4.6228873  
  11 C       2.9609138 *  4.6228873    3.5160695    1.5468499 *  3.8569664  
  12 C       2.9609138 *  1.5468499 *  3.8569664    4.6228873    3.5160695  
  13 C       2.9609138 *  3.8569664    3.5160695    4.6228873    1.5468499 *
  14 C       2.9609138 *  3.5160695    3.8569664    1.5468499 *  4.6228873  
  15 C       2.9609138 *  1.5468499 *  4.6228873    3.5160695    3.8569664  
  16 C       2.9609138 *  4.6228873    1.5468499 *  3.8569664    3.5160695  
  17 C       2.9609138 *  4.6228873    3.8569664    3.5160695    1.5468499 *
  18 H       3.9207473    2.1625359 *  4.5640105    4.7602673    5.4089614  
  19 H       3.9207473    4.5640105    2.1625359 *  5.4089614    4.7602673  
  20 H       3.9207473    4.7602673    5.4089614    2.1625359 *  4.5640105  
  21 H       3.9207473    4.5640105    5.4089614    4.7602673    2.1625359 *
  22 H       3.9207473    4.7602673    2.1625359 *  4.5640105    5.4089614  
  23 H       3.9207473    5.4089614    4.5640105    2.1625359 *  4.7602673  
  24 H       3.9207473    2.1625359 *  4.7602673    5.4089614    4.5640105  
  25 H       3.9207473    4.7602673    4.5640105    5.4089614    2.1625359 *
  26 H       3.9207473    4.5640105    4.7602673    2.1625359 *  5.4089614  
  27 H       3.9207473    2.1625359 *  5.4089614    4.5640105    4.7602673  
  28 H       3.9207473    5.4089614    2.1625359 *  4.7602673    4.5640105  
  29 H       3.9207473    5.4089614    4.7602673    4.5640105    2.1625359 *
  30 H       3.2273537    2.2024875 *  3.1441292    4.3702852    4.8746365  
  31 H       3.2273537    3.1441292    2.2024875 *  4.8746365    4.3702852  
  32 H       3.2273537    4.3702852    4.8746365    2.2024875 *  3.1441292  
  33 H       3.2273537    3.1441292    4.8746365    4.3702852    2.2024875 *
  34 H       3.2273537    4.3702852    2.2024875 *  3.1441292    4.8746365  
  35 H       3.2273537    4.8746365    3.1441292    2.2024875 *  4.3702852  
  36 H       3.2273537    2.2024875 *  4.3702852    4.8746365    3.1441292  
  37 H       3.2273537    4.3702852    3.1441292    4.8746365    2.2024875 *
  38 H       3.2273537    3.1441292    4.3702852    2.2024875 *  4.8746365  
  39 H       3.2273537    2.2024875 *  4.8746365    3.1441292    4.3702852  
  40 H       3.2273537    4.8746365    2.2024875 *  4.3702852    3.1441292  
  41 H       3.2273537    4.8746365    4.3702852    3.1441292    2.2024875 *
  42 H       3.1421270    2.2097825 *  3.6791591    3.4566059    5.0059064  
  43 H       3.1421270    3.6791591    2.2097825 *  5.0059064    3.4566059  
  44 H       3.1421270    3.4566059    5.0059064    2.2097825 *  3.6791591  
  45 H       3.1421270    3.6791591    5.0059064    3.4566059    2.2097825 *
  46 H       3.1421270    3.4566059    2.2097825 *  3.6791591    5.0059064  
  47 H       3.1421270    5.0059064    3.6791591    2.2097825 *  3.4566059  
  48 H       3.1421270    2.2097825 *  3.4566059    5.0059064    3.6791591  
  49 H       3.1421270    3.4566059    3.6791591    5.0059064    2.2097825 *
  50 H       3.1421270    3.6791591    3.4566059    2.2097825 *  5.0059064  
  51 H       3.1421270    2.2097825 *  5.0059064    3.6791591    3.4566059  
  52 H       3.1421270    5.0059064    2.2097825 *  3.4566059    3.6791591  
  53 H       3.1421270    5.0059064    3.4566059    3.6791591    2.2097825 *

                6 C          7 C          8 C          9 C         10 C     

   1 SI      2.9609138 *  2.9609138 *  2.9609138 *  2.9609138 *  2.9609138 *
   2 C       1.5468499 *  3.5160695    3.8569664    3.5160695    3.8569664  
   3 C       3.5160695    1.5468499 *  4.6228873    4.6228873    1.5468499 *
   4 C       3.8569664    4.6228873    1.5468499 *  3.8569664    3.5160695  
   5 C       4.6228873    3.8569664    3.5160695    1.5468499 *  4.6228873  
   6 C       0.0000000    3.6507437    4.7231886    5.0448473    3.5086467  
   7 C       3.6507437    0.0000000    5.8736398    5.1256899    2.4702837 *
   8 C       4.7231886    5.8736398    0.0000000    3.5086467    5.0448473  
   9 C       5.0448473    5.1256899    3.5086467    0.0000000    5.8736398  
  10 C       3.5086467    2.4702837 *  5.0448473    5.8736398    0.0000000  
  11 C       5.1256899    5.0448473    2.4702837 *  4.7231886    3.6507437  
  12 C       2.4702837 *  3.5086467    5.1256899    3.6507437    4.7231886  
  13 C       5.1256899    3.5086467    5.0448473    2.4702837 *  5.0448473  
  14 C       3.5086467    5.1256899    2.4702837 *  5.1256899    3.5086467  
  15 C       2.4702837 *  5.0448473    3.5086467    3.5086467    5.1256899  
  16 C       5.0448473    2.4702837 *  5.1256899    5.0448473    2.4702837 *
  17 C       5.8736398    4.7231886    3.6507437    2.4702837 *  5.1256899  
  18 H       1.0884644 *  4.5142414    5.4280124    5.6035273    4.5387367  
  19 H       4.5142414    1.0884644 *  6.7476389    6.1111165    2.6854582 *
  20 H       5.4280124    6.7476389    1.0884644 *  4.5387367    5.6035273  
  21 H       6.0982860    5.8397486    4.3006523    1.0884644 *  6.7476389  
  22 H       4.3006523    2.6018673 *  6.0982860    6.7476389    1.0884644 *
  23 H       5.8397486    6.0982860    2.6018673 *  5.4280124    4.5142414  
  24 H       2.6018673 *  4.3006523    5.8397486    4.5142414    5.4280124  
  25 H       6.1111165    4.5387367    5.6035273    2.6018673 *  6.0982860  
  26 H       4.5387367    6.1111165    2.6854582 *  5.8397486    4.3006523  
  27 H       2.6854582 *  5.6035273    4.5387367    4.3006523    5.8397486  
  28 H       5.6035273    2.6854582 *  6.1111165    6.0982860    2.6018673 *
  29 H       6.7476389    5.4280124    4.5142414    2.6854582 *  6.1111165  
  30 H       1.0816483 *  2.9573198 *  5.4480029    5.5394542    3.0440446  
  31 H       2.9573198 *  1.0816483 *  6.0938372    5.4291476    2.7025704 *
  32 H       5.4480029    6.0938372    1.0816483 *  3.0440446    5.5394542  
  33 H       4.6831075    5.1228392    4.0892984    1.0816483 *  6.0938372  
  34 H       4.0892984    3.4400511    4.6831075    6.0938372    1.0816483 *
  35 H       5.1228392    4.6831075    3.4400511    5.4480029    2.9573198 *
  36 H       3.4400511    4.0892984    5.1228392    2.9573198 *  5.4480029  
  37 H       5.4291476    3.0440446    5.5394542    3.4400511    4.6831075  
  38 H       3.0440446    5.4291476    2.7025704 *  5.1228392    4.0892984  
  39 H       2.7025704 *  5.5394542    3.0440446    4.0892984    5.1228392  
  40 H       5.5394542    2.7025704 *  5.4291476    4.6831075    3.4400511  
  41 H       6.0938372    5.4480029    2.9573198 *  2.7025704 *  5.4291476  
  42 H       1.0817393 *  4.1601853    4.3867593    5.4659803    3.3110107  
  43 H       4.1601853    1.0817393 *  6.0695084    4.6698762    3.4514365  
  44 H       4.3867593    6.0695084    1.0817393 *  3.3110107    5.4659803  
  45 H       5.1381180    5.7354343    2.7248894 *  1.0817393 *  6.0695084  
  46 H       2.7248894 *  2.7998938 *  5.1381180    6.0695084    1.0817393 *
  47 H       5.7354343    5.1381180    2.7998938 *  4.3867593    4.1601853  
  48 H       2.7998938 *  2.7248894 *  5.7354343    4.1601853    4.3867593  
  49 H       4.6698762    3.3110107    5.4659803    2.7998938 *  5.1381180  
  50 H       3.3110107    4.6698762    3.4514365    5.7354343    2.7248894 *
  51 H       3.4514365    5.4659803    3.3110107    2.7248894 *  5.7354343  
  52 H       5.4659803    3.4514365    4.6698762    5.1381180    2.7998938 *
  53 H       6.0695084    4.3867593    4.1601853    3.4514365    4.6698762  

               11 C         12 C         13 C         14 C         15 C     

   1 SI      2.9609138 *  2.9609138 *  2.9609138 *  2.9609138 *  2.9609138 *
   2 C       4.6228873    1.5468499 *  3.8569664    3.5160695    1.5468499 *
   3 C       3.5160695    3.8569664    3.5160695    3.8569664    4.6228873  
   4 C       1.5468499 *  4.6228873    4.6228873    1.5468499 *  3.5160695  
   5 C       3.8569664    3.5160695    1.5468499 *  4.6228873    3.8569664  
   6 C       5.1256899    2.4702837 *  5.1256899    3.5086467    2.4702837 *
   7 C       5.0448473    3.5086467    3.5086467    5.1256899    5.0448473  
   8 C       2.4702837 *  5.1256899    5.0448473    2.4702837 *  3.5086467  
   9 C       4.7231886    3.6507437    2.4702837 *  5.1256899    3.5086467  
  10 C       3.6507437    4.7231886    5.0448473    3.5086467    5.1256899  
  11 C       0.0000000    5.8736398    5.1256899    2.4702837 *  5.0448473  
  12 C       5.8736398    0.0000000    3.5086467    5.0448473    2.4702837 *
  13 C       5.1256899    3.5086467    0.0000000    5.8736398    4.7231886  
  14 C       2.4702837 *  5.0448473    5.8736398    0.0000000    3.6507437  
  15 C       5.0448473    2.4702837 *  4.7231886    3.6507437    0.0000000  
  16 C       3.5086467    5.1256899    3.6507437    4.7231886    5.8736398  
  17 C       3.5086467    5.0448473    2.4702837 *  5.0448473    5.1256899  
  18 H       6.1111165    2.6854582 *  5.8397486    4.3006523    2.6018673 *
  19 H       5.6035273    4.5387367    4.3006523    5.8397486    6.0982860  
  20 H       2.6854582 *  6.1111165    6.0982860    2.6018673 *  4.3006523  
  21 H       5.4280124    4.5142414    2.6854582 *  6.1111165    4.5387367  
  22 H       4.5142414    5.4280124    5.6035273    4.5387367    6.1111165  
  23 H       1.0884644 *  6.7476389    6.1111165    2.6854582 *  5.6035273  
  24 H       6.7476389    1.0884644 *  4.5387367    5.6035273    2.6854582 *
  25 H       5.8397486    4.3006523    1.0884644 *  6.7476389    5.4280124  
  26 H       2.6018673 *  6.0982860    6.7476389    1.0884644 *  4.5142414  
  27 H       6.0982860    2.6018673 *  5.4280124    4.5142414    1.0884644 *
  28 H       4.3006523    5.8397486    4.5142414    5.4280124    6.7476389  
  29 H       4.5387367    5.6035273    2.6018673 *  6.0982860    5.8397486  
  30 H       5.4291476    2.7025704 *  5.1228392    4.0892984    3.4400511  
  31 H       5.5394542    3.0440446    4.0892984    5.1228392    4.6831075  
  32 H       2.7025704 *  5.4291476    4.6831075    3.4400511    4.0892984  
  33 H       5.4480029    2.9573198 *  2.7025704 *  5.4291476    3.0440446  
  34 H       2.9573198 *  5.4480029    5.5394542    3.0440446    5.4291476  
  35 H       1.0816483 *  6.0938372    5.4291476    2.7025704 *  5.5394542  
  36 H       6.0938372    1.0816483 *  3.0440446    5.5394542    2.7025704 *
  37 H       5.1228392    4.0892984    1.0816483 *  6.0938372    5.4480029  
  38 H       3.4400511    4.6831075    6.0938372    1.0816483 *  2.9573198 *
  39 H       4.6831075    3.4400511    5.4480029    2.9573198 *  1.0816483 *
  40 H       4.0892984    5.1228392    2.9573198 *  5.4480029    6.0938372  
  41 H       3.0440446    5.5394542    3.4400511    4.6831075    5.1228392  
  42 H       4.6698762    3.4514365    5.7354343    2.7248894 *  2.7998938 *
  43 H       5.4659803    3.3110107    2.7248894 *  5.7354343    5.1381180  
  44 H       3.4514365    4.6698762    5.1381180    2.7998938 *  2.7248894 *
  45 H       4.3867593    4.1601853    3.4514365    4.6698762    3.3110107  
  46 H       4.1601853    4.3867593    5.4659803    3.3110107    4.6698762  
  47 H       1.0817393 *  6.0695084    4.6698762    3.4514365    5.4659803  
  48 H       6.0695084    1.0817393 *  3.3110107    5.4659803    3.4514365  
  49 H       5.7354343    2.7248894 *  1.0817393 *  6.0695084    4.3867593  
  50 H       2.7998938 *  5.1381180    6.0695084    1.0817393 *  4.1601853  
  51 H       5.1381180    2.7998938 *  4.3867593    4.1601853    1.0817393 *
  52 H       2.7248894 *  5.7354343    4.1601853    4.3867593    6.0695084  
  53 H       3.3110107    5.4659803    2.7998938 *  5.1381180    5.7354343  

               16 C         17 C         18 H         19 H         20 H     

   1 SI      2.9609138 *  2.9609138 *  3.9207473    3.9207473    3.9207473  
   2 C       4.6228873    4.6228873    2.1625359 *  4.5640105    4.7602673  
   3 C       1.5468499 *  3.8569664    4.5640105    2.1625359 *  5.4089614  
   4 C       3.8569664    3.5160695    4.7602673    5.4089614    2.1625359 *
   5 C       3.5160695    1.5468499 *  5.4089614    4.7602673    4.5640105  
   6 C       5.0448473    5.8736398    1.0884644 *  4.5142414    5.4280124  
   7 C       2.4702837 *  4.7231886    4.5142414    1.0884644 *  6.7476389  
   8 C       5.1256899    3.6507437    5.4280124    6.7476389    1.0884644 *
   9 C       5.0448473    2.4702837 *  5.6035273    6.1111165    4.5387367  
  10 C       2.4702837 *  5.1256899    4.5387367    2.6854582 *  5.6035273  
  11 C       3.5086467    3.5086467    6.1111165    5.6035273    2.6854582 *
  12 C       5.1256899    5.0448473    2.6854582 *  4.5387367    6.1111165  
  13 C       3.6507437    2.4702837 *  5.8397486    4.3006523    6.0982860  
  14 C       4.7231886    5.0448473    4.3006523    5.8397486    2.6018673 *
  15 C       5.8736398    5.1256899    2.6018673 *  6.0982860    4.3006523  
  16 C       0.0000000    3.5086467    6.0982860    2.6018673 *  5.8397486  
  17 C       3.5086467    0.0000000    6.7476389    5.4280124    4.5142414  
  18 H       6.0982860    6.7476389    0.0000000    5.3534772    6.0932885  
  19 H       2.6018673 *  5.4280124    5.3534772    0.0000000    7.5624197  
  20 H       5.8397486    4.5142414    6.0932885    7.5624197    0.0000000  
  21 H       5.6035273    2.6018673 *  6.6378695    6.7607391    5.2593899  
  22 H       2.6854582 *  5.8397486    5.2593899    2.3554168 *  6.6378695  
  23 H       4.5387367    4.3006523    6.7607391    6.6378695    2.3554168 *
  24 H       6.1111165    6.0982860    2.3554168 *  5.2593899    6.7607391  
  25 H       4.5142414    2.6854582 *  6.7607391    5.2593899    6.6378695  
  26 H       5.4280124    5.6035273    5.2593899    6.7607391    2.3554168 *
  27 H       6.7476389    6.1111165    2.3554168 *  6.6378695    5.2593899  
  28 H       1.0884644 *  4.5387367    6.6378695    2.3554168 *  6.7607391  
  29 H       4.3006523    1.0884644 *  7.5624197    6.0932885    5.3534772  
  30 H       4.6831075    6.0938372    1.7413041 *  3.6855390    6.1773971  
  31 H       3.4400511    5.4480029    3.6855390    1.7413041 *  6.9553370  
  32 H       5.1228392    2.9573198 *  6.1773971    6.9553370    1.7413041 *
  33 H       5.5394542    3.4400511    5.0684102    6.1596745    5.1269481  
  34 H       2.7025704 *  5.1228392    5.1269481    3.6381748    5.0684102  
  35 H       3.0440446    4.0892984    6.1596745    5.0684102    3.6381748  
  36 H       5.4291476    4.6831075    3.6381748    5.1269481    6.1596745  
  37 H       2.9573198 *  2.7025704 *  6.2366830    3.6252213    6.5418576  
  38 H       5.4480029    5.5394542    3.6252213    6.2366830    2.8840839 *
  39 H       6.0938372    5.4291476    2.8840839 *  6.5418576    3.6252213  
  40 H       1.0816483 *  3.0440446    6.5418576    2.8840839 *  6.2366830  
  41 H       4.0892984    1.0816483 *  6.9553370    6.1773971    3.6855390  
  42 H       5.1381180    6.0695084    1.7443099 *  4.9337749    4.9135604  
  43 H       2.7998938 *  4.3867593    4.9337749    1.7443099 *  7.0322868  
  44 H       5.7354343    4.1601853    4.9135604    7.0322868    1.7443099 *
  45 H       5.4659803    2.7998938 *  5.6749315    6.7334566    3.6758828  
  46 H       3.4514365    5.7354343    3.6758828    3.1503152    5.6749315  
  47 H       3.3110107    2.7248894 *  6.7334566    5.6749315    3.1503152  
  48 H       4.6698762    5.1381180    3.1503152    3.6758828    6.7334566  
  49 H       4.1601853    3.4514365    5.2470452    4.1734346    6.5469603  
  50 H       4.3867593    5.4659803    4.1734346    5.2470452    3.6289333  
  51 H       6.0695084    4.6698762    3.6289333    6.5469603    4.1734346  
  52 H       1.0817393 *  3.3110107    6.5469603    3.6289333    5.2470452  
  53 H       2.7248894 *  1.0817393 *  7.0322868    4.9135604    4.9337749  

               21 H         22 H         23 H         24 H         25 H     

   1 SI      3.9207473    3.9207473    3.9207473    3.9207473    3.9207473  
   2 C       4.5640105    4.7602673    5.4089614    2.1625359 *  4.7602673  
   3 C       5.4089614    2.1625359 *  4.5640105    4.7602673    4.5640105  
   4 C       4.7602673    4.5640105    2.1625359 *  5.4089614    5.4089614  
   5 C       2.1625359 *  5.4089614    4.7602673    4.5640105    2.1625359 *
   6 C       6.0982860    4.3006523    5.8397486    2.6018673 *  6.1111165  
   7 C       5.8397486    2.6018673 *  6.0982860    4.3006523    4.5387367  
   8 C       4.3006523    6.0982860    2.6018673 *  5.8397486    5.6035273  
   9 C       1.0884644 *  6.7476389    5.4280124    4.5142414    2.6018673 *
  10 C       6.7476389    1.0884644 *  4.5142414    5.4280124    6.0982860  
  11 C       5.4280124    4.5142414    1.0884644 *  6.7476389    5.8397486  
  12 C       4.5142414    5.4280124    6.7476389    1.0884644 *  4.3006523  
  13 C       2.6854582 *  5.6035273    6.1111165    4.5387367    1.0884644 *
  14 C       6.1111165    4.5387367    2.6854582 *  5.6035273    6.7476389  
  15 C       4.5387367    6.1111165    5.6035273    2.6854582 *  5.4280124  
  16 C       5.6035273    2.6854582 *  4.5387367    6.1111165    4.5142414  
  17 C       2.6018673 *  5.8397486    4.3006523    6.0982860    2.6854582 *
  18 H       6.6378695    5.2593899    6.7607391    2.3554168 *  6.7607391  
  19 H       6.7607391    2.3554168 *  6.6378695    5.2593899    5.2593899  
  20 H       5.2593899    6.6378695    2.3554168 *  6.7607391    6.6378695  
  21 H       0.0000000    7.5624197    6.0932885    5.3534772    2.3554168 *
  22 H       7.5624197    0.0000000    5.3534772    6.0932885    6.6378695  
  23 H       6.0932885    5.3534772    0.0000000    7.5624197    6.7607391  
  24 H       5.3534772    6.0932885    7.5624197    0.0000000    5.2593899  
  25 H       2.3554168 *  6.6378695    6.7607391    5.2593899    0.0000000  
  26 H       6.7607391    5.2593899    2.3554168 *  6.6378695    7.5624197  
  27 H       5.2593899    6.7607391    6.6378695    2.3554168 *  6.0932885  
  28 H       6.6378695    2.3554168 *  5.2593899    6.7607391    5.3534772  
  29 H       2.3554168 *  6.7607391    5.2593899    6.6378695    2.3554168 *
  30 H       6.5418576    3.6252213    6.2366830    2.8840839 *  6.1596745  
  31 H       6.2366830    2.8840839 *  6.5418576    3.6252213    5.1269481  
  32 H       3.6252213    6.5418576    2.8840839 *  6.2366830    5.0684102  
  33 H       1.7413041 *  6.9553370    6.1773971    3.6855390    2.8840839 *
  34 H       6.9553370    1.7413041 *  3.6855390    6.1773971    6.5418576  
  35 H       6.1773971    3.6855390    1.7413041 *  6.9553370    6.2366830  
  36 H       3.6855390    6.1773971    6.9553370    1.7413041 *  3.6252213  
  37 H       3.6381748    5.0684102    6.1596745    5.1269481    1.7413041 *
  38 H       6.1596745    5.1269481    3.6381748    5.0684102    6.9553370  
  39 H       5.1269481    6.1596745    5.0684102    3.6381748    6.1773971  
  40 H       5.0684102    3.6381748    5.1269481    6.1596745    3.6855390  
  41 H       2.8840839 *  6.2366830    3.6252213    6.5418576    3.6381748  
  42 H       6.5469603    4.1734346    5.2470452    3.6289333    6.7334566  
  43 H       5.2470452    3.6289333    6.5469603    4.1734346    3.6758828  
  44 H       4.1734346    6.5469603    3.6289333    5.2470452    5.6749315  
  45 H       1.7443099 *  7.0322868    4.9135604    4.9337749    3.6289333  
  46 H       7.0322868    1.7443099 *  4.9337749    4.9135604    6.5469603  
  47 H       4.9135604    4.9337749    1.7443099 *  7.0322868    5.2470452  
  48 H       4.9337749    4.9135604    7.0322868    1.7443099 *  4.1734346  
  49 H       3.1503152    5.6749315    6.7334566    3.6758828    1.7443099 *
  50 H       6.7334566    3.6758828    3.1503152    5.6749315    7.0322868  
  51 H       3.6758828    6.7334566    5.6749315    3.1503152    4.9135604  
  52 H       5.6749315    3.1503152    3.6758828    6.7334566    4.9337749  
  53 H       3.6289333    5.2470452    4.1734346    6.5469603    3.1503152  

               26 H         27 H         28 H         29 H         30 H     

   1 SI      3.9207473    3.9207473    3.9207473    3.9207473    3.2273537  
   2 C       4.5640105    2.1625359 *  5.4089614    5.4089614    2.2024875 *
   3 C       4.7602673    5.4089614    2.1625359 *  4.7602673    3.1441292  
   4 C       2.1625359 *  4.5640105    4.7602673    4.5640105    4.3702852  
   5 C       5.4089614    4.7602673    4.5640105    2.1625359 *  4.8746365  
   6 C       4.5387367    2.6854582 *  5.6035273    6.7476389    1.0816483 *
   7 C       6.1111165    5.6035273    2.6854582 *  5.4280124    2.9573198 *
   8 C       2.6854582 *  4.5387367    6.1111165    4.5142414    5.4480029  
   9 C       5.8397486    4.3006523    6.0982860    2.6854582 *  5.5394542  
  10 C       4.3006523    5.8397486    2.6018673 *  6.1111165    3.0440446  
  11 C       2.6018673 *  6.0982860    4.3006523    4.5387367    5.4291476  
  12 C       6.0982860    2.6018673 *  5.8397486    5.6035273    2.7025704 *
  13 C       6.7476389    5.4280124    4.5142414    2.6018673 *  5.1228392  
  14 C       1.0884644 *  4.5142414    5.4280124    6.0982860    4.0892984  
  15 C       4.5142414    1.0884644 *  6.7476389    5.8397486    3.4400511  
  16 C       5.4280124    6.7476389    1.0884644 *  4.3006523    4.6831075  
  17 C       5.6035273    6.1111165    4.5387367    1.0884644 *  6.0938372  
  18 H       5.2593899    2.3554168 *  6.6378695    7.5624197    1.7413041 *
  19 H       6.7607391    6.6378695    2.3554168 *  6.0932885    3.6855390  
  20 H       2.3554168 *  5.2593899    6.7607391    5.3534772    6.1773971  
  21 H       6.7607391    5.2593899    6.6378695    2.3554168 *  6.5418576  
  22 H       5.2593899    6.7607391    2.3554168 *  6.7607391    3.6252213  
  23 H       2.3554168 *  6.6378695    5.2593899    5.2593899    6.2366830  
  24 H       6.6378695    2.3554168 *  6.7607391    6.6378695    2.8840839 *
  25 H       7.5624197    6.0932885    5.3534772    2.3554168 *  6.1596745  
  26 H       0.0000000    5.3534772    6.0932885    6.6378695    5.1269481  
  27 H       5.3534772    0.0000000    7.5624197    6.7607391    3.6381748  
  28 H       6.0932885    7.5624197    0.0000000    5.2593899    5.0684102  
  29 H       6.6378695    6.7607391    5.2593899    0.0000000    6.9553370  
  30 H       5.1269481    3.6381748    5.0684102    6.9553370    0.0000000  
  31 H       6.1596745    5.0684102    3.6381748    6.1773971    2.1053665 *
  32 H       3.6381748    5.1269481    6.1596745    3.6855390    6.1022283  
  33 H       6.2366830    3.6252213    6.5418576    3.6381748    5.2046875  
  34 H       3.6252213    6.2366830    2.8840839 *  6.1596745    3.8398207  
  35 H       2.8840839 *  6.5418576    3.6252213    5.1269481    5.2355842  
  36 H       6.5418576    2.8840839 *  6.2366830    5.0684102    3.7526202  
  37 H       6.9553370    6.1773971    3.6855390    2.8840839 *  5.2355842  
  38 H       1.7413041 *  3.6855390    6.1773971    6.5418576    3.8398207  
  39 H       3.6855390    1.7413041 *  6.9553370    6.2366830    3.7526202  
  40 H       6.1773971    6.9553370    1.7413041 *  3.6252213    5.2046875  
  41 H       5.0684102    6.1596745    5.1269481    1.7413041 *  6.4542031  
  42 H       3.6758828    3.1503152    5.6749315    7.0322868    1.7487319 *
  43 H       6.7334566    5.6749315    3.1503152    4.9135604    3.5935535  
  44 H       3.1503152    3.6758828    6.7334566    4.9337749    5.2522269  
  45 H       5.2470452    4.1734346    6.5469603    3.1503152    5.7891207  
  46 H       4.1734346    5.2470452    3.6289333    6.7334566    2.2425308 *
  47 H       3.6289333    6.5469603    4.1734346    3.6758828    5.9894890  
  48 H       6.5469603    3.6289333    5.2470452    5.6749315    2.5958151 *
  49 H       7.0322868    4.9135604    4.9337749    3.6289333    4.6248952  
  50 H       1.7443099 *  4.9337749    4.9135604    6.5469603    3.6450936  
  51 H       4.9337749    1.7443099 *  7.0322868    5.2470452    4.3366947  
  52 H       4.9135604    7.0322868    1.7443099 *  4.1734346    5.2604004  
  53 H       5.6749315    6.7334566    3.6758828    1.7443099 *  6.1316816  

               31 H         32 H         33 H         34 H         35 H     

   1 SI      3.2273537    3.2273537    3.2273537    3.2273537    3.2273537  
   2 C       3.1441292    4.3702852    3.1441292    4.3702852    4.8746365  
   3 C       2.2024875 *  4.8746365    4.8746365    2.2024875 *  3.1441292  
   4 C       4.8746365    2.2024875 *  4.3702852    3.1441292    2.2024875 *
   5 C       4.3702852    3.1441292    2.2024875 *  4.8746365    4.3702852  
   6 C       2.9573198 *  5.4480029    4.6831075    4.0892984    5.1228392  
   7 C       1.0816483 *  6.0938372    5.1228392    3.4400511    4.6831075  
   8 C       6.0938372    1.0816483 *  4.0892984    4.6831075    3.4400511  
   9 C       5.4291476    3.0440446    1.0816483 *  6.0938372    5.4480029  
  10 C       2.7025704 *  5.5394542    6.0938372    1.0816483 *  2.9573198 *
  11 C       5.5394542    2.7025704 *  5.4480029    2.9573198 *  1.0816483 *
  12 C       3.0440446    5.4291476    2.9573198 *  5.4480029    6.0938372  
  13 C       4.0892984    4.6831075    2.7025704 *  5.5394542    5.4291476  
  14 C       5.1228392    3.4400511    5.4291476    3.0440446    2.7025704 *
  15 C       4.6831075    4.0892984    3.0440446    5.4291476    5.5394542  
  16 C       3.4400511    5.1228392    5.5394542    2.7025704 *  3.0440446  
  17 C       5.4480029    2.9573198 *  3.4400511    5.1228392    4.0892984  
  18 H       3.6855390    6.1773971    5.0684102    5.1269481    6.1596745  
  19 H       1.7413041 *  6.9553370    6.1596745    3.6381748    5.0684102  
  20 H       6.9553370    1.7413041 *  5.1269481    5.0684102    3.6381748  
  21 H       6.2366830    3.6252213    1.7413041 *  6.9553370    6.1773971  
  22 H       2.8840839 *  6.5418576    6.9553370    1.7413041 *  3.6855390  
  23 H       6.5418576    2.8840839 *  6.1773971    3.6855390    1.7413041 *
  24 H       3.6252213    6.2366830    3.6855390    6.1773971    6.9553370  
  25 H       5.1269481    5.0684102    2.8840839 *  6.5418576    6.2366830  
  26 H       6.1596745    3.6381748    6.2366830    3.6252213    2.8840839 *
  27 H       5.0684102    5.1269481    3.6252213    6.2366830    6.5418576  
  28 H       3.6381748    6.1596745    6.5418576    2.8840839 *  3.6252213  
  29 H       6.1773971    3.6855390    3.6381748    6.1596745    5.1269481  
  30 H       2.1053665 *  6.1022283    5.2046875    3.8398207    5.2355842  
  31 H       0.0000000    6.4542031    5.2355842    3.7526202    5.2046875  
  32 H       6.4542031    0.0000000    3.8398207    5.2046875    3.7526202  
  33 H       5.2355842    3.8398207    0.0000000    6.4542031    6.1022283  
  34 H       3.7526202    5.2046875    6.4542031    0.0000000    2.1053665 *
  35 H       5.2046875    3.7526202    6.1022283    2.1053665 *  0.0000000  
  36 H       3.8398207    5.2355842    2.1053665 *  6.1022283    6.4542031  
  37 H       3.8398207    5.2046875    3.7526202    5.2046875    5.2355842  
  38 H       5.2355842    3.7526202    5.2355842    3.8398207    3.7526202  
  39 H       5.2046875    3.8398207    3.8398207    5.2355842    5.2046875  
  40 H       3.7526202    5.2355842    5.2046875    3.7526202    3.8398207  
  41 H       6.1022283    2.1053665 *  3.7526202    5.2355842    3.8398207  
  42 H       3.5935535    5.2522269    5.2604004    3.6450936    4.6248952  
  43 H       1.7487319 *  6.1316816    4.6248952    4.3366947    5.2604004  
  44 H       6.1316816    1.7487319 *  3.6450936    5.2604004    4.3366947  
  45 H       5.9894890    2.2425308 *  1.7487319 *  6.1316816    5.2522269  
  46 H       2.5958151 *  5.7891207    6.1316816    1.7487319 *  3.5935535  
  47 H       5.7891207    2.5958151 *  5.2522269    3.5935535    1.7487319 *
  48 H       2.2425308 *  5.9894890    3.5935535    5.2522269    6.1316816  
  49 H       3.6450936    5.2604004    2.5958151 *  5.7891207    5.9894890  
  50 H       4.6248952    4.3366947    5.9894890    2.2425308 *  2.5958151 *
  51 H       5.2604004    3.6450936    2.2425308 *  5.9894890    5.7891207  
  52 H       4.3366947    4.6248952    5.7891207    2.5958151 *  2.2425308 *
  53 H       5.2522269    3.5935535    4.3366947    4.6248952    3.6450936  

               36 H         37 H         38 H         39 H         40 H     

   1 SI      3.2273537    3.2273537    3.2273537    3.2273537    3.2273537  
   2 C       2.2024875 *  4.3702852    3.1441292    2.2024875 *  4.8746365  
   3 C       4.3702852    3.1441292    4.3702852    4.8746365    2.2024875 *
   4 C       4.8746365    4.8746365    2.2024875 *  3.1441292    4.3702852  
   5 C       3.1441292    2.2024875 *  4.8746365    4.3702852    3.1441292  
   6 C       3.4400511    5.4291476    3.0440446    2.7025704 *  5.5394542  
   7 C       4.0892984    3.0440446    5.4291476    5.5394542    2.7025704 *
   8 C       5.1228392    5.5394542    2.7025704 *  3.0440446    5.4291476  
   9 C       2.9573198 *  3.4400511    5.1228392    4.0892984    4.6831075  
  10 C       5.4480029    4.6831075    4.0892984    5.1228392    3.4400511  
  11 C       6.0938372    5.1228392    3.4400511    4.6831075    4.0892984  
  12 C       1.0816483 *  4.0892984    4.6831075    3.4400511    5.1228392  
  13 C       3.0440446    1.0816483 *  6.0938372    5.4480029    2.9573198 *
  14 C       5.5394542    6.0938372    1.0816483 *  2.9573198 *  5.4480029  
  15 C       2.7025704 *  5.4480029    2.9573198 *  1.0816483 *  6.0938372  
  16 C       5.4291476    2.9573198 *  5.4480029    6.0938372    1.0816483 *
  17 C       4.6831075    2.7025704 *  5.5394542    5.4291476    3.0440446  
  18 H       3.6381748    6.2366830    3.6252213    2.8840839 *  6.5418576  
  19 H       5.1269481    3.6252213    6.2366830    6.5418576    2.8840839 *
  20 H       6.1596745    6.5418576    2.8840839 *  3.6252213    6.2366830  
  21 H       3.6855390    3.6381748    6.1596745    5.1269481    5.0684102  
  22 H       6.1773971    5.0684102    5.1269481    6.1596745    3.6381748  
  23 H       6.9553370    6.1596745    3.6381748    5.0684102    5.1269481  
  24 H       1.7413041 *  5.1269481    5.0684102    3.6381748    6.1596745  
  25 H       3.6252213    1.7413041 *  6.9553370    6.1773971    3.6855390  
  26 H       6.5418576    6.9553370    1.7413041 *  3.6855390    6.1773971  
  27 H       2.8840839 *  6.1773971    3.6855390    1.7413041 *  6.9553370  
  28 H       6.2366830    3.6855390    6.1773971    6.9553370    1.7413041 *
  29 H       5.0684102    2.8840839 *  6.5418576    6.2366830    3.6252213  
  30 H       3.7526202    5.2355842    3.8398207    3.7526202    5.2046875  
  31 H       3.8398207    3.8398207    5.2355842    5.2046875    3.7526202  
  32 H       5.2355842    5.2046875    3.7526202    3.8398207    5.2355842  
  33 H       2.1053665 *  3.7526202    5.2355842    3.8398207    5.2046875  
  34 H       6.1022283    5.2046875    3.8398207    5.2355842    3.7526202  
  35 H       6.4542031    5.2355842    3.7526202    5.2046875    3.8398207  
  36 H       0.0000000    3.8398207    5.2046875    3.7526202    5.2355842  
  37 H       3.8398207    0.0000000    6.4542031    6.1022283    2.1053665 *
  38 H       5.2046875    6.4542031    0.0000000    2.1053665 *  6.1022283  
  39 H       3.7526202    6.1022283    2.1053665 *  0.0000000    6.4542031  
  40 H       5.2355842    2.1053665 *  6.1022283    6.4542031    0.0000000  
  41 H       5.2046875    3.7526202    5.2046875    5.2355842    3.8398207  
  42 H       4.3366947    5.9894890    2.2425308 *  2.5958151 *  5.7891207  
  43 H       3.6450936    2.2425308 *  5.9894890    5.7891207    2.5958151 *
  44 H       4.6248952    5.7891207    2.5958151 *  2.2425308 *  5.9894890  
  45 H       3.5935535    4.3366947    4.6248952    3.6450936    5.2604004  
  46 H       5.2522269    5.2604004    3.6450936    4.6248952    4.3366947  
  47 H       6.1316816    4.6248952    4.3366947    5.2604004    3.6450936  
  48 H       1.7487319 *  3.6450936    5.2604004    4.3366947    4.6248952  
  49 H       2.2425308 *  1.7487319 *  6.1316816    5.2522269    3.5935535  
  50 H       5.7891207    6.1316816    1.7487319 *  3.5935535    5.2522269  
  51 H       2.5958151 *  5.2522269    3.5935535    1.7487319 *  6.1316816  
  52 H       5.9894890    3.5935535    5.2522269    6.1316816    1.7487319 *
  53 H       5.2604004    2.5958151 *  5.7891207    5.9894890    2.2425308 *

               41 H         42 H         43 H         44 H         45 H     

   1 SI      3.2273537    3.1421270    3.1421270    3.1421270    3.1421270  
   2 C       4.8746365    2.2097825 *  3.6791591    3.4566059    3.6791591  
   3 C       4.3702852    3.6791591    2.2097825 *  5.0059064    5.0059064  
   4 C       3.1441292    3.4566059    5.0059064    2.2097825 *  3.4566059  
   5 C       2.2024875 *  5.0059064    3.4566059    3.6791591    2.2097825 *
   6 C       6.0938372    1.0817393 *  4.1601853    4.3867593    5.1381180  
   7 C       5.4480029    4.1601853    1.0817393 *  6.0695084    5.7354343  
   8 C       2.9573198 *  4.3867593    6.0695084    1.0817393 *  2.7248894 *
   9 C       2.7025704 *  5.4659803    4.6698762    3.3110107    1.0817393 *
  10 C       5.4291476    3.3110107    3.4514365    5.4659803    6.0695084  
  11 C       3.0440446    4.6698762    5.4659803    3.4514365    4.3867593  
  12 C       5.5394542    3.4514365    3.3110107    4.6698762    4.1601853  
  13 C       3.4400511    5.7354343    2.7248894 *  5.1381180    3.4514365  
  14 C       4.6831075    2.7248894 *  5.7354343    2.7998938 *  4.6698762  
  15 C       5.1228392    2.7998938 *  5.1381180    2.7248894 *  3.3110107  
  16 C       4.0892984    5.1381180    2.7998938 *  5.7354343    5.4659803  
  17 C       1.0816483 *  6.0695084    4.3867593    4.1601853    2.7998938 *
  18 H       6.9553370    1.7443099 *  4.9337749    4.9135604    5.6749315  
  19 H       6.1773971    4.9337749    1.7443099 *  7.0322868    6.7334566  
  20 H       3.6855390    4.9135604    7.0322868    1.7443099 *  3.6758828  
  21 H       2.8840839 *  6.5469603    5.2470452    4.1734346    1.7443099 *
  22 H       6.2366830    4.1734346    3.6289333    6.5469603    7.0322868  
  23 H       3.6252213    5.2470452    6.5469603    3.6289333    4.9135604  
  24 H       6.5418576    3.6289333    4.1734346    5.2470452    4.9337749  
  25 H       3.6381748    6.7334566    3.6758828    5.6749315    3.6289333  
  26 H       5.0684102    3.6758828    6.7334566    3.1503152    5.2470452  
  27 H       6.1596745    3.1503152    5.6749315    3.6758828    4.1734346  
  28 H       5.1269481    5.6749315    3.1503152    6.7334566    6.5469603  
  29 H       1.7413041 *  7.0322868    4.9135604    4.9337749    3.1503152  
  30 H       6.4542031    1.7487319 *  3.5935535    5.2522269    5.7891207  
  31 H       6.1022283    3.5935535    1.7487319 *  6.1316816    5.9894890  
  32 H       2.1053665 *  5.2522269    6.1316816    1.7487319 *  2.2425308 *
  33 H       3.7526202    5.2604004    4.6248952    3.6450936    1.7487319 *
  34 H       5.2355842    3.6450936    4.3366947    5.2604004    6.1316816  
  35 H       3.8398207    4.6248952    5.2604004    4.3366947    5.2522269  
  36 H       5.2046875    4.3366947    3.6450936    4.6248952    3.5935535  
  37 H       3.7526202    5.9894890    2.2425308 *  5.7891207    4.3366947  
  38 H       5.2046875    2.2425308 *  5.9894890    2.5958151 *  4.6248952  
  39 H       5.2355842    2.5958151 *  5.7891207    2.2425308 *  3.6450936  
  40 H       3.8398207    5.7891207    2.5958151 *  5.9894890    5.2604004  
  41 H       0.0000000    6.1316816    5.2522269    3.5935535    2.5958151 *
  42 H       6.1316816    0.0000000    4.8197272    4.1469791    5.3789525  
  43 H       5.2522269    4.8197272    0.0000000    6.2093874    5.4405474  
  44 H       3.5935535    4.1469791    6.2093874    0.0000000    2.4478936 *
  45 H       2.5958151 *  5.3789525    5.4405474    2.4478936 *  0.0000000  
  46 H       5.9894890    2.4478936 *  3.8024765    5.3789525    6.2093874  
  47 H       2.2425308 *  5.4405474    5.3789525    3.8024765    4.1469791  
  48 H       5.7891207    3.8024765    2.4478936 *  5.4405474    4.8197272  
  49 H       4.3366947    5.4405474    2.4478936 *  5.3789525    3.8024765  
  50 H       5.2604004    2.4478936 *  5.4405474    3.8024765    5.4405474  
  51 H       4.6248952    3.8024765    5.3789525    2.4478936 *  2.4478936 *
  52 H       3.6450936    5.3789525    3.8024765    5.4405474    5.3789525  
  53 H       1.7487319 *  6.2093874    4.1469791    4.8197272    3.8024765  

               46 H         47 H         48 H         49 H         50 H     

   1 SI      3.1421270    3.1421270    3.1421270    3.1421270    3.1421270  
   2 C       3.4566059    5.0059064    2.2097825 *  3.4566059    3.6791591  
   3 C       2.2097825 *  3.6791591    3.4566059    3.6791591    3.4566059  
   4 C       3.6791591    2.2097825 *  5.0059064    5.0059064    2.2097825 *
   5 C       5.0059064    3.4566059    3.6791591    2.2097825 *  5.0059064  
   6 C       2.7248894 *  5.7354343    2.7998938 *  4.6698762    3.3110107  
   7 C       2.7998938 *  5.1381180    2.7248894 *  3.3110107    4.6698762  
   8 C       5.1381180    2.7998938 *  5.7354343    5.4659803    3.4514365  
   9 C       6.0695084    4.3867593    4.1601853    2.7998938 *  5.7354343  
  10 C       1.0817393 *  4.1601853    4.3867593    5.1381180    2.7248894 *
  11 C       4.1601853    1.0817393 *  6.0695084    5.7354343    2.7998938 *
  12 C       4.3867593    6.0695084    1.0817393 *  2.7248894 *  5.1381180  
  13 C       5.4659803    4.6698762    3.3110107    1.0817393 *  6.0695084  
  14 C       3.3110107    3.4514365    5.4659803    6.0695084    1.0817393 *
  15 C       4.6698762    5.4659803    3.4514365    4.3867593    4.1601853  
  16 C       3.4514365    3.3110107    4.6698762    4.1601853    4.3867593  
  17 C       5.7354343    2.7248894 *  5.1381180    3.4514365    5.4659803  
  18 H       3.6758828    6.7334566    3.1503152    5.2470452    4.1734346  
  19 H       3.1503152    5.6749315    3.6758828    4.1734346    5.2470452  
  20 H       5.6749315    3.1503152    6.7334566    6.5469603    3.6289333  
  21 H       7.0322868    4.9135604    4.9337749    3.1503152    6.7334566  
  22 H       1.7443099 *  4.9337749    4.9135604    5.6749315    3.6758828  
  23 H       4.9337749    1.7443099 *  7.0322868    6.7334566    3.1503152  
  24 H       4.9135604    7.0322868    1.7443099 *  3.6758828    5.6749315  
  25 H       6.5469603    5.2470452    4.1734346    1.7443099 *  7.0322868  
  26 H       4.1734346    3.6289333    6.5469603    7.0322868    1.7443099 *
  27 H       5.2470452    6.5469603    3.6289333    4.9135604    4.9337749  
  28 H       3.6289333    4.1734346    5.2470452    4.9337749    4.9135604  
  29 H       6.7334566    3.6758828    5.6749315    3.6289333    6.5469603  
  30 H       2.2425308 *  5.9894890    2.5958151 *  4.6248952    3.6450936  
  31 H       2.5958151 *  5.7891207    2.2425308 *  3.6450936    4.6248952  
  32 H       5.7891207    2.5958151 *  5.9894890    5.2604004    4.3366947  
  33 H       6.1316816    5.2522269    3.5935535    2.5958151 *  5.9894890  
  34 H       1.7487319 *  3.5935535    5.2522269    5.7891207    2.2425308 *
  35 H       3.5935535    1.7487319 *  6.1316816    5.9894890    2.5958151 *
  36 H       5.2522269    6.1316816    1.7487319 *  2.2425308 *  5.7891207  
  37 H       5.2604004    4.6248952    3.6450936    1.7487319 *  6.1316816  
  38 H       3.6450936    4.3366947    5.2604004    6.1316816    1.7487319 *
  39 H       4.6248952    5.2604004    4.3366947    5.2522269    3.5935535  
  40 H       4.3366947    3.6450936    4.6248952    3.5935535    5.2522269  
  41 H       5.9894890    2.2425308 *  5.7891207    4.3366947    5.2604004  
  42 H       2.4478936 *  5.4405474    3.8024765    5.4405474    2.4478936 *
  43 H       3.8024765    5.3789525    2.4478936 *  2.4478936 *  5.4405474  
  44 H       5.3789525    3.8024765    5.4405474    5.3789525    3.8024765  
  45 H       6.2093874    4.1469791    4.8197272    3.8024765    5.4405474  
  46 H       0.0000000    4.8197272    4.1469791    5.3789525    2.4478936 *
  47 H       4.8197272    0.0000000    6.2093874    5.4405474    3.8024765  
  48 H       4.1469791    6.2093874    0.0000000    2.4478936 *  5.3789525  
  49 H       5.3789525    5.4405474    2.4478936 *  0.0000000    6.2093874  
  50 H       2.4478936 *  3.8024765    5.3789525    6.2093874    0.0000000  
  51 H       5.4405474    5.3789525    3.8024765    4.1469791    4.8197272  
  52 H       3.8024765    2.4478936 *  5.4405474    4.8197272    4.1469791  
  53 H       5.4405474    2.4478936 *  5.3789525    3.8024765    5.3789525  

               51 H         52 H         53 H     

   1 SI      3.1421270    3.1421270    3.1421270  
   2 C       2.2097825 *  5.0059064    5.0059064  
   3 C       5.0059064    2.2097825 *  3.4566059  
   4 C       3.6791591    3.4566059    3.6791591  
   5 C       3.4566059    3.6791591    2.2097825 *
   6 C       3.4514365    5.4659803    6.0695084  
   7 C       5.4659803    3.4514365    4.3867593  
   8 C       3.3110107    4.6698762    4.1601853  
   9 C       2.7248894 *  5.1381180    3.4514365  
  10 C       5.7354343    2.7998938 *  4.6698762  
  11 C       5.1381180    2.7248894 *  3.3110107  
  12 C       2.7998938 *  5.7354343    5.4659803  
  13 C       4.3867593    4.1601853    2.7998938 *
  14 C       4.1601853    4.3867593    5.1381180  
  15 C       1.0817393 *  6.0695084    5.7354343  
  16 C       6.0695084    1.0817393 *  2.7248894 *
  17 C       4.6698762    3.3110107    1.0817393 *
  18 H       3.6289333    6.5469603    7.0322868  
  19 H       6.5469603    3.6289333    4.9135604  
  20 H       4.1734346    5.2470452    4.9337749  
  21 H       3.6758828    5.6749315    3.6289333  
  22 H       6.7334566    3.1503152    5.2470452  
  23 H       5.6749315    3.6758828    4.1734346  
  24 H       3.1503152    6.7334566    6.5469603  
  25 H       4.9135604    4.9337749    3.1503152  
  26 H       4.9337749    4.9135604    5.6749315  
  27 H       1.7443099 *  7.0322868    6.7334566  
  28 H       7.0322868    1.7443099 *  3.6758828  
  29 H       5.2470452    4.1734346    1.7443099 *
  30 H       4.3366947    5.2604004    6.1316816  
  31 H       5.2604004    4.3366947    5.2522269  
  32 H       3.6450936    4.6248952    3.5935535  
  33 H       2.2425308 *  5.7891207    4.3366947  
  34 H       5.9894890    2.5958151 *  4.6248952  
  35 H       5.7891207    2.2425308 *  3.6450936  
  36 H       2.5958151 *  5.9894890    5.2604004  
  37 H       5.2522269    3.5935535    2.5958151 *
  38 H       3.5935535    5.2522269    5.7891207  
  39 H       1.7487319 *  6.1316816    5.9894890  
  40 H       6.1316816    1.7487319 *  2.2425308 *
  41 H       4.6248952    3.6450936    1.7487319 *
  42 H       3.8024765    5.3789525    6.2093874  
  43 H       5.3789525    3.8024765    4.1469791  
  44 H       2.4478936 *  5.4405474    4.8197272  
  45 H       2.4478936 *  5.3789525    3.8024765  
  46 H       5.4405474    3.8024765    5.4405474  
  47 H       5.3789525    2.4478936 *  2.4478936 *
  48 H       3.8024765    5.4405474    5.3789525  
  49 H       4.1469791    4.8197272    3.8024765  
  50 H       4.8197272    4.1469791    5.3789525  
  51 H       0.0000000    6.2093874    5.4405474  
  52 H       6.2093874    0.0000000    2.4478936 *
  53 H       5.4405474    2.4478936 *  0.0000000  

  * ... LESS THAN  3.000


     ATOMIC BASIS SET
     ----------------
 THE CONTRACTED PRIMITIVE FUNCTIONS HAVE BEEN UNNORMALIZED
 THE CONTRACTED BASIS FUNCTIONS ARE NOW NORMALIZED TO UNITY

  SHELL TYPE  PRIMITIVE        EXPONENT          CONTRACTION COEFFICIENT(S)

 SI        

      1   S       1         16192.1000000    0.001949239405
      1   S       2          2436.0900000    0.014855895466
      1   S       3           556.0010000    0.072568877851
      1   S       4           156.8130000    0.245654925022
      1   S       5            50.1692000    0.486059851646
      1   S       6            17.0300000    0.325719900585

      2   L       7           293.3500000   -0.002829912441    0.004433341604
      2   L       8            70.1173000   -0.036073731114    0.032440211739
      2   L       9            22.4301000   -0.116808100749    0.133719048387
      2   L      10             8.1942500    0.093576880711    0.326780118247
      2   L      11             3.1476800    0.601705518979    0.451139163247
      2   L      12             1.2151500    0.422072364043    0.264105095568

      3   L      13             1.6537000   -0.240599186106   -0.015177406538
      3   L      14             0.5407600    0.073795050368    0.275139118516
      3   L      15             0.2044060    1.040936478740    0.783008337279

      4   L      16             0.0723837    1.000000000000    1.000000000000

      5   D      17             0.3950000    1.000000000000

 C         

     18   S      18          3047.5248800    0.001834737132
     18   S      19           457.3695180    0.014037322813
     18   S      20           103.9486850    0.068842622264
     18   S      21            29.2101553    0.232184443216
     18   S      22             9.2866630    0.467941348435
     18   S      23             3.1639270    0.362311985337

     19   L      24             7.8682723   -0.119332419775    0.068999066591
     19   L      25             1.8812885   -0.160854151696    0.316423960957
     19   L      26             0.5442493    1.143456437840    0.744308290898

     20   L      27             0.1687145    1.000000000000    1.000000000000

     21   D      28             0.8000000    1.000000000000

 C         

     66   S      29          3047.5248800    0.001834737132
     66   S      30           457.3695180    0.014037322813
     66   S      31           103.9486850    0.068842622264
     66   S      32            29.2101553    0.232184443216
     66   S      33             9.2866630    0.467941348435
     66   S      34             3.1639270    0.362311985337

     67   L      35             7.8682723   -0.119332419775    0.068999066591
     67   L      36             1.8812885   -0.160854151696    0.316423960957
     67   L      37             0.5442493    1.143456437840    0.744308290898

     68   L      38             0.1687145    1.000000000000    1.000000000000

     69   D      39             0.8000000    1.000000000000

 H         

     92   S      40            18.7311370    0.033494604338
     92   S      41             2.8253944    0.234726953484
     92   S      42             0.6401217    0.813757326146

     93   S      43             0.1612778    1.000000000000

 H         

    116   S      44            18.7311370    0.033494604338
    116   S      45             2.8253944    0.234726953484
    116   S      46             0.6401217    0.813757326146

    117   S      47             0.1612778    1.000000000000

 H         

    140   S      48            18.7311370    0.033494604338
    140   S      49             2.8253944    0.234726953484
    140   S      50             0.6401217    0.813757326146

    141   S      51             0.1612778    1.000000000000

 TOTAL NUMBER OF BASIS SET SHELLS             =  141
 NUMBER OF CARTESIAN GAUSSIAN BASIS FUNCTIONS =  331
 NUMBER OF ELECTRONS                          =  146
 CHARGE OF MOLECULE                           =    0
 SPIN MULTIPLICITY                            =    1
 NUMBER OF OCCUPIED ORBITALS (ALPHA)          =   73
 NUMBER OF OCCUPIED ORBITALS (BETA )          =   73
 TOTAL NUMBER OF ATOMS                        =   53
 THE NUCLEAR REPULSION ENERGY IS     1646.5665782459

     $CONTRL OPTIONS
     ---------------
 SCFTYP=RHF          RUNTYP=HESSIAN      EXETYP=RUN     
 MPLEVL=       0     CITYP =NONE         CCTYP =NONE         VBTYP =NONE    
 DFTTYP=NONE         TDDFT =NONE    
 MULT  =       1     ICHARG=       0     NZVAR =       0     COORD =UNIQUE  
 PP    =NONE         RELWFN=NONE         LOCAL =NONE         NUMGRD=       F
 ISPHER=      -1     NOSYM =       0     MAXIT =      30     UNITS =ANGS    
 PLTORB=       F     MOLPLT=       T     AIMPAC=       F     FRIEND=        
 NPRINT=       7     IREST =       0     GEOM  =INPUT   
 NORMF =       0     NORMP =       0     ITOL  =      20     ICUT  =       9
 INTTYP=BEST         GRDTYP=BEST         QMTTOL= 1.0E-06

     $SYSTEM OPTIONS
     ---------------
  REPLICATED MEMORY=    25000000 WORDS (ON EVERY NODE).
 DISTRIBUTED MEMDDI=           0 MILLION WORDS IN AGGREGATE,
 MEMDDI DISTRIBUTED OVER   1 PROCESSORS IS           0 WORDS/PROCESSOR.
 TOTAL MEMORY REQUESTED ON EACH PROCESSOR=    25000000 WORDS.
 TIMLIM=      525600.00 MINUTES, OR     365.0 DAYS.
 PARALL= F  BALTYP=  DLB     KDIAG=    0  COREFL= F
 MXSEQ2=     300 MXSEQ3=     150  mem10=         0

          ----------------
          PROPERTIES INPUT
          ----------------

     MOMENTS            FIELD           POTENTIAL          DENSITY
 IEMOM =       1   IEFLD =       0   IEPOT =       0   IEDEN =       0
 WHERE =COMASS     WHERE =NUCLEI     WHERE =NUCLEI     WHERE =NUCLEI  
 OUTPUT=BOTH       OUTPUT=BOTH       OUTPUT=BOTH       OUTPUT=BOTH    
 IEMINT=       0   IEFINT=       0                     IEDINT=       0
                                                       MORB  =       0
          EXTRAPOLATION IN EFFECT
          DIIS IN EFFECT
 ORBITAL PRINTING OPTION: NPREO=     1   331     2     1

     -------------------------------
     INTEGRAL TRANSFORMATION OPTIONS
     -------------------------------
     NWORD  =            0
     CUTOFF = 1.0E-09     MPTRAN =       0
     DIRTRF =       F     AOINTS =DUP     

          ----------------------
          INTEGRAL INPUT OPTIONS
          ----------------------
 NOPK  =       1 NORDER=       0 SCHWRZ=       T

     --------------------------------
     THE POINT GROUP IS T  , ORDER=12
     --------------------------------
 .. THE CHARACTERS OF THE -E- REPRESENTATIONS ARE COMPLEX NUMBERS ..

     DIMENSIONS OF THE SYMMETRY SUBSPACES ARE
 A   =   33     E   =   26     T   =   82

 ..... DONE SETTING UP THE RUN .....
 STEP CPU TIME =     0.02 TOTAL CPU TIME =        0.0 (    0.0 MIN)
 TOTAL WALL CLOCK TIME=        0.0 SECONDS, CPU UTILIZATION IS  66.67%

     ---------------------------------
     HESSIAN MATRIX CONTROL PARAMETERS
     ---------------------------------
     METHOD=ANALYTIC   NVIB  =       2   VIBSIZ= 0.01000
     RDHESS=       F   PURIFY=       F   PRTIFC=       F
     VIBANL=       T   DECOMP=       F   PROJCT=       F
     SCLFAC= 1.00000   PRTSCN=       F   NPRT  =       0
     PULCOR=       F   NPUN  =       0   REDOVB=       T
     HSSTYP=GENERAL 
     THERMOCHEMISTRY WILL BE PRINTED FOR    1 TEMPERATURES:
      298.15000
 Old integral subroutine is used

     ------------------------------
     CPHF RESPONSE SOLUTION OPTIONS
     ------------------------------
     POLAR  =       F     NWORD  =       0
     CPHF   =AO      

          ********************
          1 ELECTRON INTEGRALS
          ********************
 ...... END OF ONE-ELECTRON INTEGRALS ......
 STEP CPU TIME =     0.15 TOTAL CPU TIME =        0.2 (    0.0 MIN)
 TOTAL WALL CLOCK TIME=        0.2 SECONDS, CPU UTILIZATION IS  94.44%

          -------------
          GUESS OPTIONS
          -------------
          GUESS =HUCKEL            NORB  =       0          NORDER=       0
          MIX   =       F          PRTMO =       F          PUNMO =       F
          TOLZ  = 1.0E-08          TOLE  = 1.0E-05
          SYMDEN=       F          PURIFY=       F

 INITIAL GUESS ORBITALS GENERATED BY HUCKEL   ROUTINE.
 HUCKEL GUESS REQUIRES    894860 WORDS.

 SYMMETRIES FOR INITIAL GUESS ORBITALS FOLLOW.   BOTH SET(S).
    73 ORBITALS ARE OCCUPIED (   21 CORE ORBITALS).
    22=?A      23=?T      24=?T      25=?T      26=?T      27=?T      28=?T  
    29=?E      30=?E      31=?T      32=?T      33=?T      34=?A      35=?A  
    36=?T      37=?T      38=?T      39=?T      40=?T      41=?T      42=?E  
    43=?E      44=?T      45=?T      46=?T      47=?T      48=?T      49=?T  
    50=?T      51=?T      52=?T      53=?T      54=?T      55=?T      56=?E  
    57=?E      58=?A      59=?T      60=?T      61=?T      62=?A      63=?T  
    64=?T      65=?T      66=?E      67=?E      68=?T      69=?T      70=?T  
    71=?T      72=?T      73=?T      74=?T      75=?T      76=?T      77=?E  
    78=?E      79=?A      80=?A      81=?A      82=?A      83=?A  
 ...... END OF INITIAL ORBITAL SELECTION ......
 STEP CPU TIME =     0.63 TOTAL CPU TIME =        0.8 (    0.0 MIN)
 TOTAL WALL CLOCK TIME=        0.8 SECONDS, CPU UTILIZATION IS  97.56%

                    ----------------------
                    AO INTEGRAL TECHNOLOGY
                    ----------------------
     S,P,L SHELL ROTATED AXIS INTEGRALS, REPROGRAMMED BY
        KAZUYA ISHIMURA (IMS) AND JOSE SIERRA (SYNSTAR).
     S,P,D,L SHELL ROTATED AXIS INTEGRALS PROGRAMMED BY
        KAZUYA ISHIMURA (INSTITUTE FOR MOLECULAR SCIENCE).
     S,P,D,F,G SHELL TO TOTAL QUARTET ANGULAR MOMENTUM SUM 5,
        ERIC PROGRAM BY GRAHAM FLETCHER (ELORET AND NASA ADVANCED
        SUPERCOMPUTING DIVISION, AMES RESEARCH CENTER).
     S,P,D,F,G,L SHELL GENERAL RYS QUADRATURE PROGRAMMED BY
        MICHEL DUPUIS (PACIFIC NORTHWEST NATIONAL LABORATORY).

          --------------------
          2 ELECTRON INTEGRALS
          --------------------

 THE -PK- OPTION IS OFF, THE INTEGRALS ARE NOT IN SUPERMATRIX FORM.
 STORING   15000 INTEGRALS/RECORD ON DISK, USING 16 BYTES/INTEGRAL.
 TWO ELECTRON INTEGRAL EVALUATION REQUIRES  100407 WORDS OF MEMORY.
 SCHWARZ INEQUALITY OVERHEAD:     51516 INTEGRALS, T=        0.02
 II,JST,KST,LST =  1  1  1  1 NREC =         1 INTLOC =    1
 II,JST,KST,LST =  2  1  1  1 NREC =         1 INTLOC =    2
 II,JST,KST,LST =  3  1  1  1 NREC =         1 INTLOC =   34
 II,JST,KST,LST =  4  1  1  1 NREC =         1 INTLOC =  214
 II,JST,KST,LST =  5  1  1  1 NREC =         1 INTLOC =  776
 II,JST,KST,LST =  6  1  1  1 NREC =         1 INTLOC = 2864
 II,JST,KST,LST =  7  1  1  1 NREC =         1 INTLOC = 2864
 II,JST,KST,LST =  8  1  1  1 NREC =         1 INTLOC = 2864
 II,JST,KST,LST =  9  1  1  1 NREC =         1 INTLOC = 2864
 II,JST,KST,LST = 10  1  1  1 NREC =         1 INTLOC = 2864
 II,JST,KST,LST = 11  1  1  1 NREC =         1 INTLOC = 2864
 II,JST,KST,LST = 12  1  1  1 NREC =         1 INTLOC = 2864
 II,JST,KST,LST = 13  1  1  1 NREC =         1 INTLOC = 2864
 II,JST,KST,LST = 14  1  1  1 NREC =         1 INTLOC = 2864
 II,JST,KST,LST = 15  1  1  1 NREC =         1 INTLOC = 2864
 II,JST,KST,LST = 16  1  1  1 NREC =         1 INTLOC = 2864
 II,JST,KST,LST = 17  1  1  1 NREC =         1 INTLOC = 2864
 II,JST,KST,LST = 18  1  1  1 NREC =         1 INTLOC = 2864
 II,JST,KST,LST = 19  1  1  1 NREC =         1 INTLOC = 6825
 II,JST,KST,LST = 20  1  1  1 NREC =         3 INTLOC =13294
 II,JST,KST,LST = 21  1  1  1 NREC =        10 INTLOC = 2914
 II,JST,KST,LST = 22  1  1  1 NREC =        31 INTLOC =14035
 II,JST,KST,LST = 23  1  1  1 NREC =        31 INTLOC =14035
 II,JST,KST,LST = 24  1  1  1 NREC =        31 INTLOC =14035
 II,JST,KST,LST = 25  1  1  1 NREC =        31 INTLOC =14035
 II,JST,KST,LST = 26  1  1  1 NREC =        31 INTLOC =14035
 II,JST,KST,LST = 27  1  1  1 NREC =        31 INTLOC =14035
 II,JST,KST,LST = 28  1  1  1 NREC =        31 INTLOC =14035
 II,JST,KST,LST = 29  1  1  1 NREC =        31 INTLOC =14035
 II,JST,KST,LST = 30  1  1  1 NREC =        31 INTLOC =14035
 II,JST,KST,LST = 31  1  1  1 NREC =        31 INTLOC =14035
 II,JST,KST,LST = 32  1  1  1 NREC =        31 INTLOC =14035
 II,JST,KST,LST = 33  1  1  1 NREC =        31 INTLOC =14035
 II,JST,KST,LST = 34  1  1  1 NREC =        31 INTLOC =14035
 II,JST,KST,LST = 35  1  1  1 NREC =        31 INTLOC =14035
 II,JST,KST,LST = 36  1  1  1 NREC =        31 INTLOC =14035
 II,JST,KST,LST = 37  1  1  1 NREC =        31 INTLOC =14035
 II,JST,KST,LST = 38  1  1  1 NREC =        31 INTLOC =14035
 II,JST,KST,LST = 39  1  1  1 NREC =        31 INTLOC =14035
 II,JST,KST,LST = 40  1  1  1 NREC =        31 INTLOC =14035
 II,JST,KST,LST = 41  1  1  1 NREC =        31 INTLOC =14035
 II,JST,KST,LST = 42  1  1  1 NREC =        31 INTLOC =14035
 II,JST,KST,LST = 43  1  1  1 NREC =        31 INTLOC =14035
 II,JST,KST,LST = 44  1  1  1 NREC =        31 INTLOC =14035
 II,JST,KST,LST = 45  1  1  1 NREC =        31 INTLOC =14035
 II,JST,KST,LST = 46  1  1  1 NREC =        31 INTLOC =14035
 II,JST,KST,LST = 47  1  1  1 NREC =        31 INTLOC =14035
 II,JST,KST,LST = 48  1  1  1 NREC =        31 INTLOC =14035
 II,JST,KST,LST = 49  1  1  1 NREC =        31 INTLOC =14035
 II,JST,KST,LST = 50  1  1  1 NREC =        31 INTLOC =14035
 II,JST,KST,LST = 51  1  1  1 NREC =        31 INTLOC =14035
 II,JST,KST,LST = 52  1  1  1 NREC =        31 INTLOC =14035
 II,JST,KST,LST = 53  1  1  1 NREC =        31 INTLOC =14035
 II,JST,KST,LST = 54  1  1  1 NREC =        31 INTLOC =14035
 II,JST,KST,LST = 55  1  1  1 NREC =        31 INTLOC =14035
 II,JST,KST,LST = 56  1  1  1 NREC =        31 INTLOC =14035
 II,JST,KST,LST = 57  1  1  1 NREC =        31 INTLOC =14035
 II,JST,KST,LST = 58  1  1  1 NREC =        31 INTLOC =14035
 II,JST,KST,LST = 59  1  1  1 NREC =        31 INTLOC =14035
 II,JST,KST,LST = 60  1  1  1 NREC =        31 INTLOC =14035
 II,JST,KST,LST = 61  1  1  1 NREC =        31 INTLOC =14035
 II,JST,KST,LST = 62  1  1  1 NREC =        31 INTLOC =14035
 II,JST,KST,LST = 63  1  1  1 NREC =        31 INTLOC =14035
 II,JST,KST,LST = 64  1  1  1 NREC =        31 INTLOC =14035
 II,JST,KST,LST = 65  1  1  1 NREC =        31 INTLOC =14035
 II,JST,KST,LST = 66  1  1  1 NREC =        31 INTLOC =14035
 II,JST,KST,LST = 67  1  1  1 NREC =        40 INTLOC = 6814
 II,JST,KST,LST = 68  1  1  1 NREC =       144 INTLOC = 6067
 II,JST,KST,LST = 69  1  1  1 NREC =       594 INTLOC = 7642
 II,JST,KST,LST = 70  1  1  1 NREC =      1613 INTLOC = 3889
 II,JST,KST,LST = 71  1  1  1 NREC =      1613 INTLOC = 3889
 II,JST,KST,LST = 72  1  1  1 NREC =      1613 INTLOC = 3889
 II,JST,KST,LST = 73  1  1  1 NREC =      1613 INTLOC = 3889
 II,JST,KST,LST = 74  1  1  1 NREC =      1613 INTLOC = 3889
 II,JST,KST,LST = 75  1  1  1 NREC =      1613 INTLOC = 3889
 II,JST,KST,LST = 76  1  1  1 NREC =      1613 INTLOC = 3889
 II,JST,KST,LST = 77  1  1  1 NREC =      1613 INTLOC = 3889
 II,JST,KST,LST = 78  1  1  1 NREC =      1613 INTLOC = 3889
 II,JST,KST,LST = 79  1  1  1 NREC =      1613 INTLOC = 3889
 II,JST,KST,LST = 80  1  1  1 NREC =      1613 INTLOC = 3889
 II,JST,KST,LST = 81  1  1  1 NREC =      1613 INTLOC = 3889
 II,JST,KST,LST = 82  1  1  1 NREC =      1613 INTLOC = 3889
 II,JST,KST,LST = 83  1  1  1 NREC =      1613 INTLOC = 3889
 II,JST,KST,LST = 84  1  1  1 NREC =      1613 INTLOC = 3889
 II,JST,KST,LST = 85  1  1  1 NREC =      1613 INTLOC = 3889
 II,JST,KST,LST = 86  1  1  1 NREC =      1613 INTLOC = 3889
 II,JST,KST,LST = 87  1  1  1 NREC =      1613 INTLOC = 3889
 II,JST,KST,LST = 88  1  1  1 NREC =      1613 INTLOC = 3889
 II,JST,KST,LST = 89  1  1  1 NREC =      1613 INTLOC = 3889
 II,JST,KST,LST = 90  1  1  1 NREC =      1613 INTLOC = 3889
 II,JST,KST,LST = 91  1  1  1 NREC =      1613 INTLOC = 3889
 II,JST,KST,LST = 92  1  1  1 NREC =      1613 INTLOC = 3889
 II,JST,KST,LST = 93  1  1  1 NREC =      1782 INTLOC =11903
 II,JST,KST,LST = 94  1  1  1 NREC =      2165 INTLOC = 3110
 II,JST,KST,LST = 95  1  1  1 NREC =      2165 INTLOC = 3110
 II,JST,KST,LST = 96  1  1  1 NREC =      2165 INTLOC = 3110
 II,JST,KST,LST = 97  1  1  1 NREC =      2165 INTLOC = 3110
 II,JST,KST,LST = 98  1  1  1 NREC =      2165 INTLOC = 3110
 II,JST,KST,LST = 99  1  1  1 NREC =      2165 INTLOC = 3110
 II,JST,KST,LST =100  1  1  1 NREC =      2165 INTLOC = 3110
 II,JST,KST,LST =101  1  1  1 NREC =      2165 INTLOC = 3110
 II,JST,KST,LST =102  1  1  1 NREC =      2165 INTLOC = 3110
 II,JST,KST,LST =103  1  1  1 NREC =      2165 INTLOC = 3110
 II,JST,KST,LST =104  1  1  1 NREC =      2165 INTLOC = 3110
 II,JST,KST,LST =105  1  1  1 NREC =      2165 INTLOC = 3110
 II,JST,KST,LST =106  1  1  1 NREC =      2165 INTLOC = 3110
 II,JST,KST,LST =107  1  1  1 NREC =      2165 INTLOC = 3110
 II,JST,KST,LST =108  1  1  1 NREC =      2165 INTLOC = 3110
 II,JST,KST,LST =109  1  1  1 NREC =      2165 INTLOC = 3110
 II,JST,KST,LST =110  1  1  1 NREC =      2165 INTLOC = 3110
 II,JST,KST,LST =111  1  1  1 NREC =      2165 INTLOC = 3110
 II,JST,KST,LST =112  1  1  1 NREC =      2165 INTLOC = 3110
 II,JST,KST,LST =113  1  1  1 NREC =      2165 INTLOC = 3110
 II,JST,KST,LST =114  1  1  1 NREC =      2165 INTLOC = 3110
 II,JST,KST,LST =115  1  1  1 NREC =      2165 INTLOC = 3110
 II,JST,KST,LST =116  1  1  1 NREC =      2165 INTLOC = 3110
 II,JST,KST,LST =117  1  1  1 NREC =      2450 INTLOC = 9566
 II,JST,KST,LST =118  1  1  1 NREC =      3010 INTLOC = 3692
 II,JST,KST,LST =119  1  1  1 NREC =      3010 INTLOC = 3692
 II,JST,KST,LST =120  1  1  1 NREC =      3010 INTLOC = 3692
 II,JST,KST,LST =121  1  1  1 NREC =      3010 INTLOC = 3692
 II,JST,KST,LST =122  1  1  1 NREC =      3010 INTLOC = 3692
 II,JST,KST,LST =123  1  1  1 NREC =      3010 INTLOC = 3692
 II,JST,KST,LST =124  1  1  1 NREC =      3010 INTLOC = 3692
 II,JST,KST,LST =125  1  1  1 NREC =      3010 INTLOC = 3692
 II,JST,KST,LST =126  1  1  1 NREC =      3010 INTLOC = 3692
 II,JST,KST,LST =127  1  1  1 NREC =      3010 INTLOC = 3692
 II,JST,KST,LST =128  1  1  1 NREC =      3010 INTLOC = 3692
 II,JST,KST,LST =129  1  1  1 NREC =      3010 INTLOC = 3692
 II,JST,KST,LST =130  1  1  1 NREC =      3010 INTLOC = 3692
 II,JST,KST,LST =131  1  1  1 NREC =      3010 INTLOC = 3692
 II,JST,KST,LST =132  1  1  1 NREC =      3010 INTLOC = 3692
 II,JST,KST,LST =133  1  1  1 NREC =      3010 INTLOC = 3692
 II,JST,KST,LST =134  1  1  1 NREC =      3010 INTLOC = 3692
 II,JST,KST,LST =135  1  1  1 NREC =      3010 INTLOC = 3692
 II,JST,KST,LST =136  1  1  1 NREC =      3010 INTLOC = 3692
 II,JST,KST,LST =137  1  1  1 NREC =      3010 INTLOC = 3692
 II,JST,KST,LST =138  1  1  1 NREC =      3010 INTLOC = 3692
 II,JST,KST,LST =139  1  1  1 NREC =      3010 INTLOC = 3692
 II,JST,KST,LST =140  1  1  1 NREC =      3010 INTLOC = 3692
 II,JST,KST,LST =141  1  1  1 NREC =      3380 INTLOC = 2837
 SCHWARZ INEQUALITY TEST SKIPPED     2166798 INTEGRAL BLOCKS.
 TOTAL NUMBER OF NONZERO TWO-ELECTRON INTEGRALS =            61431466
       4096 INTEGRAL RECORDS WERE STORED ON DISK FILE  8.
  ...... END OF TWO-ELECTRON INTEGRALS .....
 STEP CPU TIME =     3.85 TOTAL CPU TIME =        4.7 (    0.1 MIN)
 TOTAL WALL CLOCK TIME=        4.7 SECONDS, CPU UTILIZATION IS  99.57%

          --------------------------
                 RHF SCF CALCULATION
          --------------------------

     NUCLEAR ENERGY =      1646.5665782459
     MAXIT =   30     NPUNCH=    2
     EXTRAP=T  DAMP=F  SHIFT=F  RSTRCT=F  DIIS=T  DEM=F  SOSCF=F
     DENSITY MATRIX CONV=  1.00E-05
     MEMORY REQUIRED FOR RHF ITERS=    802226 WORDS.

 ITER EX DEM     TOTAL ENERGY        E CHANGE  DENSITY CHANGE    DIIS ERROR
   1  0  0     -914.0825555222  -914.0825555222   0.216185576   1.724174677
          * * *   INITIATING DIIS PROCEDURE   * * *
   2  1  0     -915.6380816888    -1.5555261666   0.043721612   0.043140709
   3  2  0     -915.7147055849    -0.0766238962   0.030532801   0.026071355
   4  3  0     -915.7267748119    -0.0120692270   0.011348582   0.004620052
   5  4  0     -915.7279065245    -0.0011317125   0.002557675   0.001501365
   6  5  0     -915.7279516910    -0.0000451665   0.000526971   0.000380584
   7  6  0     -915.7279545040    -0.0000028130   0.000127236   0.000042253
   8  7  0     -915.7279545991    -0.0000000950   0.000057688   0.000018244
   9  8  0     -915.7279546104    -0.0000000113   0.000009971   0.000002144
  10  9  0     -915.7279546106    -0.0000000003   0.000002270   0.000000326
  11 10  0     -915.7279546107    -0.0000000000   0.000000143   0.000000049

          -----------------
          DENSITY CONVERGED
          -----------------
[...]
                   Z -0.00449705  0.01712378  0.02105332 -0.00376673
 18   H            X  0.00763328 -0.01049579  0.00716301 -0.00825510
                   Y -0.00711364  0.00467587 -0.00013868  0.00725686
                   Z -0.00600537  0.01068388 -0.00828865  0.00625470
 19   H            X -0.00214173  0.00615626 -0.00716301  0.00825510
                   Y -0.00404735 -0.00054767  0.00013868 -0.00725686
                   Z -0.00422017  0.00673567 -0.00828865  0.00625470
 20   H            X -0.00053382 -0.01098305 -0.00716301  0.00825510
                   Y -0.00679566 -0.00550572 -0.00013868  0.00725686
                   Z -0.00189572  0.01092907  0.00828865 -0.00625470
 21   H            X -0.00817871 -0.00669567  0.00127241  0.01030553
                   Y -0.00939659 -0.00456874  0.00356763  0.01033090
                   Z -0.00791731  0.00342686  0.00621528  0.00374853
 22   H            X -0.00319822 -0.00639853 -0.00127241 -0.01030553
                   Y  0.00366383  0.00422671  0.00356763  0.01033090
                   Z -0.00202864  0.00377818 -0.00621528 -0.00374853
 23   H            X -0.00606037 -0.01030433 -0.00127241 -0.01030553
                   Y -0.00518683 -0.01174021 -0.00356763 -0.01033090
                   Z  0.00074770  0.00878681  0.00621528  0.00374853
 24   H            X -0.00107989 -0.01000718  0.00127241  0.01030553
                   Y -0.00054593  0.01139818 -0.00356763 -0.01033090
                   Z -0.00514097  0.00843548 -0.00621528 -0.00374853
 25   H            X -0.00773785 -0.00344763 -0.00635396  0.00350833
                   Y -0.01216158 -0.00013521 -0.00956105 -0.00405083
                   Z -0.01286526 -0.00148696 -0.01073063 -0.00207579
 26   H            X -0.00470251 -0.00861843  0.00635396 -0.00350833
                   Y -0.00959437 -0.00450854  0.00956105  0.00405083
                   Z  0.00991029  0.00652086 -0.01073063 -0.00207579
 27   H            X  0.00124621 -0.00826352 -0.00635396  0.00350833
                   Y -0.01024356  0.00332497  0.00956105  0.00405083
                   Z -0.00905358  0.00538945  0.01073063  0.00207579
 28   H            X -0.00178912 -0.00309272  0.00635396 -0.00350833
                   Y -0.00767635 -0.00104835 -0.00956105 -0.00405083
                   Z  0.00609861 -0.00035555  0.01073063  0.00207579
 29   H            X -0.01030883  0.00566900  0.00716301 -0.00825510
                   Y -0.00986195 -0.00028218  0.00013868 -0.00725686
                   Z -0.00832982  0.00649048  0.00828865 -0.00625470
 30   H            X  0.02380232 -0.09121988  0.09354216 -0.02672441
                   Y -0.05310693  0.19897710 -0.20404695  0.05703007
                   Z  0.04953231 -0.18395317  0.18866044 -0.05355192
 31   H            X -0.07375638  0.07497452 -0.09354216  0.02672441
                   Y  0.15928875 -0.16284584  0.20404695 -0.05703007
                   Z  0.14722628 -0.15123148  0.18866044 -0.05355192
 32   H            X  0.06615192 -0.08869324 -0.09354216  0.02672441
                   Y  0.14220741 -0.19366122 -0.20404695  0.05703007
                   Z  0.13180925 -0.17904439 -0.18866044  0.05355192
 33   H            X  0.08438798  0.19780584  0.04795290 -0.19016069
                   Y -0.04139886 -0.09875781 -0.02362706  0.09437209
                   Z -0.09149159 -0.21367923 -0.05263399  0.20522487
 34   H            X  0.05135468  0.19583502 -0.04795290  0.19016069
                   Y  0.02510518  0.09778571 -0.02362706  0.09437209
                   Z -0.05489226 -0.21149565  0.05263399 -0.20522487
 35   H            X  0.12679798  0.12555903 -0.04795290  0.19016069
                   Y -0.06322815 -0.06157091  0.02362706 -0.09437209
                   Z  0.13741881  0.13544071 -0.05263399  0.20522487
 36   H            X  0.09376468  0.12358821  0.04795290 -0.19016069
                   Y  0.04693447  0.06059881  0.02362706 -0.09437209
                   Z  0.10081948  0.13325713  0.05263399 -0.20522487
 37   H            X -0.19466817  0.04128662 -0.15141296 -0.14819481
                   Y  0.18017316 -0.03775334  0.14070754  0.13660878
                   Z -0.08895049  0.01933613 -0.06991510 -0.06764768
 38   H            X -0.17580289  0.00914900  0.15141296  0.14819481
                   Y  0.16314600 -0.00874702 -0.14070754 -0.13660878
                   Z  0.08055184 -0.00502877 -0.06991510 -0.06764768
 39   H            X  0.23625242  0.03373291 -0.15141296 -0.14819481
                   Y  0.21857278  0.03152100 -0.14070754 -0.13660878
                   Z -0.10871555 -0.01632077  0.06991510  0.06764768
 40   H            X  0.21738713  0.06587053  0.15141296  0.14819481
                   Y  0.20154562  0.06052732  0.14070754  0.13660878
                   Z  0.10031690  0.03062814  0.06991510  0.06764768
 41   H            X -0.03140677  0.07750117  0.09354216 -0.02672441
                   Y -0.07018827  0.16816173  0.20404695 -0.05703007
                   Z  0.06494935 -0.15614026 -0.18866044  0.05355192
 42   H            X  0.01114166  0.15460385 -0.19219348 -0.00243502
                   Y  0.00823638  0.09771685 -0.12224919 -0.00218514
                   Z -0.00431708 -0.05834492  0.07306738  0.00111301
 43   H            X  0.18514839 -0.14182226  0.19219348  0.00243502
                   Y  0.11845588 -0.09004565  0.12224919  0.00218514
                   Z  0.07056345 -0.05450793  0.07306738  0.00111301
 44   H            X -0.18453464  0.14292948  0.19219348  0.00243502
                   Y  0.11839137 -0.09016203 -0.12224919 -0.00218514
                   Z  0.07092490 -0.05385586 -0.07306738 -0.00111301
 45   H            X  0.01021186  0.08711648  0.03749759 -0.06272170
                   Y  0.02900255  0.22806533  0.09820553 -0.16522692
                   Z -0.01733215 -0.14561827 -0.06301698  0.10477833
 46   H            X  0.01098631  0.08716269 -0.03749759  0.06272170
                   Y -0.02768751 -0.22798687  0.09820553 -0.16522692
                   Z -0.01719392 -0.14561003  0.06301698 -0.10477833
 47   H            X  0.04899566  0.02104702 -0.03749759  0.06272170
                   Y  0.12986475  0.05624330 -0.09820553  0.16522692
                   Z  0.08260297  0.03442731 -0.06301698  0.10477833
 48   H            X  0.04977011  0.02109323  0.03749759 -0.06272170
                   Y -0.12854971 -0.05616484 -0.09820553  0.16522692
                   Z  0.08246475  0.03441906  0.06301698 -0.10477833
 49   H            X -0.07740120  0.04699007 -0.05923221 -0.10696347
                   Y  0.04650242 -0.02750168  0.03556980  0.06383472
                   Z  0.12346637 -0.07288344  0.09398795  0.16766194
 50   H            X -0.07732995  0.04686869  0.05923221  0.10696347
                   Y  0.04690162 -0.02818173 -0.03556980 -0.06383472
                   Z -0.12278853  0.07172871  0.09398795  0.16766194
 51   H            X  0.13649987  0.05962614 -0.05923221 -0.10696347
                   Y  0.08161874  0.03584947 -0.03556980 -0.06383472
                   Z  0.21479081  0.09186926 -0.09398795 -0.16766194
 52   H            X  0.13642862  0.05974751  0.05923221  0.10696347
                   Y  0.08201794  0.03516942  0.03556980  0.06383472
                   Z -0.21411297 -0.09302399 -0.09398795 -0.16766194
 53   H            X -0.01052792 -0.15349663 -0.19219348 -0.00243502
                   Y  0.00817187  0.09760047  0.12224919  0.00218514
                   Z -0.00467852 -0.05899699 -0.07306738 -0.00111301

 TRANS. SAYVETZ    X -0.00000002 -0.00000004 -0.00000000 -0.00000000
                   Y -0.00000004 -0.00000000  0.00000000  0.00000000
                   Z -0.00000002  0.00000004  0.00000000 -0.00000000
               TOTAL  0.00000005  0.00000005  0.00000000  0.00000000

   ROT. SAYVETZ    X  0.00000001  0.00000003  0.00000000 -0.00000000
                   Y  0.00000003  0.00000000  0.00000000 -0.00000000
                   Z  0.00000002 -0.00000003  0.00000000 -0.00000000
               TOTAL  0.00000004  0.00000004  0.00000000  0.00000000

 REFERENCE ON SAYVETZ CONDITIONS - A. SAYVETZ, J.CHEM.PHYS., 7, 383-389(1939).

 NOTE - THE MODES J,K ARE ORTHONORMALIZED ACCORDING TO
 SUM ON I   M(I) * (X(I,J)*X(I,K) + Y(I,J)*Y(I,K) + Z(I,J)*Z(I,K)) = DELTA(J,K)

  MODE FREQ(CM**-1)  SYMMETRY  RED. MASS  IR INTENS.
     1       0.027    T        4.834887    0.000000
     2       0.027    T        4.834887    0.000000
     3       0.027    T        4.834887    0.000000
     4       1.307    T        3.432945    0.000000
     5       1.307    T        3.432945    0.000000
     6       1.307    T        3.432945    0.000000
     7     141.110    T        2.702364    0.000907
     8     141.110    T        2.702364    0.000907
     9     141.110    T        2.702364    0.000907
    10     160.227    E        3.324039    0.000000
    11     160.227    E        3.324039    0.000000
    12     179.733    A        2.834439    0.000000
    13     212.713    T        3.067612    0.006662
    14     212.713    T        3.067612    0.006662
    15     212.713    T        3.067612    0.006662
    16     223.806    T        2.254953    0.002301
    17     223.806    T        2.254953    0.002301
    18     223.806    T        2.254953    0.002301
    19     248.123    T        1.374714    0.001573
    20     248.123    T        1.374714    0.001573
    21     248.123    T        1.374714    0.001573
    22     271.890    T        1.675583    0.002887
    23     271.890    T        1.675583    0.002887
    24     271.890    T        1.675583    0.002887
    25     272.648    E        1.827234    0.000000
    26     272.648    E        1.827234    0.000000
    27     283.630    A        1.616693    0.000000
    28     308.353    A        1.624604    0.000000
    29     323.922    E        1.327034    0.000000
    30     323.922    E        1.327034    0.000000
    31     325.032    T        1.228031    0.008039
    32     325.032    T        1.228031    0.008039
    33     325.032    T        1.228031    0.008039
    34     361.480    T        1.077725    0.004534
    35     361.480    T        1.077725    0.004534
    36     361.480    T        1.077725    0.004534
    37     406.802    T        2.325431    0.023299
    38     406.802    T        2.325431    0.023299
    39     406.802    T        2.325431    0.023299
    40     449.776    T        2.174913    0.008536
    41     449.776    T        2.174913    0.008536
    42     449.776    T        2.174913    0.008536
    43     461.737    E        2.251597    0.000000
    44     461.737    E        2.251597    0.000000
    45     519.941    T        3.126252    0.511985
    46     519.941    T        3.126252    0.511985
    47     519.941    T        3.126252    0.511985
    48     590.247    A        2.288745    0.000000
    49     640.033    T        3.747656    0.811006
    50     640.033    T        3.747656    0.811006
    51     640.033    T        3.747656    0.811006
    52     880.108    T        2.708549    0.590640
    53     880.108    T        2.708549    0.590640
    54     880.108    T        2.708549    0.590640
    55     880.462    A        2.750496    0.000000
    56    1009.345    T        2.097224    0.000912
    57    1009.345    T        2.097224    0.000912
    58    1009.345    T        2.097224    0.000912
    59    1014.542    T        1.964176    0.203428
    60    1014.542    T        1.964176    0.203428
    61    1014.542    T        1.964176    0.203428
    62    1017.087    E        1.945804    0.000000
    63    1017.087    E        1.945804    0.000000
    64    1047.340    T        1.182918    0.000016
    65    1047.340    T        1.182918    0.000016
    66    1047.340    T        1.182918    0.000016
    67    1054.991    A        1.170840    0.000000
    68    1122.707    T        1.316988    0.000649
    69    1122.707    T        1.316988    0.000649
    70    1122.707    T        1.316988    0.000649
    71    1137.527    T        1.318600    0.161495
    72    1137.527    T        1.318600    0.161495
    73    1137.527    T        1.318600    0.161495
    74    1137.658    E        1.320892    0.000000
    75    1137.658    E        1.320892    0.000000
    76    1305.371    T        2.113154    0.000369
    77    1305.371    T        2.113154    0.000369
    78    1305.371    T        2.113154    0.000369
    79    1316.118    T        2.282653    0.012468
    80    1316.118    T        2.282653    0.012468
    81    1316.118    T        2.282653    0.012468
    82    1318.977    E        2.309226    0.000000
    83    1318.977    E        2.309226    0.000000
    84    1334.193    T        2.077310    0.033626
    85    1334.193    T        2.077310    0.033626
    86    1334.193    T        2.077310    0.033626
    87    1337.746    A        1.976635    0.000000
    88    1551.339    T        1.214246    0.000044
    89    1551.339    T        1.214246    0.000044
    90    1551.339    T        1.214246    0.000044
    91    1559.182    T        1.213881    0.021198
    92    1559.182    T        1.213881    0.021198
    93    1559.182    T        1.213881    0.021198
    94    1561.196    E        1.210960    0.000000
    95    1561.196    E        1.210960    0.000000
    96    1587.546    T        1.202671    0.232340
    97    1587.546    T        1.202671    0.232340
    98    1587.546    T        1.202671    0.232340
    99    1601.232    A        1.202319    0.000000
   100    1635.534    T        1.051428    0.002534
   101    1635.534    T        1.051428    0.002534
   102    1635.534    T        1.051428    0.002534
   103    1641.040    A        1.054443    0.000000
   104    1643.605    T        1.048366    0.030661
   105    1643.605    T        1.048366    0.030661
   106    1643.605    T        1.048366    0.030661
   107    1647.487    E        1.049677    0.000000
   108    1647.487    E        1.049677    0.000000
   109    1648.644    T        1.049520    0.034608
   110    1648.644    T        1.049520    0.034608
   111    1648.644    T        1.049520    0.034608
   112    1659.331    T        1.049776    0.037003
   113    1659.331    T        1.049776    0.037003
   114    1659.331    T        1.049776    0.037003
   115    1668.925    E        1.048677    0.000000
   116    1668.925    E        1.048677    0.000000
   117    1669.476    T        1.050042    0.209303
   118    1669.476    T        1.050042    0.209303
   119    1669.476    T        1.050042    0.209303
   120    1676.228    A        1.048614    0.000000
   121    1680.874    T        1.051115    0.261124
   122    1680.874    T        1.051115    0.261124
   123    1680.874    T        1.051115    0.261124
   124    3190.978    T        1.056595    0.067162
   125    3190.978    T        1.056595    0.067162
   126    3190.978    T        1.056595    0.067162
   127    3191.727    T        1.057901    0.539975
   128    3191.727    T        1.057901    0.539975
   129    3191.727    T        1.057901    0.539975
   130    3191.819    E        1.058229    0.000000
   131    3191.819    E        1.058229    0.000000
   132    3202.816    T        1.055024    4.609065
   133    3202.816    T        1.055024    4.609065
   134    3202.816    T        1.055024    4.609065
   135    3208.510    A        1.058545    0.000000
   136    3270.516    T        1.080748    0.267786
   137    3270.516    T        1.080748    0.267786
   138    3270.516    T        1.080748    0.267786
   139    3273.238    T        1.082389    3.798543
   140    3273.238    T        1.082389    3.798543
   141    3273.238    T        1.082389    3.798543
   142    3277.292    E        1.078687    0.000000
   143    3277.292    E        1.078687    0.000000
   144    3285.994    T        1.079247    0.002375
   145    3285.994    T        1.079247    0.002375
   146    3285.994    T        1.079247    0.002375
   147    3296.824    A        1.074962    0.000000
   148    3312.329    T        1.099718    1.080217
   149    3312.329    T        1.099718    1.080217
   150    3312.329    T        1.099718    1.080217
   151    3313.130    T        1.101638    0.006237
   152    3313.130    T        1.101638    0.006237
   153    3313.130    T        1.101638    0.006237
   154    3317.154    A        1.102063    0.000000
   155    3325.747    T        1.099659    1.793646
   156    3325.747    T        1.099659    1.793646
   157    3325.747    T        1.099659    1.793646
   158    3328.618    E        1.099456    0.000000
   159    3328.618    E        1.099456    0.000000

     -------------------------------
     THERMOCHEMISTRY AT T=  298.15 K
     -------------------------------

 USING IDEAL GAS, RIGID ROTOR, HARMONIC NORMAL MODE APPROXIMATIONS.
 P=  1.01325E+05 PASCAL.
 ALL FREQUENCIES ARE SCALED BY   1.00000
 THE MOMENTS OF INERTIA ARE (IN AMU*BOHR**2)
   4487.51175  4487.51175  4487.51175
 THE ROTATIONAL SYMMETRY NUMBER IS 12.0
 THE ROTATIONAL CONSTANTS ARE (IN GHZ)
      0.40180     0.40180     0.40180
      7 -    159 VIBRATIONAL MODES ARE USED IN THERMOCHEMISTRY.
 THE HARMONIC ZERO POINT ENERGY IS (SCALED BY   1.000)
        0.528583 HARTREE/MOLECULE   116010.609072 CM**-1/MOLECULE 
      331.691309 KCAL/MOL             1387.796436 KJ/MOL

               Q               LN Q
 ELEC.     1.00000E+00       0.000000
 TRANS.    1.61240E+08      18.898402
 ROT.      2.83575E+05      12.555233
 VIB.      5.02748E+05      13.127843
 TOT.      2.29874E+19      44.581478

              E         H         G         CV        CP        S
           KJ/MOL    KJ/MOL    KJ/MOL   J/MOL-K   J/MOL-K   J/MOL-K
 ELEC.      0.000     0.000     0.000     0.000     0.000     0.000
 TRANS.     3.718     6.197   -46.848    12.472    20.786   177.915
 ROT.       3.718     3.718   -31.124    12.472    12.472   116.861
 VIB.    1437.877  1437.877  1355.253   346.100   346.100   277.120
 TOTAL   1445.314  1447.793  1277.282   371.043   379.358   571.896
 VIB. THERMAL CORRECTION E(T)-E(0) = H(T)-H(0) = 50080.320 J/MOL

              E         H         G         CV        CP        S
         KCAL/MOL  KCAL/MOL  KCAL/MOL CAL/MOL-K CAL/MOL-K CAL/MOL-K
 ELEC.      0.000     0.000     0.000     0.000     0.000     0.000
 TRANS.     0.889     1.481   -11.197     2.981     4.968    42.523
 ROT.       0.889     0.889    -7.439     2.981     2.981    27.930
 VIB.     343.661   343.661   323.913    82.720    82.720    66.233
 TOTAL    345.438   346.031   305.278    88.681    90.669   136.687
 VIB. THERMAL CORRECTION E(T)-E(0) = H(T)-H(0) = 11969.484 CAL/MOL
 ......END OF NORMAL COORDINATE ANALYSIS......
 STEP CPU TIME =     0.09 TOTAL CPU TIME =      864.2 (   14.4 MIN)
 TOTAL WALL CLOCK TIME=      922.3 SECONDS, CPU UTILIZATION IS  93.71%
 AN INPUT FILE FOR -MOLPLT- HAS BEEN PUNCHED.
             21765314  WORDS OF DYNAMIC MEMORY USED
 EXECUTION OF GAMESS TERMINATED NORMALLY Fri Jun  2 03:09:35 2017
 DDI: 263640 bytes (0.3 MB / 0 MWords) used by master data server.

 ----------------------------------------
 CPU timing information for all processes
 ========================================
 0: 844.551 + 19.677 = 864.228
 ----------------------------------------
 ddikick.x: exited gracefully.
unset echo
----- accounting info -----
Files used on the master node compute-0-8.local were:
-rw-rw-r-- 1 sarom sarom        4074 Jun  2 02:54 /scratch/tbs.F05
-rw-rw-r-- 1 sarom sarom 10072271440 Jun  2 02:59 /scratch/tbs.F08
-rw-rw-r-- 1 sarom sarom    14593120 Jun  2 03:09 /scratch/tbs.F10
-rw-rw-r-- 1 sarom sarom    69892584 Jun  2 02:59 /scratch/tbs.F18
rm: cannot remove `/scratch/sarom': Is a directory
rm: cannot remove `/scratch/tmp': Is a directory
ls: No match.
ls: No match.
ls: No match.
Fri Jun  2 03:09:39 CDT 2017
0.221u 1.356s 15:27.06 0.1%	0+0k 8+376io 0pf+0w
Deleting shmid=2785280.
Deleting shmid=2818049.
/opt/gridengine/default/spool/compute-0-8/active_jobs/23784.1/pe_hostfile compute-0-8.local
