----- GAMESS execution script 'rungms' -----
This job is running on host compute-3-0
under operating system Linux at Mon Nov 28 23:32:22 CST 2016
Available scratch disk space (Kbyte units) at beginning of the job is
Filesystem            1K-blocks       Used  Available Use% Mounted on
bolt.local:/export/home/sarom
                     9590469632 1553466368 7549835264  18% /home/sarom
Copying input file efp1-qm-c-opt.inp to your run's scratch directory...
cp efp1-qm-c-opt.inp .//efp1-qm-c-opt.F05
unset echo
/home/sarom/gamessGH/ddikick.x /home/sarom/gamessGH/gamess.00.x efp1-qm-c-opt -ddi 1 1 localhost -scr ./

 Distributed Data Interface kickoff program.
 Initiating 1 compute processes on 1 nodes to run the following command:
 /home/sarom/gamessGH/gamess.00.x efp1-qm-c-opt 

          ******************************************************
          *         GAMESS VERSION = 18 AUG 2016 (R1)          *
          *             FROM IOWA STATE UNIVERSITY             *
          * M.W.SCHMIDT, K.K.BALDRIDGE, J.A.BOATZ, S.T.ELBERT, *
          *   M.S.GORDON, J.H.JENSEN, S.KOSEKI, N.MATSUNAGA,   *
          *          K.A.NGUYEN, S.J.SU, T.L.WINDUS,           *
          *       TOGETHER WITH M.DUPUIS, J.A.MONTGOMERY       *
          *         J.COMPUT.CHEM.  14, 1347-1363(1993)        *
          **************** 64 BIT LINUX VERSION ****************

  SINCE 1993, STUDENTS AND POSTDOCS WORKING AT IOWA STATE UNIVERSITY
  AND ALSO IN THEIR VARIOUS JOBS AFTER LEAVING ISU HAVE MADE IMPORTANT
  CONTRIBUTIONS TO THE CODE:
     IVANA ADAMOVIC, CHRISTINE AIKENS, YURI ALEXEEV, POOJA ARORA,
     ANDREY ASADCHEV, ROB BELL, PRADIPTA BANDYOPADHYAY, JONATHAN BENTZ,
     BRETT BODE, KURT BRORSEN, CALEB CARLIN, GALINA CHABAN, WEI CHEN,
     CHEOL HO CHOI, PAUL DAY, ALBERT DEFUSCO, NUWAN DESILVA, TIM DUDLEY,
     DMITRI FEDOROV, GRAHAM FLETCHER, MARK FREITAG, KURT GLAESEMANN,
     DAN KEMP, GRANT MERRILL, NORIYUKI MINEZAWA, JONATHAN MULLIN,
     TAKESHI NAGATA, SEAN NEDD, HEATHER NETZLOFF, BOSILJKA NJEGIC, RYAN OLSON,
     MIKE PAK, SPENCER PRUITT, LUKE ROSKOP, JIM SHOEMAKER, LYUDMILA SLIPCHENKO,
     TONY SMITH, SAROM SOK LEANG, JIE SONG, TETSUYA TAKETSUGU, SIMON WEBB,
     PENG XU, SOOHAENG YOO, FEDERICO ZAHARIEV

  ADDITIONAL CODE HAS BEEN PROVIDED BY COLLABORATORS IN OTHER GROUPS:
     IOWA STATE UNIVERSITY:
          JOE IVANIC, AARON WEST, LAIMUTIS BYTAUTAS, KLAUS RUEDENBERG
     UNIVERSITY OF TOKYO: KIMIHIKO HIRAO, TAKAHITO NAKAJIMA,
          TAKAO TSUNEDA, MUNEAKI KAMIYA, SUSUMU YANAGISAWA,
          KIYOSHI YAGI, MAHITO CHIBA, SEIKEN TOKURA, NAOAKI KAWAKAMI
     UNIVERSITY OF AARHUS: FRANK JENSEN
     UNIVERSITY OF IOWA: VISVALDAS KAIRYS, HUI LI
     NATIONAL INST. OF STANDARDS AND TECHNOLOGY: WALT STEVENS, DAVID GARMER
     UNIVERSITY OF PISA: BENEDETTA MENNUCCI, JACOPO TOMASI
     UNIVERSITY OF MEMPHIS: HENRY KURTZ, PRAKASHAN KORAMBATH
     UNIVERSITY OF ALBERTA: TOBY ZENG, MARIUSZ KLOBUKOWSKI
     UNIVERSITY OF NEW ENGLAND: MARK SPACKMAN
     MIE UNIVERSITY: HIROAKI UMEDA
     NAT. INST. OF ADVANCED INDUSTRIAL SCIENCE AND TECHNOLOGY: KAZUO KITAURA
     MICHIGAN STATE UNIVERSITY:
          KAROL KOWALSKI, MARTA WLOCH, JEFFREY GOUR, JESSE LUTZ,
          WEI LI, PIOTR PIECUCH
     UNIVERSITY OF SILESIA: MONIKA MUSIAL, STANISLAW KUCHARSKI
     FACULTES UNIVERSITAIRES NOTRE-DAME DE LA PAIX:
          OLIVIER QUINET, BENOIT CHAMPAGNE
     UNIVERSITY OF CALIFORNIA - SANTA BARBARA: BERNARD KIRTMAN
     INSTITUTE FOR MOLECULAR SCIENCE:
          KAZUYA ISHIMURA, MICHIO KATOUDA, AND SHIGERU NAGASE
     UNIVERSITY OF NOTRE DAME: ANNA POMOGAEVA, DAN CHIPMAN
     KYUSHU UNIVERSITY:
          HARUYUKI NAKANO,
          FENG LONG GU, JACEK KORCHOWIEC, MARCIN MAKOWSKI, AND YURIKO AOKI,
          HIROTOSHI MORI AND EISAKU MIYOSHI
     PENNSYLVANIA STATE UNIVERSITY:
          TZVETELIN IORDANOV, CHET SWALINA, JONATHAN SKONE,
          SHARON HAMMES-SCHIFFER
     WASEDA UNIVERSITY:
          MASATO KOBAYASHI, TOMOKO AKAMA, TSUGUKI TOUMA,
          TAKESHI YOSHIKAWA, YASUHIRO IKABATA, JUNJI SEINO,
          YUYA NAKAJIMA, HIROMI NAKAI
     NANJING UNIVERSITY: SHUHUA LI
     UNIVERSITY OF NEBRASKA:
          PEIFENG SU, DEJUN SI, NANDUN THELLAMUREGE, YALI WANG, HUI LI
     UNIVERSITY OF ZURICH: ROBERTO PEVERATI, KIM BALDRIDGE
     N. COPERNICUS UNIVERSITY AND JACKSON STATE UNIVERSITY:
          MARIA BARYSZ
     UNIVERSITY OF COPENHAGEN: Jimmy Kromann, CASPER STEINMANN
     TOKYO INSTITUTE OF TECHNOLOGY: HIROYA NAKATA
     NAGOYA UNIVERSITY: YOSHIO NISHIMOTO, STEPHAN IRLE
     MOSCOW STATE UNIVERSITY: VLADIMIR MIRONOV

 EXECUTION OF GAMESS BEGUN Mon Nov 28 23:32:22 2016

            ECHO OF THE FIRST FEW INPUT CARDS -
 INPUT CARD>!   HNO (QM) plus two H2O (EFP1)....EFP position constraint test.               
 INPUT CARD>!   Expected result is case c, subcase i.    Test created April 2012.           
 INPUT CARD>!                                                                               
 INPUT CARD>!   This test shows IFREEZ is ignored during optimization,                      
 INPUT CARD>!   but POSITION=FIXED works.                                                   
 INPUT CARD>!   See also a similar hessian test case.                                       
 INPUT CARD>!                                                                               
 INPUT CARD>!      Starting from the 6-31G(d,p) all-QM structure,                           
 INPUT CARD>!   a) the unconstrained QM/EFP optimization takes 22 steps to converge,        
 INPUT CARD>!      finding E= -129.8084450336 and R.M.S.=  0.0000022                        
 INPUT CARD>!   b) using the IFREEZ constraints takes 17 steps to converge,                 
 INPUT CARD>!      finding E= -129.8084450325 and R.M.S.=  0.0000019                        
 INPUT CARD>!      Since this is essentially the same energy as the run with no             
 INPUT CARD>!      constraints, and the 'EFP-EFP EXCHANGE REPULSION' does change,           
 INPUT CARD>!      and the atom positions move (see below), this probably did not           
 INPUT CARD>!      actually constrain the EFP positions.                                    
 INPUT CARD>!      Mystery: if IFREEZ is ignored, why does it take 17 steps instead of 22?  
 INPUT CARD>!   c) using the POSITION=FIXED constraints                                     
 INPUT CARD>!          i) with HESS = GUESS,                                                
 INPUT CARD>!             we find E= -129.8082919121 in 19 total steps, r.m.s.= 0.0000015   
 INPUT CARD>!         ii) with HESS = CALC,                                                 
 INPUT CARD>!             we find E= -129.8082919126 in 11 total steps, r.m.s.= 0.0000016   
 INPUT CARD>!      It appears that POSITION=FIXED cannot handle a hessian with zero         
 INPUT CARD>!      eigenvalues, so the initial guess is now adjusted to have that           
 INPUT CARD>!      property.   note that hess=calc turns out this way too.  The             
 INPUT CARD>!      manual shows us Hui knew projection must be avoided, to change           
 INPUT CARD>!      the hessian to have zero T/R motions.                                    
 INPUT CARD>!                                                                               
 INPUT CARD>!   This run takes 6 seconds on 2.66 GHz Cloverton (26 Oct 2015)                
 INPUT CARD>!   results have not changed since 2012                                         
 INPUT CARD>!                                                                               
 INPUT CARD>!   note: some optimized coordinates are at the end of this file                
 INPUT CARD>!                                                                               
 INPUT CARD> $contrl scftyp=rhf runtyp=optimize nzvar=0 $end                                
 INPUT CARD> $system mwords=1 $end                                                          
 INPUT CARD> $basis  gbasis=n31 ngauss=6 ndfunc=1 npfunc=1 $end                             
 INPUT CARD> $guess  guess=huckel $end                                                      
 INPUT CARD> $statpt opttol=1d-5 $end                                                       
 INPUT CARD>!           we have 6 T+R degrees of freedom for each EFP to freeze:            
 INPUT CARD>x$statpt ifreez(1)=10,11,12,13,14,15,   16,17,18,19,20,21 $end                  
 INPUT CARD>!           FIXED run is a bit more robust with a computed hessian.             
 INPUT CARD> $statpt hess=guess hssend=.false. $end                                         
 INPUT CARD> $data                                                                          
 INPUT CARD>HNO plus two waters (NH...OH(u)...OH(d) ring)...using all QM geometry here      
 INPUT CARD>C1                                                                              
 INPUT CARD>H     1.0   1.3419875361   0.3981155179   0.1106968988                          
 INPUT CARD>N     7.0   1.2204850926  -0.5804266758   0.3965444928                          
 INPUT CARD>O     8.0   2.2417060868  -1.0390269402   0.7592852538                          
 INPUT CARD> $end                                                                           
 INPUT CARD> $efrag                                                                         
    1000000 WORDS OF MEMORY AVAILABLE

     BASIS OPTIONS
     -------------
     GBASIS=N31          IGAUSS=       6      POLAR=POPN31  
     NDFUNC=       1     NFFUNC=       0     DIFFSP=       F
     NPFUNC=       1      DIFFS=       F     BASNAM=        


     RUN TITLE
     ---------
 HNO plus two waters (NH...OH(u)...OH(d) ring)...using all QM geometry here      

 THE POINT GROUP OF THE MOLECULE IS C1      
 THE ORDER OF THE PRINCIPAL AXIS IS     0

 ATOM      ATOMIC                      COORDINATES (BOHR)
           CHARGE         X                   Y                   Z
 H           1.0     2.5359887222        0.7523292403        0.2091868064
 N           7.0     2.3063823971       -1.0968473732        0.7493604333
 O           8.0     4.2362102491       -1.9634762108        1.4348410762

          INTERNUCLEAR DISTANCES (ANGS.)
          ------------------------------

                1 H          2 N          3 O     

   1 H       0.0000000    1.0266531 *  1.8153619 *
   2 N       1.0266531 *  0.0000000    1.1767699 *
   3 O       1.8153619 *  1.1767699 *  0.0000000  

  * ... LESS THAN  3.000


     ATOMIC BASIS SET
     ----------------
 THE CONTRACTED PRIMITIVE FUNCTIONS HAVE BEEN UNNORMALIZED
 THE CONTRACTED BASIS FUNCTIONS ARE NOW NORMALIZED TO UNITY

  SHELL TYPE  PRIMITIVE        EXPONENT          CONTRACTION COEFFICIENT(S)

 H         

      1   S       1            18.7311370    0.033494604338
      1   S       2             2.8253944    0.234726953484
      1   S       3             0.6401217    0.813757326146

      2   S       4             0.1612778    1.000000000000

      3   P       5             1.1000000    1.000000000000

 N         

      4   S       6          4173.5114600    0.001834772160
      4   S       7           627.4579110    0.013994627002
      4   S       8           142.9020930    0.068586551812
      4   S       9            40.2343293    0.232240873040
      4   S      10            12.8202129    0.469069948082
      4   S      11             4.3904370    0.360455199063

      5   L      12            11.6263619   -0.114961181702    0.067579743878
      5   L      13             2.7162798   -0.169117478561    0.323907295893
      5   L      14             0.7722184    1.145851947027    0.740895139755

      6   L      15             0.2120315    1.000000000000    1.000000000000

      7   D      16             0.8000000    1.000000000000

 O         

      8   S      17          5484.6716600    0.001831074430
      8   S      18           825.2349460    0.013950172200
      8   S      19           188.0469580    0.068445078098
      8   S      20            52.9645000    0.232714335992
      8   S      21            16.8975704    0.470192897984
      8   S      22             5.7996353    0.358520852987

      9   L      23            15.5396162   -0.110777549525    0.070874268231
      9   L      24             3.5999336   -0.148026262701    0.339752839147
      9   L      25             1.0137618    1.130767015354    0.727158577316

     10   L      26             0.2700058    1.000000000000    1.000000000000

     11   D      27             0.8000000    1.000000000000

 TOTAL NUMBER OF BASIS SET SHELLS             =   11
 NUMBER OF CARTESIAN GAUSSIAN BASIS FUNCTIONS =   35
 NUMBER OF ELECTRONS                          =   16
 CHARGE OF MOLECULE                           =    0
 SPIN MULTIPLICITY                            =    1
 NUMBER OF OCCUPIED ORBITALS (ALPHA)          =    8
 NUMBER OF OCCUPIED ORBITALS (BETA )          =    8
 TOTAL NUMBER OF ATOMS                        =    3
 THE NUCLEAR REPULSION ENERGY IS       31.1225016647

     $CONTRL OPTIONS
     ---------------
 SCFTYP=RHF          RUNTYP=OPTIMIZE     EXETYP=RUN     
 MPLEVL=       0     CITYP =NONE         CCTYP =NONE         VBTYP =NONE    
 DFTTYP=NONE         TDDFT =NONE    
 MULT  =       1     ICHARG=       0     NZVAR =       0     COORD =UNIQUE  
 PP    =NONE         RELWFN=NONE         LOCAL =NONE         NUMGRD=       F
 ISPHER=      -1     NOSYM =       0     MAXIT =      30     UNITS =ANGS    
 PLTORB=       F     MOLPLT=       F     AIMPAC=       F     FRIEND=        
 NPRINT=       7     IREST =       0     GEOM  =INPUT   
 NORMF =       0     NORMP =       0     ITOL  =      20     ICUT  =       9
 INTTYP=BEST         GRDTYP=BEST         QMTTOL= 1.0E-06

     $SYSTEM OPTIONS
     ---------------
  REPLICATED MEMORY=     1000000 WORDS (ON EVERY NODE).
 DISTRIBUTED MEMDDI=           0 MILLION WORDS IN AGGREGATE,
 MEMDDI DISTRIBUTED OVER   1 PROCESSORS IS           0 WORDS/PROCESSOR.
 TOTAL MEMORY REQUESTED ON EACH PROCESSOR=     1000000 WORDS.
 TIMLIM=      525600.00 MINUTES, OR     365.0 DAYS.
 PARALL= F  BALTYP=  DLB     KDIAG=    0  COREFL= F
 MXSEQ2=     300 MXSEQ3=     150  mem10=         0

 READING $EFRAG GROUP
 COORD=CART      POSITION=FIXED     POLMETHD=FRGSCF   NBUFFMO=0
 READING COORDINATES OF FRAGMENT   1 NAMED   H2ORHF
 READING COORDINATES OF FRAGMENT   2 NAMED   H2ORHF
 FINISHED READING $EFRAG GROUP,   2 FRAGMENTS WILL BE USED.



     SUMMARY OF THE EFFECTIVE FRAGMENT POTENTIAL MODEL CHOSEN
     --------------------------------------------------------
 TOTAL NUMBER OF MULTIPOLE POINTS   =        16  (EFP1/EFP2 ELECTROSTATICS)
 TOTAL NUMBER OF POLARIZABLE POINTS =        10  (EFP1/EFP2 INDUCTION)
 TOTAL NUMBER OF L-J POINTS         =         0  (REPULSION AND DISPERSION)
 TOTAL NUMBER OF REPULSIVE POINTS   =         6  (EFP1 REPULSION/ETC.)

 THIS IS A -EFP1- TYPE RUN, WITH PAULI REPULSION, CHARGE TRANSFER, AND
 HIGHER ORDER EFFECTS COLLECTED IN A FITTED REPULSIVE POTENTIAL.

 OPTIONS FOR EFP SCREENING:
     ELECTROSTATIC AB INITIO-EFP GAUSSIAN SCREENING IS ON
     ELECTROSTATIC EFP-EFP SCREENING CHOICE IS GAUSSIAN, FOR CHARGE/CHARGE
     POLARIZATION EFP-EFP SCREENING IS OFF

     $EWALD OPTIONS
     -----------

     IFEWLD   =        F         TINFOIL        =        T
     BETA    =    0.200         ELECTRIC CONST =     1.00
     EPSILON =     1.00         CUT_OFF        = 0.10E+04
     CUTLIST =  1000.00         LEVEL          =    1
     KMAX    =       10         EWLDPL         =        F

            MULTIPOLE COORDINATES, ELECTRONIC AND NUCLEAR CHARGES

                  X              Y              Z           ELEC.   NUC.
 ZO1       -3.3657510540  -0.7620151729  -0.5896930986    8.00000    0.0
 ZH2       -1.9640640117  -1.6172126911   0.1069380025    1.00000    0.0
 ZH3       -3.9692576667  -1.7732218642  -1.9293292607    1.00000    0.0
 O1        -3.3657510540  -0.7620151729  -0.5896930986   -8.21083    0.0
 H2        -1.9640640117  -1.6172126911   0.1069380025   -0.55665    0.0
 H3        -3.9692576667  -1.7732218642  -1.9293292607   -0.55665    0.0
 B12       -2.6649077203  -1.1896134937  -0.2413773971   -0.33793    0.0
 B13       -3.6675045478  -1.2676180803  -1.2595110286   -0.33793    0.0
 ZO1       -0.1466747167   3.6026236074  -1.2561099196    8.00000    0.0
 ZH2       -0.7090103813   5.1255694330  -0.5173279063    1.00000    0.0
 ZH3       -1.5382918937   2.4869278896  -1.2531185027    1.00000    0.0
 O1        -0.1466747167   3.6026236074  -1.2561099196   -8.21083    0.0
 H2        -0.7090103813   5.1255694330  -0.5173279063   -0.55665    0.0
 H3        -1.5382918937   2.4869278896  -1.2531185027   -0.55665    0.0
 B12       -0.4278420901   4.3640964246  -0.8867190871   -0.33793    0.0
 B13       -0.8424828464   3.0447756529  -1.2546143853   -0.33793    0.0

   CHARGE SCREENING PARAMETERS (COEF AND ZETA)
   ICHGP=   3 AI-FRAGMENT SCREENING= 1   FRAGMENT-FRAGMENT SCREENING= 1

             GAUSSIAN DAMPING    EXPONENTIAL DAMPING
 ZO1        3.17107   0.30798      3.17107   0.30798
 ZH2       -0.74355   0.22035     -0.74355   0.22035
 ZH3       -0.74355   0.22035     -0.74355   0.22035
 O1         3.06389   0.30817      3.06389   0.30817
 H2        -1.50149   0.23358     -1.50149   0.23358
 H3        -1.50149   0.23358     -1.50149   0.23358
 B12        1.99014   0.44003      1.99014   0.44003
 B13        1.99014   0.44003      1.99014   0.44003
 ZO1        3.17107   0.30798      3.17107   0.30798
 ZH2       -0.74355   0.22035     -0.74355   0.22035
 ZH3       -0.74355   0.22035     -0.74355   0.22035
 O1         3.06389   0.30817      3.06389   0.30817
 H2        -1.50149   0.23358     -1.50149   0.23358
 H3        -1.50149   0.23358     -1.50149   0.23358
 B12        1.99014   0.44003      1.99014   0.44003
 B13        1.99014   0.44003      1.99014   0.44003

   SCREENING FOR POLARIZATION WITH EXPONENTIAL FORMULA  OFF

   SCREENING FOR POLARIZATION WITH TANG-TOENNIS FORMULA  OFF

                  DIPOLE MOMENTS AND THE SECOND MOMENT TENSOR

                  X        Y        Z           XX/XY    YY/XZ    ZZ/YZ
 O1            0.16326 -0.38175 -0.13152     -4.01859 -4.18166 -4.02773
                                             -0.12191  0.42117  0.16458
 H2            0.04748 -0.02046  0.03001     -0.27354 -0.27656 -0.28166
                                             -0.00821  0.00458 -0.00165
 H3           -0.02748 -0.02629 -0.04611     -0.28202 -0.27502 -0.27472
                                              0.00137  0.00369  0.00868
 B12          -0.14168  0.08546 -0.07115     -0.13057 -0.14120 -0.14326
                                             -0.01333  0.01484 -0.00116
 B13           0.06181  0.10130  0.13549     -0.14392 -0.13877 -0.13233
                                              0.00176  0.01344  0.01511
 O1           -0.39966  0.08330  0.15172     -4.06882 -3.72595 -4.43322
                                              0.17036 -0.08298  0.25832
 H2           -0.00897  0.05442  0.02304     -0.27834 -0.27221 -0.28121
                                             -0.00550 -0.00401  0.00636
 H3           -0.03997 -0.04422 -0.00446     -0.26975 -0.27791 -0.28410
                                              0.00726 -0.00183  0.00039
 B12           0.05568 -0.15426 -0.07445     -0.14246 -0.12305 -0.14950
                                             -0.00494 -0.00611  0.01402
 B13           0.13984  0.11351  0.00022     -0.12895 -0.13202 -0.15406
                                              0.01516 -0.00267  0.00461

                  THE THIRD MOMENT TENSOR

               XXX/XYY  YYY/YYZ  ZZZ/XZZ  XXY/YZZ  XXZ/XYZ
 O1            0.35217 -0.87934 -0.28318 -0.27510 -0.11204
               0.12678 -0.09635  0.13125 -0.27239  0.01968
 H2            0.04193 -0.01526  0.03507  0.00099  0.00661
               0.01264  0.01033  0.01487 -0.00489  0.00316
 H3           -0.03297 -0.02025 -0.04226 -0.00727 -0.01520
              -0.00923 -0.01092 -0.00691 -0.00086  0.00305
 B12          -0.41934  0.23674 -0.22386  0.07890 -0.07457
              -0.13962 -0.07561 -0.14148  0.07731 -0.00095
 B13           0.19769  0.28486  0.40245  0.09337  0.13612
               0.06641  0.13385  0.06595  0.09491 -0.00087
 O1           -0.90939  0.17009  0.34840  0.08546  0.11978
              -0.27667  0.09889 -0.30770  0.05578  0.00578
 H2           -0.00362  0.04783  0.02336  0.01801  0.00668
               0.00354  0.00115 -0.00028  0.01736  0.00291
 H3           -0.02861 -0.04661 -0.00710 -0.00869 -0.00307
              -0.00697 -0.00214 -0.01382 -0.01753 -0.00007
 B12           0.14397 -0.46316 -0.21698 -0.15592 -0.07167
               0.04688 -0.07252  0.04943 -0.15343 -0.00034
 B13           0.40021  0.35115  0.00825  0.11601  0.00357
               0.13268  0.00514  0.13356  0.11635 -0.00082

                  POLARIZABLE POINTS AND THE POLARIZABILITY TENSOR

              X       Y       Z       XX/YZ    YY/YX    ZZ/ZX    XY/ZY     XZ
 LMO1     -3.3657 -0.7622 -0.5898   0.00138  0.00150  0.00137 -0.00008  0.00000
                                    0.00007 -0.00008  0.00000  0.00007
 LMO2     -3.6719 -1.3345 -1.3142   0.93915  1.47889  2.00400  0.35913  0.41650
                                    1.08622  0.59001  0.59051  0.86530
 LMO3     -2.6054 -1.2515 -0.2311   2.12947  1.26234  1.03023 -0.75536  0.71544
                                   -0.58524 -0.98624  0.54143 -0.36433
 LMO4     -3.7711 -0.7432 -0.1919   1.26652  0.66825  1.23395 -0.00965  0.11892
                                    0.46302 -0.41432  0.14992  0.06454
 LMO5     -3.1767 -0.2749 -0.8132   0.92844  1.29096  0.94931 -0.15220  0.46276
                                   -0.24129  0.25247  0.43176  0.15720
 LMO1     -0.1469  3.6027 -1.2560   0.00152  0.00137  0.00135 -0.00003 -0.00007
                                    0.00003 -0.00003 -0.00007  0.00003
 LMO2     -0.9231  3.0168 -1.2408   2.13468  1.52557  0.76179  1.27642  0.07026
                                   -0.01010  0.94844 -0.05231 -0.10907
 LMO3     -0.4820  4.4202 -0.8494   0.92958  2.32475  1.16770 -0.84319 -0.35818
                                    0.73018 -0.51520 -0.23562  0.82915
 LMO4     -0.0150  3.7123 -1.7979   0.87121  1.25194  1.04557  0.32603 -0.58840
                                    0.28000  0.17981 -0.06403  0.11520
 LMO5      0.2513  3.3825 -0.9154   1.24197  1.34764  0.57910 -0.08841  0.47997
                                    0.07430  0.05781 -0.04440  0.23911

                    --------------                     ------------------
                      REP POINTS                         REP PARAMETERS  
                    --------------                     ------------------

                X         Y         Z               COEF       N          ZETA

  O1        -3.36575  -0.76202  -0.58969        -0.00016       0       0.01886
                                                 1.24695       0       0.41986
  H2        -1.96406  -1.61721   0.10694         0.00044       0       0.06432
                                                 0.11726       0       0.69633
  H3        -3.96926  -1.77322  -1.92933         0.00044       0       0.06432
                                                 0.11726       0       0.69633
  O1        -0.14667   3.60262  -1.25611        -0.00016       0       0.01886
                                                 1.24695       0       0.41986
  H2        -0.70901   5.12557  -0.51733         0.00044       0       0.06432
                                                 0.11726       0       0.69633
  H3        -1.53829   2.48693  -1.25312         0.00044       0       0.06432
                                                 0.11726       0       0.69633

 THERE ARE   1 FRAGMENT TYPES, AND   1 FRAGMENT-FRAGMENT INTERACTIONS.

 REPULSIVE FIT FOR FRAGMENT PAIR H2ORHF-H2ORHF (COEF,EXPONENT)
 O1      -O1         -24.26976500    1.43620410
 O1      -H2           3.70228520    1.66183490
 O1      -H3           3.70228520    1.66183490
 O1      -CENTER       4.26456410    1.25780170
 H2      -O1           3.70228520    1.66183490
 H2      -H2           6.23169300    3.52648490
 H2      -H3           6.23169300    3.52648490
 H2      -CENTER      -0.42798437    1.13356290
 H3      -O1           3.70228520    1.66183490
 H3      -H2           6.23169300    3.52648490
 H3      -H3           6.23169300    3.52648490
 H3      -CENTER      -0.42798437    1.13356290
 CENTER  -O1           4.26456410    1.25780170
 CENTER  -H2          -0.42798437    1.13356290
 CENTER  -H3          -0.42798437    1.13356290
 CENTER  -CENTER     128.74969000    1.87124510

          ----------------
          PROPERTIES INPUT
          ----------------

     MOMENTS            FIELD           POTENTIAL          DENSITY
 IEMOM =       1   IEFLD =       0   IEPOT =       0   IEDEN =       0
 WHERE =COMASS     WHERE =NUCLEI     WHERE =NUCLEI     WHERE =NUCLEI  
 OUTPUT=BOTH       OUTPUT=BOTH       OUTPUT=BOTH       OUTPUT=BOTH    
 IEMINT=       0   IEFINT=       0                     IEDINT=       0
                                                       MORB  =       0
          EXTRAPOLATION IN EFFECT
          SOSCF IN EFFECT
 ORBITAL PRINTING OPTION: NPREO=     1    35     2     1

     -------------------------------
     INTEGRAL TRANSFORMATION OPTIONS
     -------------------------------
     NWORD  =            0
     CUTOFF = 1.0E-09     MPTRAN =       0
     DIRTRF =       F     AOINTS =DUP     

          ----------------------
          INTEGRAL INPUT OPTIONS
          ----------------------
 NOPK  =       1 NORDER=       0 SCHWRZ=       F

     ------------------------------------------
     THE POINT GROUP IS C1 , NAXIS= 0, ORDER= 1
     ------------------------------------------

     DIMENSIONS OF THE SYMMETRY SUBSPACES ARE
 A   =   35

 ..... DONE SETTING UP THE RUN .....
 STEP CPU TIME =     0.04 TOTAL CPU TIME =        0.0 (    0.0 MIN)
 TOTAL WALL CLOCK TIME=        0.0 SECONDS, CPU UTILIZATION IS  80.00%


          -----------------------------
          STATIONARY POINT LOCATION RUN
          -----------------------------

 OBTAINING INITIAL HESSIAN, HESS=GUESS   
 CARTESIAN COORDINATE OPTIMIZATION USING BADGER'S RULE FORCE CONSTANT GUESS

          PARAMETERS CONTROLLING GEOMETRY SEARCH ARE
          METHOD =QA                  UPHESS =BFGS    
          NNEG   =         0          NFRZ   =         0
          NSTEP  =        50          IFOLOW =         1
          HESS   =GUESS               RESTAR =         F
          IHREP  =         0          HSSEND =         F
          NPRT   =         0          NPUN   =         0
          OPTTOL = 1.000E-05          RMIN   = 1.500E-03
          RMAX   = 1.000E-01          RLIM   = 7.000E-02
          DXMAX  = 3.000E-01          PURIFY =         F
          MOVIE  =         F          TRUPD  =         T
          TRMAX  = 5.000E-01          TRMIN  = 5.000E-02
          ITBMAT =         5          STPT   =         F
          STSTEP = 1.000E-02          PROJCT=          F

 BEGINNING GEOMETRY SEARCH POINT NSERCH=   0 ...

 COORDINATES OF ALL ATOMS ARE (ANGS)
   ATOM   CHARGE       X              Y              Z
 ------------------------------------------------------------
 H           1.0   1.3419875361   0.3981155179   0.1106968988
 N           7.0   1.2204850926  -0.5804266758   0.3965444928
 O           8.0   2.2417060868  -1.0390269402   0.7592852538
 COORDINATES OF FRAGMENT MULTIPOLE CENTERS (ANGS)
 MULTIPOLE NAME        X              Y              Z
 ------------------------------------------------------------
 FRAGNAME=H2ORHF
 ZO1              -1.7810788844  -0.4032410931  -0.3120521718
 ZH2              -1.0393379910  -0.8557921633   0.0565891580
 ZH3              -2.1004408536  -0.9383486684  -1.0209571510
 FRAGNAME=H2ORHF
 ZO1              -0.0776169231   1.9064264506  -0.6647047920
 ZH2              -0.3751921632   2.7123347333  -0.2737581584
 ZH3              -0.8140290729   1.3160256597  -0.6631218022

          ********************
          1 ELECTRON INTEGRALS
          ********************
 TIME TO DO ORDINARY INTEGRALS=      0.00
 TIME TO DO FRAGMENT INTEGRALS=      0.01
 ...... END OF ONE-ELECTRON INTEGRALS ......
 STEP CPU TIME =     0.01 TOTAL CPU TIME =        0.0 (    0.0 MIN)
 TOTAL WALL CLOCK TIME=        0.1 SECONDS, CPU UTILIZATION IS  71.43%

          -------------
          GUESS OPTIONS
          -------------
          GUESS =HUCKEL            NORB  =       0          NORDER=       0
          MIX   =       F          PRTMO =       F          PUNMO =       F
          TOLZ  = 1.0E-08          TOLE  = 1.0E-05
          SYMDEN=       F          PURIFY=       F

 INITIAL GUESS ORBITALS GENERATED BY HUCKEL   ROUTINE.
 HUCKEL GUESS REQUIRES     11844 WORDS.

 SYMMETRIES FOR INITIAL GUESS ORBITALS FOLLOW.   BOTH SET(S).
     8 ORBITALS ARE OCCUPIED (    2 CORE ORBITALS).
     3=A        4=A        5=A        6=A        7=A        8=A        9=A   
    10=A       11=A       12=A       13=A       14=A       15=A       16=A   
    17=A       18=A   
 ...... END OF INITIAL ORBITAL SELECTION ......
 STEP CPU TIME =     0.01 TOTAL CPU TIME =        0.1 (    0.0 MIN)
 TOTAL WALL CLOCK TIME=        0.1 SECONDS, CPU UTILIZATION IS  85.71%

                    ----------------------
                    AO INTEGRAL TECHNOLOGY
                    ----------------------
     S,P,L SHELL ROTATED AXIS INTEGRALS, REPROGRAMMED BY
        KAZUYA ISHIMURA (IMS) AND JOSE SIERRA (SYNSTAR).
     S,P,D,L SHELL ROTATED AXIS INTEGRALS PROGRAMMED BY
        KAZUYA ISHIMURA (INSTITUTE FOR MOLECULAR SCIENCE).
     S,P,D,F,G SHELL TO TOTAL QUARTET ANGULAR MOMENTUM SUM 5,
        ERIC PROGRAM BY GRAHAM FLETCHER (ELORET AND NASA ADVANCED
        SUPERCOMPUTING DIVISION, AMES RESEARCH CENTER).
     S,P,D,F,G,L SHELL GENERAL RYS QUADRATURE PROGRAMMED BY
        MICHEL DUPUIS (PACIFIC NORTHWEST NATIONAL LABORATORY).

          --------------------
          2 ELECTRON INTEGRALS
          --------------------

 THE -PK- OPTION IS OFF, THE INTEGRALS ARE NOT IN SUPERMATRIX FORM.
 STORING   15000 INTEGRALS/RECORD ON DISK, USING 12 BYTES/INTEGRAL.
 TWO ELECTRON INTEGRAL EVALUATION REQUIRES   90462 WORDS OF MEMORY.
 II,JST,KST,LST =  1  1  1  1 NREC =         1 INTLOC =    1
 II,JST,KST,LST =  2  1  1  1 NREC =         1 INTLOC =    2
 II,JST,KST,LST =  3  1  1  1 NREC =         1 INTLOC =    7
 II,JST,KST,LST =  4  1  1  1 NREC =         1 INTLOC =   34
 II,JST,KST,LST =  5  1  1  1 NREC =         1 INTLOC =  145
 II,JST,KST,LST =  6  1  1  1 NREC =         1 INTLOC = 1367
 II,JST,KST,LST =  7  1  1  1 NREC =         1 INTLOC = 4657
 II,JST,KST,LST =  8  1  1  1 NREC =         2 INTLOC =  997
 II,JST,KST,LST =  9  1  1  1 NREC =         2 INTLOC = 5624
 II,JST,KST,LST = 10  1  1  1 NREC =         4 INTLOC = 1712
 II,JST,KST,LST = 11  1  1  1 NREC =         6 INTLOC =12832
 TOTAL NUMBER OF NONZERO TWO-ELECTRON INTEGRALS =              186514
         13 INTEGRAL RECORDS WERE STORED ON DISK FILE  8.
  ...... END OF TWO-ELECTRON INTEGRALS .....
 STEP CPU TIME =     0.03 TOTAL CPU TIME =        0.1 (    0.0 MIN)
 TOTAL WALL CLOCK TIME=        0.2 SECONDS, CPU UTILIZATION IS  56.25%

 EFP ADDITIVE CONTRIBUTIONS TO THE "NUCLEAR ENERGY":
   -- NUCLEAR CHARGE - NUCLEAR CHARGE   =       31.1225016647
   -- NUCLEAR CHARGE - EFP CHARGE       =       -0.0169990595
   -- NUCLEAR CHARGE - EFP DIPOLE       =       -0.0195597391
   -- NUCLEAR CHARGE - EFP QUADRUPOLE   =        0.0078443857
   -- NUCLEAR CHARGE - EFP OCTUPOLE     =       -0.0005109212
   -- EFP CHARGE     - EFP CHARGE       =       -0.0046182602
   -- EFP CHARGE     - EFP DIPOLE       =       -0.0029302343
   -- EFP CHARGE     - EFP QUADRUPOLE   =       -0.0022773278
   -- EFP CHARGE     - EFP OCTUPOLE     =        0.0000087500
   -- EFP DIPOLE     - EFP DIPOLE       =       -0.0006004544
   -- EFP DIPOLE     - EFP QUADRUPOLE   =       -0.0001368149
   -- EFP QUADRUPOLE - EFP QUADRUPOLE   =       -0.0006060249
   -- EFP-EFP EXCHANGE REPULSION ENERGY =        0.0046090392
   -- EFP-EFP DISPERSION ENERGY (C6)    =        0.0000000000
   -- EFP-EFP DISPERSION ENERGY (C8)    =        0.0000000000
   -- TOTAL INTERFRAGMENT INTERACTION   =       -0.0065513273
 THE TOTAL NUCLEAR CHARGE/EFP ENERGY    =       31.0867250034

          --------------------------
                 RHF SCF CALCULATION
          --------------------------

     NUCLEAR ENERGY =        31.0867250034
     MAXIT =   30     NPUNCH=    2
     EXTRAP=T  DAMP=F  SHIFT=F  RSTRCT=F  DIIS=F  DEM=F  SOSCF=T
     DENSITY MATRIX CONV=  1.00E-05
     SOSCF WILL OPTIMIZE     216 ORBITAL ROTATIONS, SOGTOL=   0.250
     MEMORY REQUIRED FOR RHF ITERS=     41909 WORDS.

 ITER EX DEM     TOTAL ENERGY        E CHANGE  DENSITY CHANGE     ORB. GRAD
   1  0  0     -129.3915333734  -129.3915333734   0.301515099   0.000000000
          ---------------START SECOND ORDER SCF---------------
   2  1  0     -129.7879634340    -0.3964300606   0.114121809   0.040821797
   3  2  0     -129.8048258295    -0.0168623955   0.042779391   0.020697226
   4  3  0     -129.8077750609    -0.0029492314   0.010344213   0.007420728
   5  4  0     -129.8080739439    -0.0002988830   0.002326603   0.001729813
   6  5  0     -129.8081034176    -0.0000294737   0.001219885   0.000593574
   7  6  0     -129.8081096071    -0.0000061895   0.000658084   0.000236026
   8  7  0     -129.8081104596    -0.0000008525   0.000298216   0.000053223
   9  8  0     -129.8081105181    -0.0000000585   0.000078661   0.000016584
  10  9  0     -129.8081105226    -0.0000000045   0.000008619   0.000003588
  11 10  0     -129.8081105229    -0.0000000003   0.000004872   0.000002926

          -----------------
          DENSITY CONVERGED
          -----------------
     TIME TO FORM FOCK OPERATORS=       0.0 SECONDS (       0.0 SEC/ITER)
     TIME TO SOLVE SCF EQUATIONS=       0.0 SECONDS (       0.0 SEC/ITER)

 FINAL RHF ENERGY IS     -129.8081105229 AFTER  11 ITERATIONS

          INDUCED DIPOLE     ATOMIC UNITS          DEBYE
                X(IND)           -0.08156         -0.20731
                Y(IND)           -0.11539         -0.29330
                Z(IND)            0.01149          0.02921

          ------------
          EIGENVECTORS
          ------------

                      1          2          3          4          5
                  -20.6509   -15.6982    -1.5451    -0.9810    -0.7448
                     A          A          A          A          A   
    1  H  1  S   -0.000108  -0.000035   0.053441   0.198720   0.164365
    2  H  1  S   -0.000254   0.000598  -0.009314   0.023232   0.068574
    3  H  1  X   -0.000036   0.000044   0.000554  -0.003396  -0.002211
    4  H  1  Y    0.000049   0.000362  -0.010550  -0.019975  -0.009899
    5  H  1  Z   -0.000023  -0.000106   0.003480   0.005647   0.002693
    6  N  2  S    0.000071   0.995184  -0.129497  -0.151755   0.035823
    7  N  2  S    0.000324   0.024101   0.277715   0.343758  -0.098603
    8  N  2  X   -0.000047   0.002461   0.165226  -0.070606  -0.019768
    9  N  2  Y    0.000028   0.000485  -0.051481   0.183149   0.365086
   10  N  2  Z   -0.000019   0.000368   0.051455  -0.073290  -0.120317
   11  N  2  S   -0.000213   0.000222   0.128296   0.406726  -0.030397
   12  N  2  X   -0.000388  -0.000116   0.010359  -0.013692   0.045568
   13  N  2  Y    0.000408  -0.000799   0.004923   0.075677   0.154582
   14  N  2  Z   -0.000212   0.000230   0.000630  -0.026959  -0.039393
   15  N  2 XX   -0.000633  -0.002522   0.024663  -0.012723  -0.004977
   16  N  2 YY   -0.000074  -0.002899  -0.009690   0.013826   0.011265
   17  N  2 ZZ   -0.000014  -0.003578  -0.007739  -0.006076  -0.005188
   18  N  2 XY    0.000353  -0.000194  -0.016154   0.013168   0.026924
   19  N  2 XZ   -0.000286   0.000361   0.013991  -0.005768  -0.008920
   20  N  2 YZ    0.000129  -0.000351  -0.004055  -0.004584   0.000285
   21  O  3  S    0.994735  -0.000251  -0.175583   0.125868  -0.060637
   22  O  3  S    0.021063   0.000356   0.399275  -0.293199   0.139772
   23  O  3  X   -0.001541   0.000050  -0.137988  -0.108077   0.429406
   24  O  3  Y    0.000748  -0.000072   0.068149   0.103583   0.141338
   25  O  3  Z   -0.000565   0.000034  -0.050982  -0.055902   0.046282
   26  O  3  S    0.004237  -0.001111   0.310232  -0.388015   0.221656
   27  O  3  X    0.000041   0.001114  -0.054310  -0.038992   0.239203
   28  O  3  Y   -0.000088  -0.000360   0.028738   0.038179   0.077035
   29  O  3  Z    0.000037   0.000351  -0.020677  -0.020427   0.026355
   30  O  3 XX   -0.003543  -0.000652   0.021298   0.005129  -0.032529
   31  O  3 YY   -0.003749  -0.000071   0.002244   0.000834   0.017515
   32  O  3 ZZ   -0.004118   0.000170   0.000650  -0.000980   0.004628
   33  O  3 XY   -0.000056   0.000458  -0.014619  -0.012055   0.002562
   34  O  3 XZ    0.000179  -0.000380   0.010525   0.005868  -0.010120
   35  O  3 YZ   -0.000178   0.000236  -0.004880  -0.004043  -0.003892

                      6          7          8          9         10
                   -0.6653    -0.5980    -0.4093     0.1115     0.2944
                     A          A          A          A          A   
    1  H  1  S   -0.035095  -0.000103  -0.199246  -0.000141   0.079845
    2  H  1  S   -0.021337   0.000054  -0.137960   0.000367   1.829702
    3  H  1  X    0.006710  -0.001598  -0.004344  -0.003366   0.006587
    4  H  1  Y    0.002702   0.002409   0.006363   0.005078  -0.000492
    5  H  1  Z    0.000575   0.007547  -0.002965   0.015979   0.001560
    6  N  2  S    0.051433  -0.000040  -0.051864   0.000014   0.075184
    7  N  2  S   -0.102731   0.000107   0.112039   0.000024  -0.143045
    8  N  2  X    0.410365  -0.074708  -0.296825  -0.090078  -0.038365
    9  N  2  Y    0.031027   0.111426  -0.283164   0.134922  -0.297186
   10  N  2  Z    0.077446   0.350628   0.027039   0.424171   0.086194
   11  N  2  S   -0.271489   0.000035   0.251057  -0.000688  -1.064168
   12  N  2  X    0.191746  -0.048450  -0.263375  -0.122247  -0.079002
   13  N  2  Y    0.036226   0.072323  -0.225950   0.182782  -0.811390
   14  N  2  Z    0.029313   0.227188   0.015852   0.573839   0.241733
   15  N  2 XX    0.039027  -0.014881   0.008783   0.002696   0.010804
   16  N  2 YY   -0.016752  -0.004028  -0.036712   0.010683   0.003341
   17  N  2 ZZ   -0.006856   0.018917   0.005604  -0.013355   0.008690
   18  N  2 XY    0.005543   0.014423   0.004534  -0.006414  -0.013265
   19  N  2 XZ    0.009642   0.038116  -0.002036  -0.005651   0.005075
   20  N  2 YZ    0.004618  -0.003858   0.018546   0.016949  -0.001328
   21  O  3  S    0.036827  -0.000012   0.001956  -0.000017   0.005588
   22  O  3  S   -0.076878   0.000005  -0.022638  -0.000043  -0.024055
   23  O  3  X   -0.149217  -0.092248   0.277029   0.084724  -0.017143
   24  O  3  Y    0.428482   0.137975   0.421257  -0.126952   0.054968
   25  O  3  Z   -0.167765   0.434501  -0.075260  -0.399155  -0.021064
   26  O  3  S   -0.183900   0.000195   0.062529   0.000603  -0.079989
   27  O  3  X   -0.080618  -0.063293   0.203899   0.104422   0.062214
   28  O  3  Y    0.254309   0.094727   0.364874  -0.156806   0.145187
   29  O  3  Z   -0.097814   0.297971  -0.072772  -0.493219  -0.033007
   30  O  3 XX    0.005375   0.013480  -0.007783   0.001055  -0.009477
   31  O  3 YY    0.010781   0.010291  -0.001713   0.000138  -0.003641
   32  O  3 ZZ   -0.001188  -0.023791  -0.003179  -0.001252  -0.005380
   33  O  3 XY   -0.022955  -0.015621  -0.003077  -0.000991   0.015120
   34  O  3 XZ    0.010090  -0.033732  -0.000067  -0.002715  -0.006290
   35  O  3 YZ   -0.011065   0.014336  -0.001318   0.000077   0.003318

                     11         12         13         14         15
                    0.4926     0.8642     0.8970     0.9203     1.0128
                     A          A          A          A          A   
    1  H  1  S   -0.027727  -0.116292  -0.001295  -0.030734   0.885786
    2  H  1  S    0.040049   0.201867   0.000576  -0.073595  -0.233962
    3  H  1  X   -0.009777   0.018100   0.002172  -0.027855   0.013567
    4  H  1  Y    0.002610  -0.098895  -0.003298  -0.018967   0.050137
    5  H  1  Z   -0.002975   0.035353  -0.009505   0.000143  -0.013063
    6  N  2  S    0.077284  -0.010265  -0.000145   0.027539   0.025474
    7  N  2  S   -0.054317  -0.624210  -0.000086  -0.476666  -0.099595
    8  N  2  X   -0.124279   0.495027   0.193297  -0.771295  -0.002661
    9  N  2  Y    0.098666   0.556247  -0.286147   0.294693   0.117934
   10  N  2  Z   -0.058144  -0.070184  -0.899405  -0.259416  -0.039152
   11  N  2  S   -2.235476   0.836876   0.000735   0.679179  -0.265814
   12  N  2  X   -1.807750  -0.561760  -0.216600   0.889667  -0.141344
   13  N  2  Y    0.830679  -0.707987   0.321538  -0.266209  -0.690221
   14  N  2  Z   -0.647907   0.104162   1.009242   0.275693   0.191071
   15  N  2 XX   -0.017252  -0.139564   0.015194   0.042204  -0.099059
   16  N  2 YY    0.014238  -0.248446   0.009305  -0.084766   0.157294
   17  N  2 ZZ    0.015845  -0.142388  -0.025269  -0.071393  -0.088143
   18  N  2 XY    0.001505   0.017163  -0.017004  -0.089666   0.113213
   19  N  2 XZ   -0.009141  -0.008306  -0.039162   0.060368  -0.035608
   20  N  2 YZ    0.001640   0.048061   0.013310  -0.020152  -0.070967
   21  O  3  S   -0.102665  -0.006121   0.000102  -0.053131   0.002935
   22  O  3  S    0.184280  -0.305157  -0.001177   0.017805   0.486434
   23  O  3  X   -0.212476  -0.030564   0.027344  -0.257217   0.388316
   24  O  3  Y    0.095319   0.059331  -0.041079   0.086735   0.142390
   25  O  3  Z   -0.075359  -0.025015  -0.127593  -0.082568   0.036911
   26  O  3  S    2.297976   0.456811   0.002159  -0.322051  -0.767515
   27  O  3  X   -1.230149   0.020218   0.008628  -0.120255  -0.449912
   28  O  3  Y    0.535241   0.098653  -0.012163   0.052059   0.173037
   29  O  3  Z   -0.431501  -0.027124  -0.038009  -0.042079  -0.150652
   30  O  3 XX    0.051482  -0.167753  -0.034747  -0.216371   0.214041
   31  O  3 YY   -0.003772  -0.044200  -0.023579  -0.010673   0.179508
   32  O  3 ZZ   -0.015914  -0.082820   0.057648   0.018574   0.139647
   33  O  3 XY   -0.044692  -0.042402   0.038632   0.136592   0.012635
   34  O  3 XZ    0.033509  -0.006085   0.087339  -0.109291   0.016033
   35  O  3 YZ   -0.018072  -0.025212  -0.031787   0.052360  -0.014616

                     16         17         18         19         20
                    1.0860     1.1531     1.2073     1.2214     1.5904
                     A          A          A          A          A   
    1  H  1  S    0.557139   0.165496   0.351854  -0.001904   0.159215
    2  H  1  S   -0.616937  -1.726489   0.364453  -0.000766   0.147997
    3  H  1  X   -0.042433   0.049642   0.047400   0.000886   0.011681
    4  H  1  Y    0.092012   0.131503  -0.023846  -0.001743  -0.045130
    5  H  1  Z   -0.038318  -0.031326   0.017624  -0.005730   0.016682
    6  N  2  S    0.059271  -0.039529   0.036793  -0.000162   0.007700
    7  N  2  S   -0.090163  -1.082650   0.297002  -0.000934   0.595504
    8  N  2  X    0.045523   0.036324   0.052020  -0.039535  -0.023716
    9  N  2  Y   -0.163819  -0.556126   0.227432   0.058223  -0.011825
   10  N  2  Z    0.061515   0.184960  -0.060313   0.185637  -0.001167
   11  N  2  S    0.502334   2.376214  -0.801286   0.003021  -4.303881
   12  N  2  X    0.011319   0.041783  -0.387364   0.114507  -2.014201
   13  N  2  Y    0.110370   1.276877  -1.003263  -0.164584   0.729778
   14  N  2  Z   -0.032324  -0.398181   0.234193  -0.531160  -0.659919
   15  N  2 XX    0.136667  -0.327915   0.056988   0.024697  -0.089090
   16  N  2 YY    0.134920  -0.098666   0.181263   0.015632   0.218592
   17  N  2 ZZ   -0.093865  -0.159469  -0.026129  -0.041103   0.021482
   18  N  2 XY   -0.091449   0.039628  -0.035335  -0.027716   0.160140
   19  N  2 XZ    0.098274  -0.055678   0.039412  -0.062555  -0.079161
   20  N  2 YZ   -0.122631  -0.011253  -0.095943   0.022860  -0.037104
   21  O  3  S   -0.020756  -0.003718  -0.005795   0.000043  -0.100832
   22  O  3  S   -0.392769  -0.173352   0.054081  -0.000031  -1.631633
   23  O  3  X   -0.438234  -0.006044  -0.484095   0.190697   0.329500
   24  O  3  Y    0.486849  -0.292321  -0.629123  -0.279032  -0.115274
   25  O  3  Z   -0.248025   0.091167   0.092357  -0.887627   0.106534
   26  O  3  S    0.622079   0.272933   0.019742  -0.000737   5.838678
   27  O  3  X    0.713321  -0.154354   0.730476  -0.250078  -2.082374
   28  O  3  Y   -0.551030   0.253278   1.060626   0.364386   0.964100
   29  O  3  Z    0.326747  -0.112581  -0.175886   1.163261  -0.748780
   30  O  3 XX   -0.212955   0.007690   0.028522  -0.010892  -0.414077
   31  O  3 YY   -0.191970  -0.086310  -0.001297  -0.006348  -0.405908
   32  O  3 ZZ   -0.184965  -0.007370  -0.042777   0.017502  -0.470272
   33  O  3 XY    0.074231   0.015381   0.051057   0.011533   0.086037
   34  O  3 XZ   -0.033517  -0.003810   0.001814   0.027208  -0.013926
   35  O  3 YZ    0.022898   0.036245  -0.005160  -0.008542  -0.004917

                     21         22         23         24         25
                    1.6810     1.7252     1.8126     2.0294     2.1356
                     A          A          A          A          A   
    1  H  1  S   -0.000001   0.026304   0.000010  -0.473090   0.000005
    2  H  1  S    0.000081  -0.171442   0.000019  -0.215513  -0.000036
    3  H  1  X   -0.067786   0.298251   0.004229  -0.060462   0.073710
    4  H  1  Y    0.101892   0.020173  -0.006432  -0.075749  -0.110772
    5  H  1  Z    0.319995   0.056874  -0.020201   0.011293  -0.347901
    6  N  2  S    0.000016   0.006634   0.000001  -0.033643  -0.000008
    7  N  2  S    0.000234  -0.028699   0.000002  -0.303980  -0.000093
    8  N  2  X   -0.008079  -0.128621   0.046974   0.038222  -0.010631
    9  N  2  Y    0.012095  -0.163564  -0.070451  -0.015317   0.015950
   10  N  2  Z    0.038028   0.024797  -0.221311   0.012993   0.050188
   11  N  2  S   -0.001334  -0.013268   0.000086   1.401520   0.000797
   12  N  2  X    0.027225  -0.100201  -0.017462   0.550091  -0.021153
   13  N  2  Y   -0.041589   0.250289   0.026139   0.286116   0.032231
   14  N  2  Z   -0.131669  -0.101048   0.082398   0.025611   0.101890
   15  N  2 XX   -0.054377   0.406428  -0.214802  -0.164045   0.073713
   16  N  2 YY    0.335780  -0.061720  -0.018716   0.166309  -0.115107
   17  N  2 ZZ   -0.281277  -0.312856   0.233512  -0.179937   0.041365
   18  N  2 XY   -0.081874   0.463077   0.193253  -0.122021  -0.019575
   19  N  2 XZ    0.182556   0.029858   0.555687   0.057159  -0.205489
   20  N  2 YZ    0.556877   0.004164   0.008938  -0.174795  -0.200991
   21  O  3  S   -0.000025  -0.007818   0.000005   0.014859   0.000026
   22  O  3  S   -0.000350  -0.001054   0.000070   0.219453   0.000243
   23  O  3  X   -0.011081  -0.097857   0.040727   0.061401  -0.006961
   24  O  3  Y    0.016652  -0.055339  -0.061130   0.076263   0.010402
   25  O  3  Z    0.052311  -0.003187  -0.192048  -0.011252   0.032740
   26  O  3  S    0.001532   0.209724  -0.000200  -1.043334  -0.001092
   27  O  3  X   -0.012732  -0.079584   0.006098   0.273477   0.011193
   28  O  3  Y    0.018543  -0.110231  -0.009014  -0.305360  -0.016393
   29  O  3  Z    0.057429   0.018265  -0.028289   0.155256  -0.050914
   30  O  3 XX   -0.100441  -0.236121   0.123749   0.346077  -0.166208
   31  O  3 YY    0.137896   0.379183   0.199145   0.383267   0.376079
   32  O  3 ZZ   -0.037718  -0.170768  -0.322829  -0.609877  -0.209648
   33  O  3 XY    0.033906  -0.107144  -0.183819   0.505065  -0.000571
   34  O  3 XZ    0.277651   0.036745  -0.297075   0.097668   0.478043
   35  O  3 YZ    0.243109  -0.253143   0.301673  -0.294576   0.642916

                     26         27         28         29         30
                    2.4593     2.5290     2.7882     2.8435     2.9304
                     A          A          A          A          A   
    1  H  1  S    0.507495  -0.359516   0.306123  -0.000316   0.000037
    2  H  1  S    0.083315  -0.048424  -0.281586   0.000374   0.000003
    3  H  1  X   -0.528122  -0.510079   0.210280  -0.168684  -0.096972
    4  H  1  Y    0.223206  -0.178055   0.324459   0.252425   0.145423
    5  H  1  Z   -0.183262  -0.051671  -0.057700   0.793958   0.456736
    6  N  2  S    0.025491  -0.068557  -0.067848   0.000056  -0.000010
    7  N  2  S    0.195843  -0.305974   0.019335   0.000093   0.000036
    8  N  2  X    0.050494   0.013096   0.060113   0.025927  -0.027064
    9  N  2  Y   -0.024838  -0.198913   0.186315  -0.039183   0.040565
   10  N  2  Z    0.018587   0.066121  -0.046743  -0.122001   0.127564
   11  N  2  S   -0.552754   1.631305   0.440756  -0.000346   0.000089
   12  N  2  X   -0.074343   0.880616   0.307473   0.085596  -0.044577
   13  N  2  Y   -0.582130  -0.141254  -0.140262  -0.128935   0.066754
   14  N  2  Z    0.169701   0.231910   0.109455  -0.404898   0.210045
   15  N  2 XX   -0.029073   0.154303   0.675639   0.215121  -0.231934
   16  N  2 YY   -0.177260   0.198242  -0.614942  -0.218872  -0.349852
   17  N  2 ZZ    0.429677  -0.743243  -0.321910   0.003913   0.581685
   18  N  2 XY   -0.210761  -0.166058  -0.503389  -0.102399   0.335342
   19  N  2 XZ   -0.061826   0.317404   0.425365  -0.588380   0.559452
   20  N  2 YZ    0.203513  -0.448150  -0.031554  -0.397461  -0.527408
   21  O  3  S    0.008906   0.005525  -0.028368   0.000038   0.000004
   22  O  3  S   -0.106207   0.017700  -0.487523   0.000480   0.000012
   23  O  3  X   -0.005453   0.281277   0.482087   0.002964   0.010135
   24  O  3  Y   -0.152797  -0.149947  -0.238650  -0.004840  -0.015222
   25  O  3  Z    0.047531   0.107464   0.178266  -0.016060  -0.047760
   26  O  3  S    0.081684  -1.221139   0.280135  -0.000481  -0.000100
   27  O  3  X    0.131736   0.358026  -0.250372  -0.067002   0.078706
   28  O  3  Y    0.378969  -0.084330   0.032723   0.101191  -0.117893
   29  O  3  Z   -0.092763   0.102784  -0.063190   0.317684  -0.370509
   30  O  3 XX   -0.420906  -0.281437   0.133465   0.132435  -0.285218
   31  O  3 YY    0.590836  -0.023060  -0.350125   0.217265  -0.129202
   32  O  3 ZZ   -0.165251   0.150731  -0.319395  -0.349145   0.414445
   33  O  3 XY   -0.118289  -0.376759   0.136122  -0.198688   0.296666
   34  O  3 XZ   -0.002379   0.016084   0.067485  -0.318729   0.724866
   35  O  3 YZ   -0.337286  -0.019162   0.040256   0.328487  -0.158381

                     31         32         33         34         35
                    3.1595     3.2391     3.6757     3.8633     4.0964
                     A          A          A          A          A   
    1  H  1  S    0.213080  -0.171838  -1.000481   0.475324  -0.488789
    2  H  1  S    0.136111  -0.182437  -0.795046  -0.314882   0.150781
    3  H  1  X    0.460752  -0.516312   0.171089  -0.168550   0.153967
    4  H  1  Y   -0.130934   0.241923   1.180579  -0.345302   0.594779
    5  H  1  Z    0.139336  -0.186352  -0.339693   0.074228  -0.156728
    6  N  2  S   -0.032035   0.018179  -0.192884  -0.259015   0.292341
    7  N  2  S   -0.303492  -0.657177   0.609017   0.861987  -0.631102
    8  N  2  X   -0.746599  -0.582206   0.029856  -0.152206   0.260832
    9  N  2  Y    0.175676   0.458772   0.547993  -0.177173   0.236749
   10  N  2  Z   -0.214352  -0.269655  -0.168180   0.024123  -0.020041
   11  N  2  S   -2.000960  -1.038075   2.149412  -0.394074  -2.735336
   12  N  2  X   -1.211686  -0.357853   0.329621  -0.674510  -0.810847
   13  N  2  Y    0.046988   0.602117   0.604745   0.410159   0.318312
   14  N  2  Z   -0.272064  -0.267773  -0.122633  -0.273759  -0.273447
   15  N  2 XX   -0.873395   0.044474  -1.020518  -0.857939   0.893563
   16  N  2 YY    0.134799   0.039943   0.478235  -1.203950   1.476086
   17  N  2 ZZ    0.172377   0.061878  -0.764952  -0.745074   0.939607
   18  N  2 XY   -0.327579   0.894794   0.190915   0.199712  -0.064378
   19  N  2 XZ   -0.155532  -0.320207  -0.096949  -0.112797   0.026405
   20  N  2 YZ   -0.050186   0.244188  -0.456366   0.243427  -0.236754
   21  O  3  S   -0.057951   0.001497   0.062225  -0.347421  -0.346961
   22  O  3  S   -0.592449  -0.362569   0.286108   0.183580  -0.072752
   23  O  3  X   -0.109344  -0.276459  -0.191421  -0.092343   0.287525
   24  O  3  Y    0.117320   0.046008   0.124273   0.010669  -0.108859
   25  O  3  Z   -0.060564  -0.073321  -0.080188  -0.022995   0.095676
   26  O  3  S    2.850432   1.588940  -1.117064   3.534576   3.782803
   27  O  3  X   -1.245088  -1.091276   0.341603  -0.938496  -0.616866
   28  O  3  Y    0.902095   0.209320  -0.170924   0.352257   0.357367
   29  O  3  Z   -0.551470  -0.298174   0.126906  -0.311307  -0.244694
   30  O  3 XX    0.228188   1.111834   0.053031  -0.744481  -1.315696
   31  O  3 YY    0.037745  -0.446245   0.274307  -1.223772  -1.120608
   32  O  3 ZZ   -0.385959  -0.249390   0.312209  -1.237012  -1.121319
   33  O  3 XY   -0.960197  -0.286981  -0.108282  -0.101143  -0.074986
   34  O  3 XZ    0.508774   0.446393  -0.029834   0.163028  -0.023715
   35  O  3 YZ   -0.438401  -0.020710  -0.007819  -0.041549  -0.016204
 ...... END OF RHF CALCULATION ......
 STEP CPU TIME =     0.05 TOTAL CPU TIME =        0.1 (    0.0 MIN)
 TOTAL WALL CLOCK TIME=        0.4 SECONDS, CPU UTILIZATION IS  37.84%

     ----------------------------------------------------------------
     PROPERTY VALUES FOR THE RHF   SELF-CONSISTENT FIELD WAVEFUNCTION
     ----------------------------------------------------------------

          -----------------
          ENERGY COMPONENTS
          -----------------

         WAVEFUNCTION NORMALIZATION =       1.0000000000

                ONE ELECTRON ENERGY =    -239.1931738590
                TWO ELECTRON ENERGY =      78.3039259277
           NUCLEAR REPULSION ENERGY =      31.1225016647
          EFFECTIVE FRAGMENT ENERGY =      -0.0413642563
                                      ------------------
                       TOTAL ENERGY =    -129.8081105229

 ELECTRON-ELECTRON POTENTIAL ENERGY =      78.3039259277
  NUCLEUS-ELECTRON POTENTIAL ENERGY =    -368.6571604987
   NUCLEUS-NUCLEUS POTENTIAL ENERGY =      31.1225016647
 ELECTRON-FRAGMENT MULTIPOLE ENERGY =       0.0107030888
 ELECTRON-FRAGMENT REMAINDER ENERGY =       0.0062777351
        STATIC INTERFRAGMENT ENERGY =      -0.0065513273
            FRAGMENT-NUCLEAR ENERGY =      -0.0292253340
    TOTAL FRAGMENT INDUCTION ENERGY =      -0.0023244649
 ELECTRON-FRAGMENT EXCHANGE REPULSION =      0.0000000000
                                      ------------------
             TOTAL POTENTIAL ENERGY =    -259.2518532085
                                      ------------------
            SOLUTE POTENTIAL ENERGY =    -259.2307329062
              SOLUTE KINETIC ENERGY =     129.4437426857
                 VIRIAL RATIO (V/T) =       2.0026517121

          ---------------------------------------
          MULLIKEN AND LOWDIN POPULATION ANALYSES
          ---------------------------------------

     ATOMIC MULLIKEN POPULATION IN EACH MOLECULAR ORBITAL

                      1          2          3          4          5

                  2.000000   2.000000   2.000000   2.000000   2.000000

    1            -0.000010   0.000057   0.016715   0.254525   0.176623
    2            -0.000271   2.000584   0.690796   1.082637   0.707089
    3             2.000281  -0.000641   1.292489   0.662838   1.116288

                      6          7          8

                  2.000000   2.000000   2.000000

    1             0.014441   0.002151   0.186436
    2             0.913498   0.827661   0.844505
    3             1.072061   1.170188   0.969060

               ----- POPULATIONS IN EACH AO -----
                             MULLIKEN      LOWDIN
              1  H  1  S      0.52030     0.48928
              2  H  1  S      0.10776     0.25202
              3  H  1  X      0.00288     0.01180
              4  H  1  Y      0.01660     0.04115
              5  H  1  Z      0.00340     0.01007
              6  N  2  S      1.99609     1.97673
              7  N  2  S      0.84993     0.55238
              8  N  2  X      0.90141     0.85013
              9  N  2  Y      0.82333     0.73448
             10  N  2  Z      0.50179     0.45864
             11  N  2  S      0.83235     0.45775
             12  N  2  X      0.36046     0.49066
             13  N  2  Y      0.40404     0.46968
             14  N  2  Z      0.32210     0.37643
             15  N  2 XX      0.02203     0.22205
             16  N  2 YY      0.01439     0.19679
             17  N  2 ZZ     -0.00450     0.16626
             18  N  2 XY      0.01760     0.03757
             19  N  2 XZ      0.01914     0.02901
             20  N  2 YZ      0.00635     0.01541
             21  O  3  S      1.99567     1.97747
             22  O  3  S      0.94196     0.72776
             23  O  3  X      0.95472     0.90293
             24  O  3  Y      1.13855     1.10013
             25  O  3  Z      0.69318     0.64941
             26  O  3  S      0.92957     0.48118
             27  O  3  X      0.43787     0.53886
             28  O  3  Y      0.63219     0.65558
             29  O  3  Z      0.49274     0.52838
             30  O  3 XX      0.02138     0.19530
             31  O  3 YY      0.00880     0.17839
             32  O  3 ZZ      0.00623     0.17354
             33  O  3 XY      0.01175     0.02516
             34  O  3 XZ      0.01431     0.01991
             35  O  3 YZ      0.00364     0.00772

          ----- MULLIKEN ATOMIC OVERLAP POPULATIONS -----
          (OFF-DIAGONAL ELEMENTS NEED TO BE MULTIPLIED BY 2)

             1           2           3

    1    0.3868223
    2    0.3288637   6.4739898
    3   -0.0647489   0.2636449   8.0836684

          TOTAL MULLIKEN AND LOWDIN ATOMIC POPULATIONS
       ATOM         MULL.POP.    CHARGE          LOW.POP.     CHARGE
    1 H             0.650937    0.349063         0.804324    0.195676
    2 N             7.066498   -0.066498         7.033953   -0.033953
    3 O             8.282564   -0.282564         8.161723   -0.161723

          -------------------------------
          BOND ORDER AND VALENCE ANALYSIS     BOND ORDER THRESHOLD=0.050
          -------------------------------

                   BOND                       BOND                       BOND
  ATOM PAIR DIST  ORDER      ATOM PAIR DIST  ORDER      ATOM PAIR DIST  ORDER
    1   2  1.027  0.842        2   3  1.177  1.834

                       TOTAL       BONDED        FREE
      ATOM            VALENCE     VALENCE     VALENCE
    1 H                 0.845       0.845      -0.000
    2 N                 2.677       2.677       0.000
    3 O                 1.837       1.837      -0.000

          ----------------------------
          SOLUTE ELECTROSTATIC MOMENTS
          ----------------------------

 POINT   1           X           Y           Z (BOHR)    CHARGE
                 3.309383   -1.483807    1.085420       -0.00 (A.U.)
         DX          DY          DZ         /D/  (DEBYE)
    -0.249580    2.263732   -0.773653    2.405267

          ----------------------------------------
          EFFECTIVE FRAGMENT ELECTROSTATIC MOMENTS
          ----------------------------------------

 FRAGMENT   1  H2ORHF
          X           Y           Z (BOHR)    CHARGE
    -3.321087   -0.866454   -0.625674       -0.00 (A.U.)
         DX          DY          DZ         /D/  (DEBYE)
     0.894230   -2.162550   -0.631415    2.423830

 FRAGMENT   2  H2ORHF
          X           Y           Z (BOHR)    CHARGE
    -0.256013    3.625412   -1.214602       -0.00 (A.U.)
         DX          DY          DZ         /D/  (DEBYE)
    -2.288090    0.371238    0.762023    2.440052


          ----------------------------
          SYSTEM ELECTROSTATIC MOMENTS
          ----------------------------

 POINT   1           X           Y           Z (BOHR)    CHARGE
                 3.309383   -1.483807    1.085420       -0.00 (A.U.)
         DX          DY          DZ         /D/  (DEBYE)
    -1.643441    0.472420   -0.643045    1.826906
 ...... END OF PROPERTY EVALUATION ......
 STEP CPU TIME =     0.01 TOTAL CPU TIME =        0.1 (    0.0 MIN)
 TOTAL WALL CLOCK TIME=        0.4 SECONDS, CPU UTILIZATION IS  39.47%

 BEGINNING ONE ELECTRON GRADIENT...
 TIME TO DO ORDINARY GRADIENT INTEGRALS=      0.00
 TIME TO DO FRAGMENT GRADIENT INTEGRALS=      0.10
 ..... END OF 1-ELECTRON GRADIENT ......
 STEP CPU TIME =     0.10 TOTAL CPU TIME =        0.3 (    0.0 MIN)
 TOTAL WALL CLOCK TIME=        0.5 SECONDS, CPU UTILIZATION IS  52.08%

          ----------------------
          GRADIENT OF THE ENERGY
          ----------------------

 THE MINIMUM MEMORY REQUIRED FOR THIS RUN IS      74534 WORDS.
 USING     989084 WORDS FOR 2E- DERIVATIVE INTEGRAL CONTRIBUTIONS.
 THE COARSE/FINE SCHWARZ SCREENINGS SKIPPED            0/           0 BLOCKS.
 THE NUMBER OF GRADIENT INTEGRAL BLOCKS COMPUTED WAS      2080
 ...... END OF 2-ELECTRON GRADIENT ......
 STEP CPU TIME =     0.05 TOTAL CPU TIME =        0.3 (    0.0 MIN)
 TOTAL WALL CLOCK TIME=        0.5 SECONDS, CPU UTILIZATION IS  56.60%

          NSERCH=  0     ENERGY=    -129.8081105

                                 -----------------------
                                 GRADIENT (HARTREE/BOHR)
                                 -----------------------
        ATOM     ZNUC       DE/DX         DE/DY         DE/DZ
 --------------------------------------------------------------
    1  H            1.0    -0.0025233     0.0003834    -0.0007280
    2  N            7.0     0.0032647    -0.0001027     0.0006811
    3  O            8.0    -0.0010666    -0.0005084    -0.0000755

          MAXIMUM GRADIENT = 0.0032647    RMS GRADIENT = 0.0014749

 NSERCH:   0  E=     -129.8081105229  GRAD. MAX=  0.0032647  R.M.S.=  0.0014749

          FORCE CONSTANT MATRIX NOT UPDATED --- TAKING FIRST STEP
          MIN SEARCH, CORRECT HESSIAN, TRYING PURE NR STEP
               NR STEP HAS LENGTH         =   1.509173
          TRIM/QA LAMBDA FOR NON-TS MODES =  -0.00305807
          TRIM/QA STEP HAS LENGTH         =   0.300000
          RADIUS OF STEP TAKEN=   0.30000  CURRENT TRUST RADIUS=   0.30000

 BEGINNING GEOMETRY SEARCH POINT NSERCH=   1 ...

 COORDINATES OF ALL ATOMS ARE (ANGS)
   ATOM   CHARGE       X              Y              Z
 ------------------------------------------------------------
 H           1.0   1.4754719832   0.4238828715   0.1329671648
 N           7.0   1.2229986049  -0.5507085020   0.3864369923
 O           8.0   2.2019138569  -1.0989665197   0.7668170833
 COORDINATES OF FRAGMENT MULTIPOLE CENTERS (ANGS)
 MULTIPOLE NAME        X              Y              Z
 ------------------------------------------------------------
 FRAGNAME=H2ORHF
 ZO1              -1.7810788844  -0.4032410931  -0.3120521718
 ZH2              -1.0393379910  -0.8557921633   0.0565891580
 ZH3              -2.1004408536  -0.9383486684  -1.0209571510
 FRAGNAME=H2ORHF
 ZO1              -0.0776169231   1.9064264506  -0.6647047920
 ZH2              -0.3751921632   2.7123347333  -0.2737581584
 ZH3              -0.8140290729   1.3160256597  -0.6631218022

          INTERNUCLEAR DISTANCES (ANGS.)
          ------------------------------

                1 H          2 N          3 O     

   1 H       0.0000000    1.0381802 *  1.8023745 *
   2 N       1.0381802 *  0.0000000    1.1847156 *
   3 O       1.8023745 *  1.1847156 *  0.0000000  

  * ... LESS THAN  3.000

 ...... END OF ONE-ELECTRON INTEGRALS ......
 STEP CPU TIME =     0.03 TOTAL CPU TIME =        0.3 (    0.0 MIN)
 TOTAL WALL CLOCK TIME=        0.5 SECONDS, CPU UTILIZATION IS  60.00%
 TOTAL NUMBER OF NONZERO TWO-ELECTRON INTEGRALS =              186516
         13 INTEGRAL RECORDS WERE STORED ON DISK FILE  8.
  ...... END OF TWO-ELECTRON INTEGRALS .....
 STEP CPU TIME =     0.02 TOTAL CPU TIME =        0.3 (    0.0 MIN)
 TOTAL WALL CLOCK TIME=        0.6 SECONDS, CPU UTILIZATION IS  61.40%

 EFP ADDITIVE CONTRIBUTIONS TO THE "NUCLEAR ENERGY":
   -- NUCLEAR CHARGE - NUCLEAR CHARGE   =       30.9303504911
   -- NUCLEAR CHARGE - EFP CHARGE       =       -0.0162853348
   -- NUCLEAR CHARGE - EFP DIPOLE       =       -0.0193864091
   -- NUCLEAR CHARGE - EFP QUADRUPOLE   =        0.0079321535
   -- NUCLEAR CHARGE - EFP OCTUPOLE     =       -0.0005116458
   -- EFP CHARGE     - EFP CHARGE       =       -0.0046182602
   -- EFP CHARGE     - EFP DIPOLE       =       -0.0029302343
   -- EFP CHARGE     - EFP QUADRUPOLE   =       -0.0022773278
   -- EFP CHARGE     - EFP OCTUPOLE     =        0.0000087500
   -- EFP DIPOLE     - EFP DIPOLE       =       -0.0006004544
   -- EFP DIPOLE     - EFP QUADRUPOLE   =       -0.0001368149
   -- EFP QUADRUPOLE - EFP QUADRUPOLE   =       -0.0006060249
   -- EFP-EFP EXCHANGE REPULSION ENERGY =        0.0046090392
   -- EFP-EFP DISPERSION ENERGY (C6)    =        0.0000000000
   -- EFP-EFP DISPERSION ENERGY (C8)    =        0.0000000000
   -- TOTAL INTERFRAGMENT INTERACTION   =       -0.0065513273
 THE TOTAL NUCLEAR CHARGE/EFP ENERGY    =       30.8955479275

          --------------------------
                 RHF SCF CALCULATION
          --------------------------
     DENSITY MATRIX CONV=  1.00E-05

 ITER EX DEM     TOTAL ENERGY        E CHANGE  DENSITY CHANGE     ORB. GRAD
          ---------------START SECOND ORDER SCF---------------
   1  0  0     -129.8011639771  -129.8011639771   0.026229375   0.021019800
   2  1  0     -129.8071621045    -0.0059981275   0.012111685   0.007351355
   3  2  0     -129.8077838322    -0.0006217277   0.002737553   0.001049646
   4  3  0     -129.8077967342    -0.0000129020   0.000913280   0.001033061
   5  4  0     -129.8078022250    -0.0000054908   0.000263263   0.000103874
   6  5  0     -129.8078025059    -0.0000002809   0.000142485   0.000061178
   7  6  0     -129.8078025782    -0.0000000723   0.000125105   0.000046417
   8  7  0     -129.8078026132    -0.0000000350   0.000108472   0.000029811
   9  8  0     -129.8078026334    -0.0000000202   0.000055043   0.000015617
  10  9  0     -129.8078026412    -0.0000000078   0.000027907   0.000008198
  11 10  0     -129.8078026432    -0.0000000020   0.000011063   0.000004099
  12 11  0     -129.8078026436    -0.0000000004   0.000004877   0.000002029
  13 12  0     -129.8078026436    -0.0000000001   0.000002208   0.000000596

          -----------------
          DENSITY CONVERGED
          -----------------
     TIME TO FORM FOCK OPERATORS=       0.0 SECONDS (       0.0 SEC/ITER)
     TIME TO SOLVE SCF EQUATIONS=       0.0 SECONDS (       0.0 SEC/ITER)

 FINAL RHF ENERGY IS     -129.8078026436 AFTER  13 ITERATIONS

          INDUCED DIPOLE     ATOMIC UNITS          DEBYE
                X(IND)           -0.07552         -0.19195
                Y(IND)           -0.12276         -0.31202
                Z(IND)            0.01320          0.03354
 ...... END OF RHF CALCULATION ......
 STEP CPU TIME =     0.04 TOTAL CPU TIME =        0.4 (    0.0 MIN)
 TOTAL WALL CLOCK TIME=        0.7 SECONDS, CPU UTILIZATION IS  59.09%
 ..... END OF 1-ELECTRON GRADIENT ......
 STEP CPU TIME =     0.10 TOTAL CPU TIME =        0.5 (    0.0 MIN)
 TOTAL WALL CLOCK TIME=        0.8 SECONDS, CPU UTILIZATION IS  64.47%
 ...... END OF 2-ELECTRON GRADIENT ......
 STEP CPU TIME =     0.06 TOTAL CPU TIME =        0.6 (    0.0 MIN)
 TOTAL WALL CLOCK TIME=        0.8 SECONDS, CPU UTILIZATION IS  67.90%

          NSERCH=  1     ENERGY=    -129.8078026

                                 -----------------------
                                 GRADIENT (HARTREE/BOHR)
                                 -----------------------
        ATOM     ZNUC       DE/DX         DE/DY         DE/DZ
 --------------------------------------------------------------
    1  H            1.0     0.0085317     0.0084269    -0.0007822
    2  N            7.0    -0.0218929    -0.0060620    -0.0028529
    3  O            8.0     0.0135166    -0.0016413     0.0033920

          MAXIMUM GRADIENT = 0.0218929    RMS GRADIENT = 0.0098064

 NSERCH:   1  E=     -129.8078026436  GRAD. MAX=  0.0218929  R.M.S.=  0.0098064

          HESSIAN UPDATED USING THE BFGS FORMULA
             ACTUAL ENERGY CHANGE WAS   0.0003078792
          PREDICTED ENERGY CHANGE WAS  -0.0003951233 RATIO= -0.779
          MIN SEARCH, CORRECT HESSIAN, TRYING PURE NR STEP
               NR STEP HAS LENGTH         =   0.182765
          TRIM/QA LAMBDA FOR NON-TS MODES =  -0.00021597
          TRIM/QA STEP HAS LENGTH         =   0.150000
          RADIUS OF STEP TAKEN=   0.15000  CURRENT TRUST RADIUS=   0.15000

 BEGINNING GEOMETRY SEARCH POINT NSERCH=   2 ...

 COORDINATES OF ALL ATOMS ARE (ANGS)
   ATOM   CHARGE       X              Y              Z
 ------------------------------------------------------------
 H           1.0   1.4713095108   0.4036312251   0.1470619125
 N           7.0   1.2551290488  -0.5573791597   0.4358939323
 O           8.0   2.2227282333  -1.1297103688   0.7946244646
 COORDINATES OF FRAGMENT MULTIPOLE CENTERS (ANGS)
 MULTIPOLE NAME        X              Y              Z
 ------------------------------------------------------------
 FRAGNAME=H2ORHF
 ZO1              -1.7810788844  -0.4032410931  -0.3120521718
 ZH2              -1.0393379910  -0.8557921633   0.0565891580
 ZH3              -2.1004408536  -0.9383486684  -1.0209571510
 FRAGNAME=H2ORHF
 ZO1              -0.0776169231   1.9064264506  -0.6647047920
 ZH2              -0.3751921632   2.7123347333  -0.2737581584
 ZH3              -0.8140290729   1.3160256597  -0.6631218022

          INTERNUCLEAR DISTANCES (ANGS.)
          ------------------------------

                1 H          2 N          3 O     

   1 H       0.0000000    1.0264984 *  1.8262267 *
   2 N       1.0264984 *  0.0000000    1.1800419 *
   3 O       1.8262267 *  1.1800419 *  0.0000000  

  * ... LESS THAN  3.000

 ...... END OF ONE-ELECTRON INTEGRALS ......
 STEP CPU TIME =     0.01 TOTAL CPU TIME =        0.6 (    0.0 MIN)
 TOTAL WALL CLOCK TIME=        0.8 SECONDS, CPU UTILIZATION IS  66.67%
 TOTAL NUMBER OF NONZERO TWO-ELECTRON INTEGRALS =              186517
         13 INTEGRAL RECORDS WERE STORED ON DISK FILE  8.
  ...... END OF TWO-ELECTRON INTEGRALS .....
 STEP CPU TIME =     0.02 TOTAL CPU TIME =        0.6 (    0.0 MIN)
 TOTAL WALL CLOCK TIME=        0.9 SECONDS, CPU UTILIZATION IS  65.91%

 EFP ADDITIVE CONTRIBUTIONS TO THE "NUCLEAR ENERGY":
   -- NUCLEAR CHARGE - NUCLEAR CHARGE   =       31.0393469910
   -- NUCLEAR CHARGE - EFP CHARGE       =       -0.0158252882
   -- NUCLEAR CHARGE - EFP DIPOLE       =       -0.0187682300
   -- NUCLEAR CHARGE - EFP QUADRUPOLE   =        0.0074803255
   -- NUCLEAR CHARGE - EFP OCTUPOLE     =       -0.0005228178
   -- EFP CHARGE     - EFP CHARGE       =       -0.0046182602
   -- EFP CHARGE     - EFP DIPOLE       =       -0.0029302343
   -- EFP CHARGE     - EFP QUADRUPOLE   =       -0.0022773278
   -- EFP CHARGE     - EFP OCTUPOLE     =        0.0000087500
   -- EFP DIPOLE     - EFP DIPOLE       =       -0.0006004544
   -- EFP DIPOLE     - EFP QUADRUPOLE   =       -0.0001368149
   -- EFP QUADRUPOLE - EFP QUADRUPOLE   =       -0.0006060249
   -- EFP-EFP EXCHANGE REPULSION ENERGY =        0.0046090392
   -- EFP-EFP DISPERSION ENERGY (C6)    =        0.0000000000
   -- EFP-EFP DISPERSION ENERGY (C8)    =        0.0000000000
   -- TOTAL INTERFRAGMENT INTERACTION   =       -0.0065513273
 THE TOTAL NUCLEAR CHARGE/EFP ENERGY    =       31.0051596531

          --------------------------
                 RHF SCF CALCULATION
          --------------------------
     DENSITY MATRIX CONV=  5.00E-05

 ITER EX DEM     TOTAL ENERGY        E CHANGE  DENSITY CHANGE     ORB. GRAD
          ---------------START SECOND ORDER SCF---------------
   1  0  0     -129.8071235510  -129.8071235510   0.008941287   0.006384379
   2  1  0     -129.8078636452    -0.0007400942   0.005720237   0.002319421
   3  2  0     -129.8079970209    -0.0001333756   0.002607347   0.001743569
   4  3  0     -129.8080316202    -0.0000345994   0.004695338   0.001305506
   5  4  0     -129.8080709356    -0.0000393153   0.002391849   0.000640313
   6  5  0     -129.8080835719    -0.0000126363   0.001023872   0.000484665
   7  6  0     -129.8080858613    -0.0000022894   0.000470047   0.000230280
   8  7  0     -129.8080863540    -0.0000004926   0.000191028   0.000089146
   9  8  0     -129.8080864612    -0.0000001073   0.000070066   0.000032018
  10  9  0     -129.8080864731    -0.0000000119   0.000020035   0.000007298
  11 10  0     -129.8080864740    -0.0000000010   0.000005245   0.000002474

          -----------------
          DENSITY CONVERGED
          -----------------
     TIME TO FORM FOCK OPERATORS=       0.0 SECONDS (       0.0 SEC/ITER)
     TIME TO SOLVE SCF EQUATIONS=       0.0 SECONDS (       0.0 SEC/ITER)

 FINAL RHF ENERGY IS     -129.8080864740 AFTER  11 ITERATIONS

          INDUCED DIPOLE     ATOMIC UNITS          DEBYE
                X(IND)           -0.07652         -0.19449
                Y(IND)           -0.12108         -0.30776
                Z(IND)            0.01369          0.03480
 ...... END OF RHF CALCULATION ......
 STEP CPU TIME =     0.05 TOTAL CPU TIME =        0.6 (    0.0 MIN)
 TOTAL WALL CLOCK TIME=        1.0 SECONDS, CPU UTILIZATION IS  61.76%
 ..... END OF 1-ELECTRON GRADIENT ......
 STEP CPU TIME =     0.10 TOTAL CPU TIME =        0.7 (    0.0 MIN)
 TOTAL WALL CLOCK TIME=        1.1 SECONDS, CPU UTILIZATION IS  65.18%
 ...... END OF 2-ELECTRON GRADIENT ......
 STEP CPU TIME =     0.06 TOTAL CPU TIME =        0.8 (    0.0 MIN)
 TOTAL WALL CLOCK TIME=        1.2 SECONDS, CPU UTILIZATION IS  66.95%

          NSERCH=  2     ENERGY=    -129.8080865

                                 -----------------------
                                 GRADIENT (HARTREE/BOHR)
                                 -----------------------
        ATOM     ZNUC       DE/DX         DE/DY         DE/DZ
 --------------------------------------------------------------
    1  H            1.0    -0.0037760     0.0006305    -0.0012124
    2  N            7.0     0.0002734     0.0063109    -0.0012872
    3  O            8.0     0.0044201    -0.0069227     0.0028399

          MAXIMUM GRADIENT = 0.0069227    RMS GRADIENT = 0.0038472

 NSERCH:   2  E=     -129.8080864740  GRAD. MAX=  0.0069227  R.M.S.=  0.0038472

          HESSIAN UPDATED USING THE BFGS FORMULA
             ACTUAL ENERGY CHANGE WAS  -0.0002838304
          PREDICTED ENERGY CHANGE WAS  -0.0005647762 RATIO=  0.503
          MIN SEARCH, CORRECT HESSIAN, TRYING PURE NR STEP
               NR STEP HAS LENGTH         =   0.854842
          TRIM/QA LAMBDA FOR NON-TS MODES =  -0.00734599
          TRIM/QA STEP HAS LENGTH         =   0.150000
          RADIUS OF STEP TAKEN=   0.15000  CURRENT TRUST RADIUS=   0.15000

 BEGINNING GEOMETRY SEARCH POINT NSERCH=   3 ...

 COORDINATES OF ALL ATOMS ARE (ANGS)
   ATOM   CHARGE       X              Y              Z
 ------------------------------------------------------------
 H           1.0   1.4231751823   0.3876061914   0.1541075530
 N           7.0   1.2437945466  -0.5852384970   0.4173834054
 O           8.0   2.2316695701  -1.0812426127   0.7956052012
 COORDINATES OF FRAGMENT MULTIPOLE CENTERS (ANGS)
 MULTIPOLE NAME        X              Y              Z
 ------------------------------------------------------------
 FRAGNAME=H2ORHF
 ZO1              -1.7810788844  -0.4032410931  -0.3120521718
 ZH2              -1.0393379910  -0.8557921633   0.0565891580
 ZH3              -2.1004408536  -0.9383486684  -1.0209571510
 FRAGNAME=H2ORHF
 ZO1              -0.0776169231   1.9064264506  -0.6647047920
 ZH2              -0.3751921632   2.7123347333  -0.2737581584
 ZH3              -0.8140290729   1.3160256597  -0.6631218022

          INTERNUCLEAR DISTANCES (ANGS.)
          ------------------------------

                1 H          2 N          3 O     

   1 H       0.0000000    1.0236788 *  1.7951878 *
   2 N       1.0236788 *  0.0000000    1.1683188 *
   3 O       1.7951878 *  1.1683188 *  0.0000000  

  * ... LESS THAN  3.000

 ...... END OF ONE-ELECTRON INTEGRALS ......
 STEP CPU TIME =     0.01 TOTAL CPU TIME =        0.8 (    0.0 MIN)
 TOTAL WALL CLOCK TIME=        1.2 SECONDS, CPU UTILIZATION IS  66.67%
 TOTAL NUMBER OF NONZERO TWO-ELECTRON INTEGRALS =              186519
         13 INTEGRAL RECORDS WERE STORED ON DISK FILE  8.
  ...... END OF TWO-ELECTRON INTEGRALS .....
 STEP CPU TIME =     0.02 TOTAL CPU TIME =        0.8 (    0.0 MIN)
 TOTAL WALL CLOCK TIME=        1.2 SECONDS, CPU UTILIZATION IS  67.21%

 EFP ADDITIVE CONTRIBUTIONS TO THE "NUCLEAR ENERGY":
   -- NUCLEAR CHARGE - NUCLEAR CHARGE   =       31.3413492185
   -- NUCLEAR CHARGE - EFP CHARGE       =       -0.0145209148
   -- NUCLEAR CHARGE - EFP DIPOLE       =       -0.0184745971
   -- NUCLEAR CHARGE - EFP QUADRUPOLE   =        0.0078751588
   -- NUCLEAR CHARGE - EFP OCTUPOLE     =       -0.0005228503
   -- EFP CHARGE     - EFP CHARGE       =       -0.0046182602
   -- EFP CHARGE     - EFP DIPOLE       =       -0.0029302343
   -- EFP CHARGE     - EFP QUADRUPOLE   =       -0.0022773278
   -- EFP CHARGE     - EFP OCTUPOLE     =        0.0000087500
   -- EFP DIPOLE     - EFP DIPOLE       =       -0.0006004544
   -- EFP DIPOLE     - EFP QUADRUPOLE   =       -0.0001368149
   -- EFP QUADRUPOLE - EFP QUADRUPOLE   =       -0.0006060249
   -- EFP-EFP EXCHANGE REPULSION ENERGY =        0.0046090392
   -- EFP-EFP DISPERSION ENERGY (C6)    =        0.0000000000
   -- EFP-EFP DISPERSION ENERGY (C8)    =        0.0000000000
   -- TOTAL INTERFRAGMENT INTERACTION   =       -0.0065513273
 THE TOTAL NUCLEAR CHARGE/EFP ENERGY    =       31.3091546878

          --------------------------
                 RHF SCF CALCULATION
          --------------------------
     DENSITY MATRIX CONV=  1.00E-05

 ITER EX DEM     TOTAL ENERGY        E CHANGE  DENSITY CHANGE     ORB. GRAD
          ---------------START SECOND ORDER SCF---------------
   1  0  0     -129.8040501628  -129.8040501628   0.019181039   0.013594543
   2  1  0     -129.8074602769    -0.0034101141   0.008260693   0.003925251
   3  2  0     -129.8078863369    -0.0004260599   0.002885790   0.002209149
   4  3  0     -129.8079385852    -0.0000522483   0.006237301   0.001727205
   5  4  0     -129.8080005741    -0.0000619889   0.002384951   0.000790164
   6  5  0     -129.8080172191    -0.0000166450   0.001756581   0.000686266
   7  6  0     -129.8080231076    -0.0000058885   0.000765338   0.000350542
   8  7  0     -129.8080244004    -0.0000012928   0.000294056   0.000117342
   9  8  0     -129.8080246715    -0.0000002711   0.000116334   0.000032632
  10  9  0     -129.8080246981    -0.0000000267   0.000022300   0.000011027
  11 10  0     -129.8080247000    -0.0000000018   0.000005528   0.000002254
  12 11  0     -129.8080247001    -0.0000000001   0.000002885   0.000000887

          -----------------
          DENSITY CONVERGED
          -----------------
     TIME TO FORM FOCK OPERATORS=       0.1 SECONDS (       0.0 SEC/ITER)
     TIME TO SOLVE SCF EQUATIONS=       0.0 SECONDS (       0.0 SEC/ITER)

 FINAL RHF ENERGY IS     -129.8080247001 AFTER  12 ITERATIONS

          INDUCED DIPOLE     ATOMIC UNITS          DEBYE
                X(IND)           -0.07681         -0.19524
                Y(IND)           -0.12000         -0.30500
                Z(IND)            0.01148          0.02918
 ...... END OF RHF CALCULATION ......
 STEP CPU TIME =     0.06 TOTAL CPU TIME =        0.9 (    0.0 MIN)
 TOTAL WALL CLOCK TIME=        4.9 SECONDS, CPU UTILIZATION IS  18.03%
 ..... END OF 1-ELECTRON GRADIENT ......
 STEP CPU TIME =     0.11 TOTAL CPU TIME =        1.0 (    0.0 MIN)
 TOTAL WALL CLOCK TIME=        5.0 SECONDS, CPU UTILIZATION IS  19.84%
 ...... END OF 2-ELECTRON GRADIENT ......
 STEP CPU TIME =     0.03 TOTAL CPU TIME =        1.0 (    0.0 MIN)
[...]

 FINAL RHF ENERGY IS     -129.8082919121 AFTER   7 ITERATIONS

          INDUCED DIPOLE     ATOMIC UNITS          DEBYE
                X(IND)           -0.07174         -0.18235
                Y(IND)           -0.12296         -0.31253
                Z(IND)            0.01411          0.03587
 ...... END OF RHF CALCULATION ......
 STEP CPU TIME =     0.04 TOTAL CPU TIME =        4.0 (    0.1 MIN)
 TOTAL WALL CLOCK TIME=       12.7 SECONDS, CPU UTILIZATION IS  31.40%
 ..... END OF 1-ELECTRON GRADIENT ......
 STEP CPU TIME =     0.09 TOTAL CPU TIME =        4.1 (    0.1 MIN)
 TOTAL WALL CLOCK TIME=       12.8 SECONDS, CPU UTILIZATION IS  31.88%
 ...... END OF 2-ELECTRON GRADIENT ......
 STEP CPU TIME =     0.04 TOTAL CPU TIME =        4.1 (    0.1 MIN)
 TOTAL WALL CLOCK TIME=       12.9 SECONDS, CPU UTILIZATION IS  32.07%

          NSERCH= 19     ENERGY=    -129.8082919

                                 -----------------------
                                 GRADIENT (HARTREE/BOHR)
                                 -----------------------
        ATOM     ZNUC       DE/DX         DE/DY         DE/DZ
 --------------------------------------------------------------
    1  H            1.0    -0.0000004     0.0000013     0.0000018
    2  N            7.0     0.0000006    -0.0000018    -0.0000031
    3  O            8.0    -0.0000002     0.0000007     0.0000013

          MAXIMUM GRADIENT = 0.0000031    RMS GRADIENT = 0.0000015

 NSERCH:  19  E=     -129.8082919121  GRAD. MAX=  0.0000031  R.M.S.=  0.0000015


      ***** EQUILIBRIUM GEOMETRY LOCATED *****
 COORDINATES OF ALL ATOMS ARE (ANGS)
   ATOM   CHARGE       X              Y              Z
 ------------------------------------------------------------
 H           1.0   1.4071517445   0.3602368097   0.1857892900
 N           7.0   1.1612653851  -0.6012825471   0.4479039663
 O           8.0   2.1060681339  -1.1649826438   0.8661922201
 COORDINATES OF FRAGMENT MULTIPOLE CENTERS (ANGS)
 MULTIPOLE NAME        X              Y              Z
 ------------------------------------------------------------
 FRAGNAME=H2ORHF
 ZO1              -1.7810788844  -0.4032410931  -0.3120521718
 ZH2              -1.0393379910  -0.8557921633   0.0565891580
 ZH3              -2.1004408536  -0.9383486684  -1.0209571510
 FRAGNAME=H2ORHF
 ZO1              -0.0776169231   1.9064264506  -0.6647047920
 ZH2              -0.3751921632   2.7123347333  -0.2737581584
 ZH3              -0.8140290729   1.3160256597  -0.6631218022

          INTERNUCLEAR DISTANCES (ANGS.)
          ------------------------------

                1 H          2 N          3 O     

   1 H       0.0000000    1.0264910 *  1.8104493 *
   2 N       1.0264910 *  0.0000000    1.1770196 *
   3 O       1.8104493 *  1.1770196 *  0.0000000  

  * ... LESS THAN  3.000


          NUCLEAR ENERGY    =       31.1200948556
          ELECTRONIC ENERGY =     -160.9283867677
          TOTAL ENERGY      =     -129.8082919121

          ------------------
          MOLECULAR ORBITALS
          ------------------

                      1          2          3          4          5
                  -20.6537   -15.7020    -1.5482    -0.9835    -0.7479
                     A          A          A          A          A   
    1  H  1  S    0.000109  -0.000037   0.053838   0.199131  -0.164832
    2  H  1  S    0.000254   0.000602  -0.009060   0.025687  -0.071511
    3  H  1  X    0.000026   0.000089  -0.000884  -0.005945   0.003369
    4  H  1  Y   -0.000054   0.000360  -0.010535  -0.019283   0.009392
    5  H  1  Z    0.000024  -0.000099   0.003315   0.005018  -0.002334
    6  N  2  S   -0.000071   0.995188  -0.129519  -0.151569  -0.036446
    7  N  2  S   -0.000324   0.024089   0.277913   0.344075   0.099324
    8  N  2  X    0.000041   0.002478   0.155682  -0.045995  -0.029183
    9  N  2  Y   -0.000032   0.000226  -0.068536   0.189649  -0.366021
   10  N  2  Z    0.000021   0.000527   0.060770  -0.074654   0.115299
   11  N  2  S    0.000212   0.000208   0.128401   0.405873   0.035759
   12  N  2  X    0.000329  -0.000217   0.010994  -0.002419  -0.065411
   13  N  2  Y   -0.000447  -0.000782   0.003397   0.074293  -0.148716
   14  N  2  Z    0.000229   0.000209   0.001523  -0.025461   0.033740
   15  N  2 XX    0.000532  -0.002591   0.019946  -0.009115  -0.001451
   16  N  2 YY    0.000143  -0.002852  -0.006362   0.011252  -0.006250
   17  N  2 ZZ    0.000043  -0.003539  -0.006290  -0.006714   0.005920
   18  N  2 XY   -0.000402  -0.000209  -0.019518   0.016561  -0.028341
   19  N  2 XZ    0.000305   0.000391   0.015350  -0.006370   0.008137
   20  N  2 YZ   -0.000181  -0.000392  -0.006704  -0.002694  -0.003185
   21  O  3  S   -0.994735  -0.000251  -0.175476   0.126247   0.060184
   22  O  3  S   -0.021062   0.000356   0.399155  -0.293556  -0.138917
   23  O  3  X    0.001417   0.000040  -0.126883  -0.093508  -0.436423
   24  O  3  Y   -0.000904  -0.000077   0.082383   0.115047  -0.099520
   25  O  3  Z    0.000647   0.000035  -0.058419  -0.061210  -0.072894
   26  O  3  S   -0.004236  -0.001102   0.309506  -0.391844  -0.219393
   27  O  3  X   -0.000030   0.001045  -0.049572  -0.032505  -0.242722
   28  O  3  Y    0.000091  -0.000475   0.034330   0.042013  -0.053780
   29  O  3  Z   -0.000038   0.000413  -0.023553  -0.021926  -0.041094
   30  O  3 XX    0.003575  -0.000524   0.017412   0.002467   0.030250
   31  O  3 YY    0.003734  -0.000164   0.005173   0.003286  -0.016756
   32  O  3 ZZ    0.004102   0.000132   0.001723  -0.000232  -0.003380
   33  O  3 XY    0.000068   0.000503  -0.016211  -0.012032  -0.008451
   34  O  3 XZ   -0.000198  -0.000401   0.011056   0.005539   0.012847
   35  O  3 YZ    0.000197   0.000303  -0.006937  -0.005344   0.002320

                      6          7          8          9         10
                   -0.6678    -0.6007    -0.4131     0.1089     0.2826
                     A          A          A          A          A   
    1  H  1  S    0.036454   0.000066  -0.199453  -0.000093   0.077551
    2  H  1  S    0.023420  -0.000028  -0.144001   0.000092   1.842663
    3  H  1  X   -0.007085   0.001828  -0.003366  -0.003837   0.005803
    4  H  1  Y   -0.001998  -0.002528   0.006654   0.005302  -0.002281
    5  H  1  Z   -0.001063  -0.007532  -0.003061   0.015859   0.002189
    6  N  2  S   -0.051705   0.000052  -0.052081  -0.000005   0.075398
    7  N  2  S    0.103487  -0.000160   0.111698   0.000088  -0.134738
    8  N  2  X   -0.406303   0.084818  -0.323892  -0.102249  -0.074214
    9  N  2  Y    0.015688  -0.116130  -0.249208   0.140601  -0.289923
   10  N  2  Z   -0.104300  -0.347389   0.004558   0.420303   0.078901
   11  N  2  S    0.274903  -0.000073   0.258018  -0.000403  -1.081940
   12  N  2  X   -0.189787   0.054868  -0.281769  -0.138001  -0.182783
   13  N  2  Y   -0.017774  -0.075220  -0.196244   0.189747  -0.812178
   14  N  2  Z   -0.040409  -0.224674  -0.003001   0.566586   0.227524
   15  N  2 XX   -0.038023   0.016170   0.008948   0.002002   0.010535
   16  N  2 YY    0.017192   0.006645  -0.037356   0.011406   0.006785
   17  N  2 ZZ    0.005510  -0.022844   0.005439  -0.013356   0.012054
   18  N  2 XY    0.001920  -0.015645  -0.002003  -0.006326  -0.014456
   19  N  2 XZ   -0.013428  -0.035170   0.000170  -0.002777   0.004880
   20  N  2 YZ   -0.003309   0.007109   0.018075   0.017104  -0.002104
   21  O  3  S   -0.036966   0.000023   0.001981  -0.000007   0.006072
   22  O  3  S    0.078056  -0.000060  -0.021966  -0.000060  -0.023461
   23  O  3  X    0.098832   0.104473   0.323113   0.096115  -0.008638
   24  O  3  Y   -0.440922  -0.143379   0.392382  -0.132187   0.056872
   25  O  3  Z    0.171185  -0.429710  -0.052710  -0.395322  -0.021119
   26  O  3  S    0.180186  -0.000187   0.058689   0.000423  -0.084138
   27  O  3  X    0.052532   0.071655   0.245731   0.118391   0.080325
   28  O  3  Y   -0.261455  -0.098435   0.342227  -0.163026   0.138043
   29  O  3  Z    0.099960  -0.294686  -0.054677  -0.487658  -0.026699
   30  O  3 XX   -0.000544  -0.014038  -0.008256   0.001143  -0.006104
   31  O  3 YY   -0.014450  -0.012882  -0.000866   0.000322  -0.005391
   32  O  3 ZZ    0.000751   0.026915  -0.002985  -0.001524  -0.005107
   33  O  3 XY    0.021269   0.016533  -0.002248  -0.001073   0.015026
   34  O  3 XZ   -0.009062   0.029516  -0.000654  -0.002536  -0.006038
   35  O  3 YZ    0.013257  -0.017051  -0.001482   0.000315   0.004782

                     11         12         13         14         15
                    0.4930     0.8603     0.8946     0.9180     1.0092
                     A          A          A          A          A   
    1  H  1  S    0.028217  -0.105356   0.000948  -0.038379  -0.889127
    2  H  1  S   -0.055039   0.206302  -0.001041  -0.079638   0.262305
    3  H  1  X    0.009831   0.004272  -0.002373  -0.029341  -0.020784
    4  H  1  Y   -0.003875  -0.101555   0.003518  -0.014598  -0.052028
    5  H  1  Z    0.003744   0.035074   0.009270  -0.002230   0.012339
    6  N  2  S   -0.077595  -0.009078   0.000100   0.026821  -0.025509
    7  N  2  S    0.052467  -0.626413   0.001069  -0.470123   0.112867
    8  N  2  X    0.115157   0.544999  -0.218942  -0.725198   0.001393
    9  N  2  Y   -0.112216   0.510735   0.296761   0.367431  -0.108293
   10  N  2  Z    0.065773  -0.035252   0.889463  -0.300674   0.037228
   11  N  2  S    2.236212   0.829658  -0.001532   0.684321   0.244451
   12  N  2  X    1.660744  -0.634303   0.245834   0.855088   0.215872
   13  N  2  Y   -1.006995  -0.664862  -0.333166  -0.344543   0.647915
   14  N  2  Z    0.740527   0.064830  -0.999031   0.324774  -0.165206
   15  N  2 XX    0.013828  -0.136537  -0.015934   0.019533   0.073996
   16  N  2 YY   -0.014195  -0.249610  -0.011891  -0.065631  -0.135671
   17  N  2 ZZ   -0.015579  -0.142812   0.029190  -0.062989   0.096143
   18  N  2 XY   -0.003935  -0.000677   0.018152  -0.101781  -0.147142
   19  N  2 XZ    0.010430  -0.001742   0.034754   0.063564   0.040877
   20  N  2 YZ   -0.002578   0.046391  -0.016450  -0.032451   0.056830
   21  O  3  S    0.102403  -0.006762  -0.000061  -0.052767  -0.002102
   22  O  3  S   -0.188746  -0.297659   0.001316   0.013760  -0.486418
   23  O  3  X    0.197769  -0.024564  -0.030957  -0.242953  -0.393042
   24  O  3  Y   -0.117626   0.064862   0.042715   0.111602  -0.095026
   25  O  3  Z    0.087444  -0.027121   0.126966  -0.096583  -0.063626
   26  O  3  S   -2.278546   0.443847  -0.002327  -0.323053   0.756763
   27  O  3  X    1.135260   0.030676  -0.009570  -0.106610   0.426028
   28  O  3  Y   -0.659180   0.100689   0.012311   0.058599  -0.228783
   29  O  3  Z    0.496500  -0.026198   0.037396  -0.045600   0.180168
   30  O  3 XX   -0.040230  -0.172307   0.036672  -0.178841  -0.213764
   31  O  3 YY   -0.006387  -0.035347   0.029941  -0.039740  -0.177087
   32  O  3 ZZ    0.010861  -0.082515  -0.065674   0.006492  -0.141065
   33  O  3 XY    0.047977  -0.023562  -0.041017   0.154557  -0.010534
   34  O  3 XZ   -0.034384  -0.016576  -0.076958  -0.116365  -0.019280
   35  O  3 YZ    0.023814  -0.025172   0.038794   0.073000   0.014629

                     16         17         18
                    1.0841     1.1467     1.2033
                     A          A          A   
    1  H  1  S    0.560749   0.127575   0.356118
    2  H  1  S   -0.674406  -1.692605   0.333249
    3  H  1  X   -0.027527   0.066023   0.044769
    4  H  1  Y    0.101837   0.122197  -0.027359
    5  H  1  Z   -0.040790  -0.024838   0.020011
    6  N  2  S    0.057814  -0.042150   0.036673
    7  N  2  S   -0.128842  -1.084062   0.285030
    8  N  2  X    0.020660  -0.032926   0.074706
    9  N  2  Y   -0.189416  -0.556328   0.210865
   10  N  2  Z    0.068176   0.178298  -0.051469
   11  N  2  S    0.584140   2.373089  -0.776008
   12  N  2  X    0.033974   0.208616  -0.502100
   13  N  2  Y    0.158993   1.277138  -0.932123
   14  N  2  Z   -0.044579  -0.377109   0.187351
   15  N  2 XX    0.100361  -0.314838   0.047089
   16  N  2 YY    0.148163  -0.119683   0.186287
   17  N  2 ZZ   -0.092632  -0.162565  -0.025818
   18  N  2 XY   -0.077543   0.067789  -0.013428
   19  N  2 XZ    0.096793  -0.070113   0.034686
   20  N  2 YZ   -0.134943   0.006389  -0.098949
   21  O  3  S   -0.020963  -0.003015  -0.006267
   22  O  3  S   -0.396585  -0.167565   0.047061
   23  O  3  X   -0.368666  -0.028558  -0.555170
   24  O  3  Y    0.524798  -0.302816  -0.577604
   25  O  3  Z   -0.265043   0.093811   0.054155
   26  O  3  S    0.631084   0.258052   0.040734
   27  O  3  X    0.621023  -0.142703   0.842755
   28  O  3  Y   -0.619827   0.275488   0.980726
   29  O  3  Z    0.358068  -0.126122  -0.117880
   30  O  3 XX   -0.194915   0.012232   0.034073
   31  O  3 YY   -0.207866  -0.083998  -0.012270
   32  O  3 ZZ   -0.187971  -0.002212  -0.044442
   33  O  3 XY    0.073494  -0.001594   0.046844
   34  O  3 XZ   -0.030928   0.001878   0.007039
   35  O  3 YZ    0.031602   0.034997  -0.001946

     ----------------------------------------------------------------
     PROPERTY VALUES FOR THE RHF   SELF-CONSISTENT FIELD WAVEFUNCTION
     ----------------------------------------------------------------

          -----------------
          ENERGY COMPONENTS
          -----------------

         WAVEFUNCTION NORMALIZATION =       1.0000000000

                ONE ELECTRON ENERGY =    -239.2173754574
                TWO ELECTRON ENERGY =      78.2889886897
           NUCLEAR REPULSION ENERGY =      31.1200948556
                                      ------------------
                       TOTAL ENERGY =    -129.8082919121

 ELECTRON-ELECTRON POTENTIAL ENERGY =      78.2889886897
  NUCLEUS-ELECTRON POTENTIAL ENERGY =    -368.6603137483
   NUCLEUS-NUCLEUS POTENTIAL ENERGY =      31.1200948556
                                      ------------------
             TOTAL POTENTIAL ENERGY =    -259.2512302031
               TOTAL KINETIC ENERGY =     129.4429382909
                 VIRIAL RATIO (V/T) =       2.0028225072

          ---------------------------------------
          MULLIKEN AND LOWDIN POPULATION ANALYSES
          ---------------------------------------

     ATOMIC MULLIKEN POPULATION IN EACH MOLECULAR ORBITAL

                      1          2          3          4          5

                  2.000000   2.000000   2.000000   2.000000   2.000000

    1            -0.000010   0.000057   0.017196   0.257232   0.179249
    2            -0.000270   2.000583   0.691874   1.076443   0.709762
    3             2.000281  -0.000639   1.290930   0.666324   1.110989

                      6          7          8

                  2.000000   2.000000   2.000000

    1             0.015573   0.002177   0.189020
    2             0.916355   0.828611   0.836800
    3             1.068072   1.169212   0.974180

               ----- POPULATIONS IN EACH AO -----
                             MULLIKEN      LOWDIN
              1  H  1  S      0.52245     0.49064
              2  H  1  S      0.11542     0.25492
              3  H  1  X      0.00360     0.01317
              4  H  1  Y      0.01582     0.03935
              5  H  1  Z      0.00321     0.00968
              6  N  2  S      1.99610     1.97668
              7  N  2  S      0.85124     0.55277
              8  N  2  X      0.92082     0.86825
              9  N  2  Y      0.79491     0.70765
             10  N  2  Z      0.50810     0.46517
             11  N  2  S      0.83584     0.45829
             12  N  2  X      0.40407     0.52004
             13  N  2  Y      0.35870     0.44095
             14  N  2  Z      0.31506     0.37437
             15  N  2 XX      0.01747     0.21750
             16  N  2 YY      0.01630     0.20081
             17  N  2 ZZ     -0.00309     0.16819
             18  N  2 XY      0.01938     0.03482
             19  N  2 XZ      0.01795     0.02760
             20  N  2 YZ      0.00730     0.01815
             21  O  3  S      1.99568     1.97745
             22  O  3  S      0.94212     0.72741
             23  O  3  X      0.98949     0.94011
             24  O  3  Y      1.10443     1.06454
             25  O  3  Z      0.69215     0.64793
             26  O  3  S      0.92826     0.48090
             27  O  3  X      0.46987     0.55955
             28  O  3  Y      0.60554     0.63890
             29  O  3  Z      0.48566     0.52498
             30  O  3 XX      0.01801     0.19233
             31  O  3 YY      0.01056     0.18091
             32  O  3 ZZ      0.00732     0.17436
             33  O  3 XY      0.01246     0.02301
             34  O  3 XZ      0.01254     0.01810
             35  O  3 YZ      0.00527     0.01051

          ----- MULLIKEN ATOMIC OVERLAP POPULATIONS -----
          (OFF-DIAGONAL ELEMENTS NEED TO BE MULTIPLIED BY 2)

             1           2           3

    1    0.3987377
    2    0.3288016   6.4707775
    3   -0.0670436   0.2605780   8.0858129

          TOTAL MULLIKEN AND LOWDIN ATOMIC POPULATIONS
       ATOM         MULL.POP.    CHARGE          LOW.POP.     CHARGE
    1 H             0.660496    0.339504         0.807766    0.192234
    2 N             7.060157   -0.060157         7.031241   -0.031241
    3 O             8.279347   -0.279347         8.160994   -0.160994

          -------------------------------
          BOND ORDER AND VALENCE ANALYSIS     BOND ORDER THRESHOLD=0.050
          -------------------------------

                   BOND                       BOND                       BOND
  ATOM PAIR DIST  ORDER      ATOM PAIR DIST  ORDER      ATOM PAIR DIST  ORDER
    1   2  1.026  0.848        2   3  1.177  1.831

                       TOTAL       BONDED        FREE
      ATOM            VALENCE     VALENCE     VALENCE
    1 H                 0.851       0.851      -0.000
    2 N                 2.679       2.679       0.000
    3 O                 1.834       1.834      -0.000

          ---------------------
          ELECTROSTATIC MOMENTS
          ---------------------

 POINT   1           X           Y           Z (BOHR)    CHARGE
                 3.130617   -1.626721    1.238084       -0.00 (A.U.)
         DX          DY          DZ         /D/  (DEBYE)
     0.034187    2.255578   -0.745619    2.375868
 ...... END OF PROPERTY EVALUATION ......
 STEP CPU TIME =     0.01 TOTAL CPU TIME =        4.1 (    0.1 MIN)
 TOTAL WALL CLOCK TIME=       12.9 SECONDS, CPU UTILIZATION IS  32.14%
  $VIB   
          IVIB=   0 IATOM=   0 ICOORD=   0 E=     -129.8082919121
 -3.728013186E-07 1.280666262E-06 1.829630913E-06 5.764320945E-07-1.810134300E-06
 -3.063325853E-06-2.278411063E-07 6.587387755E-07 1.338492071E-06
  3.418652268E-02 2.255577856E+00-7.456186717E-01
 ......END OF GEOMETRY SEARCH......
 STEP CPU TIME =     0.00 TOTAL CPU TIME =        4.1 (    0.1 MIN)
 TOTAL WALL CLOCK TIME=       12.9 SECONDS, CPU UTILIZATION IS  32.14%
               989120  WORDS OF DYNAMIC MEMORY USED
 EXECUTION OF GAMESS TERMINATED NORMALLY Mon Nov 28 23:32:35 2016
 DDI: 263640 bytes (0.3 MB / 0 MWords) used by master data server.

 ----------------------------------------
 CPU timing information for all processes
 ========================================
 0: 3.964 + 0.181 = 4.146
 ----------------------------------------
 ddikick.x: exited gracefully.
unset echo
----- accounting info -----
Files used on the master node compute-3-0 were:
-rw-rw-r-- 1 sarom sarom  167191 Nov 29  2016 .//efp1-qm-c-opt.dat
-rw-rw-r-- 1 sarom sarom    4774 Nov 29  2016 .//efp1-qm-c-opt.F05
-rw-rw-r-- 1 sarom sarom 2340208 Nov 29  2016 .//efp1-qm-c-opt.F08
-rw-rw-r-- 1 sarom sarom 1930480 Nov 29  2016 .//efp1-qm-c-opt.F10
-rw-rw-r-- 1 sarom sarom  151440 Nov 29  2016 .//efp1-qm-c-opt.F25
-rw-rw-r-- 1 sarom sarom    4774 Nov 27 05:47 .//efp1-qm-c-opt.inp
-rw-rw-r-- 1 sarom sarom  195992 Nov 29  2016 .//efp1-qm-c-opt.log
Mon Nov 28 23:32:39 CST 2016
0.218u 0.219s 0:17.21 2.4%	0+0k 0+144io 0pf+0w
