-catch_rsh /opt/gridengine/default/spool/compute-0-1/active_jobs/23955.1/pe_hostfile
compute-0-1
The primary node assigned by SGE to this run is compute-0-1
Warning: no access to tty (Bad file descriptor).
Thus no job control in this shell.
source /home/sarom/gamess.github.2017-05-31.14.06/install.info
setenv GMS_PATH /home/sarom/gamess.github.2017-05-31.14.06
setenv GMS_BUILD_DIR /home/sarom/gamess.github.2017-05-31.14.06
setenv GMS_TARGET linux64
setenv GMS_FORTRAN gfortran
setenv GMS_GFORTRAN_VERNO 4.4
setenv GMS_MATHLIB mkl-so
setenv GMS_MATHLIB_PATH /share/apps/intel/compilers_and_libraries_2017.1.132/linux/mkl/lib/intel64
setenv GMS_MKL_VERNO 12
setenv GMS_DDI_COMM sockets
setenv GMS_LIBCCHEM false
setenv GMS_EIGEN_PATH
setenv GMS_PHI false
setenv GMS_SHMTYPE sysv
setenv GMS_OPENMP false
unset echo
efp1-glycyl-ump2
tests/solvent/efp1
----- GAMESS execution script 'rungms' -----
This job is running on host compute-0-1.local
under operating system Linux at Fri Jun 2 04:30:12 CDT 2017
Available scratch disk space (Kbyte units) at beginning of the job is
Filesystem           1K-blocks      Used Available Use% Mounted on
/dev/sda1             16126920   3867344  11440376  26% /
GAMESS temporary binary files will be written to /scratch
GAMESS supplementary output files will be written to /home/sarom/restart
Copying input file efp1-glycyl-ump2.inp to your run's scratch directory...
cp tests/solvent/efp1/efp1-glycyl-ump2.inp /scratch/efp1-glycyl-ump2.F05
unset echo
The generated host list is
compute-0-1.local
/home/sarom/gamess.github.2017-05-31.14.06/ddikick.x /home/sarom/gamess.github.2017-05-31.14.06/gamess.00.x efp1-glycyl-ump2 -ddi 1 1 compute-0-1.local -scr /scratch

 Distributed Data Interface kickoff program.
 Initiating 1 compute processes on 1 nodes to run the following command:
 /home/sarom/gamess.github.2017-05-31.14.06/gamess.00.x efp1-glycyl-ump2 

          ******************************************************
          *         GAMESS VERSION = 20 APR 2017 (R1)          *
          *             FROM IOWA STATE UNIVERSITY             *
          * M.W.SCHMIDT, K.K.BALDRIDGE, J.A.BOATZ, S.T.ELBERT, *
          *   M.S.GORDON, J.H.JENSEN, S.KOSEKI, N.MATSUNAGA,   *
          *          K.A.NGUYEN, S.J.SU, T.L.WINDUS,           *
          *       TOGETHER WITH M.DUPUIS, J.A.MONTGOMERY       *
          *         J.COMPUT.CHEM.  14, 1347-1363(1993)        *
          **************** 64 BIT LINUX VERSION ****************

  SINCE 1993, STUDENTS AND POSTDOCS WORKING AT IOWA STATE UNIVERSITY
  AND ALSO IN THEIR VARIOUS JOBS AFTER LEAVING ISU HAVE MADE IMPORTANT
  CONTRIBUTIONS TO THE CODE:
     IVANA ADAMOVIC, CHRISTINE AIKENS, YURI ALEXEEV, POOJA ARORA,
     ANDREY ASADCHEV, ROB BELL, PRADIPTA BANDYOPADHYAY, JONATHAN BENTZ,
     BRETT BODE, KURT BRORSEN, CALEB CARLIN, GALINA CHABAN, WEI CHEN,
     CHEOL HO CHOI, PAUL DAY, ALBERT DEFUSCO, NUWAN DESILVA, TIM DUDLEY,
     DMITRI FEDOROV, GRAHAM FLETCHER, MARK FREITAG, KURT GLAESEMANN,
     DAN KEMP, GRANT MERRILL, NORIYUKI MINEZAWA, JONATHAN MULLIN,
     TAKESHI NAGATA, SEAN NEDD, HEATHER NETZLOFF, BOSILJKA NJEGIC, RYAN OLSON,
     MIKE PAK, SPENCER PRUITT, LUKE ROSKOP, JIM SHOEMAKER, LYUDMILA SLIPCHENKO,
     TONY SMITH, SAROM SOK LEANG, JIE SONG, TETSUYA TAKETSUGU, SIMON WEBB,
     PENG XU, SOOHAENG YOO, FEDERICO ZAHARIEV

  ADDITIONAL CODE HAS BEEN PROVIDED BY COLLABORATORS IN OTHER GROUPS:
     IOWA STATE UNIVERSITY:
          JOE IVANIC, AARON WEST, LAIMUTIS BYTAUTAS, KLAUS RUEDENBERG
     UNIVERSITY OF TOKYO: KIMIHIKO HIRAO, TAKAHITO NAKAJIMA,
          TAKAO TSUNEDA, MUNEAKI KAMIYA, SUSUMU YANAGISAWA,
          KIYOSHI YAGI, MAHITO CHIBA, SEIKEN TOKURA, NAOAKI KAWAKAMI
     UNIVERSITY OF AARHUS: FRANK JENSEN
     UNIVERSITY OF IOWA: VISVALDAS KAIRYS, HUI LI
     NATIONAL INST. OF STANDARDS AND TECHNOLOGY: WALT STEVENS, DAVID GARMER
     UNIVERSITY OF PISA: BENEDETTA MENNUCCI, JACOPO TOMASI
     UNIVERSITY OF MEMPHIS: HENRY KURTZ, PRAKASHAN KORAMBATH
     UNIVERSITY OF ALBERTA: TOBY ZENG, MARIUSZ KLOBUKOWSKI
     UNIVERSITY OF NEW ENGLAND: MARK SPACKMAN
     MIE UNIVERSITY: HIROAKI UMEDA
     NAT. INST. OF ADVANCED INDUSTRIAL SCIENCE AND TECHNOLOGY: KAZUO KITAURA
     MICHIGAN STATE UNIVERSITY:
          KAROL KOWALSKI, MARTA WLOCH, JEFFREY GOUR, JESSE LUTZ,
          WEI LI, PIOTR PIECUCH
     UNIVERSITY OF SILESIA: MONIKA MUSIAL, STANISLAW KUCHARSKI
     FACULTES UNIVERSITAIRES NOTRE-DAME DE LA PAIX:
          OLIVIER QUINET, BENOIT CHAMPAGNE
     UNIVERSITY OF CALIFORNIA - SANTA BARBARA: BERNARD KIRTMAN
     INSTITUTE FOR MOLECULAR SCIENCE:
          KAZUYA ISHIMURA, MICHIO KATOUDA, AND SHIGERU NAGASE
     UNIVERSITY OF NOTRE DAME: ANNA POMOGAEVA, DAN CHIPMAN
     KYUSHU UNIVERSITY:
          HARUYUKI NAKANO,
          FENG LONG GU, JACEK KORCHOWIEC, MARCIN MAKOWSKI, AND YURIKO AOKI,
          HIROTOSHI MORI AND EISAKU MIYOSHI
     PENNSYLVANIA STATE UNIVERSITY:
          TZVETELIN IORDANOV, CHET SWALINA, JONATHAN SKONE,
          SHARON HAMMES-SCHIFFER
     WASEDA UNIVERSITY:
          MASATO KOBAYASHI, TOMOKO AKAMA, TSUGUKI TOUMA,
          TAKESHI YOSHIKAWA, YASUHIRO IKABATA, JUNJI SEINO,
          YUYA NAKAJIMA, HIROMI NAKAI
     NANJING UNIVERSITY: SHUHUA LI
     UNIVERSITY OF NEBRASKA:
          PEIFENG SU, DEJUN SI, NANDUN THELLAMUREGE, YALI WANG, HUI LI
     UNIVERSITY OF ZURICH: ROBERTO PEVERATI, KIM BALDRIDGE
     N. COPERNICUS UNIVERSITY AND JACKSON STATE UNIVERSITY:
          MARIA BARYSZ
     UNIVERSITY OF COPENHAGEN: Jimmy Kromann, CASPER STEINMANN
     TOKYO INSTITUTE OF TECHNOLOGY: HIROYA NAKATA
     NAGOYA UNIVERSITY: YOSHIO NISHIMOTO, STEPHAN IRLE
     MOSCOW STATE UNIVERSITY: VLADIMIR MIRONOV

 EXECUTION OF GAMESS BEGUN Fri Jun  2 04:30:12 2017

            ECHO OF THE FIRST FEW INPUT CARDS -
 INPUT CARD>!  glycyl radical by UMP2 with 4 EFP1 DFT-level waters...95 AOs and 90 MOs      
 INPUT CARD>!  starting geometry is fully optimized UHF + RHF-level EFP1 local minimum.     
 INPUT CARD>!                                                                               
 INPUT CARD>!  geometry optimization was monotonic at the end, so it suffices to            
 INPUT CARD>!  test UMP2 + EFP1 with a single point gradient:                               
 INPUT CARD>!  FINAL E(UHF)= -282.3192346419 E(MP2)= -283.0908533779 RMS grad= 0.010754473  
 INPUT CARD>!                                                                               
 INPUT CARD>!  This run takes 69 seconds on 2.66 GHz Cloverton (12 Oct 2010)                
 INPUT CARD>!                                                                               
 INPUT CARD>!  ----------------------------------------                                     
 INPUT CARD>!  The MP2 level optimization moves a water pair closer to the NH2, and         
 INPUT CARD>!  due to the rearrangements of 2 of the EFP, there are several steps.          
 INPUT CARD>!  the numerical results are from the serial UMP2 program:                      
 INPUT CARD>!  nserch=0  E(MPtwo)=  -283.0908533779 r.m.s GRADIENT = 0.0107550              
 INPUT CARD>!         1  E(MPtwo)=  -283.0972630775 r.m.s GRADIENT = 0.0034325              
 INPUT CARD>!         2  E(MPtwo)=  -283.0990753941 r.m.s GRADIENT = 0.0039701              
 INPUT CARD>!         3  E(MPtwo)=  -283.0860736663 r.m.s GRADIENT = 0.0128213              
 INPUT CARD>!         4  E(MPtwo)=  -283.0978643361 r.m.s GRADIENT = 0.0063385              
 INPUT CARD>!                           ...                                                 
 INPUT CARD>!        51  E(MPtwo)=  -283.1017966767 r.m.s GRADIENT = 0.0000603              
 INPUT CARD>!        52  E(MPtwo)=  -283.1017980260 r.m.s GRADIENT = 0.0000619              
 INPUT CARD>!        53  E(MPtwo)=  -283.1017986197 r.m.s GRADIENT = 0.0000341              
 INPUT CARD>!        54  E(MPtwo)=  -283.1017990060 r.m.s GRADIENT = 0.0000215              
 INPUT CARD>!        55  E(MPtwo)=  -283.1017990860 r.m.s GRADIENT = 0.0000090              
 INPUT CARD>!  The DDI program gives the same results, with small precision differences,    
 INPUT CARD>!  such as ending at    -283.1017990976                  0.0000116              
 INPUT CARD>!  full optimization took 2760 secnds with serial, 3764 secnds with DDI.        
 INPUT CARD>!                                                                               
 INPUT CARD> $contrl scftyp=uhf mult=2 mplevl=2 runtyp=gradient ispher=1 $end               
 INPUT CARD> $system mwords=5 memddi=15 $end                                                
 INPUT CARD> $mp2    code=ddi $end                                                          
 INPUT CARD> $basis  gbasis=ccd $end                                                        
 INPUT CARD> $statpt opttol=5d-5 nstep=100 $end                                             
 INPUT CARD> $data                                                                          
 INPUT CARD>glycyl radical + 4 H2O                                                          
 INPUT CARD>C1                                                                              
 INPUT CARD>N    7.0   0.3677759801   0.6505749367  -0.0651777807                           
 INPUT CARD>H    1.0   0.4742771355   1.4897297723  -0.6004428503                           
 INPUT CARD>H    1.0   0.3506416610   0.7767172971   0.9300458392                           
 INPUT CARD>C    6.0   1.0663361403  -0.4180566797  -0.5355328179                           
 INPUT CARD>H    1.0   1.1313729043  -1.3099472346   0.0674465042                           
 INPUT CARD>C    6.0   1.5808803243  -0.3958432666  -1.8786664478                           
 INPUT CARD>O    8.0   1.4890032898   0.5667682923  -2.6040772537                           
 INPUT CARD>O    8.0   2.1846143615  -1.5176573673  -2.2271857774                           
 INPUT CARD>H    1.0   2.5026165746  -1.4653464163  -3.1326497333                           
 INPUT CARD> $end                                                                           
 INPUT CARD>                                                                                
 INPUT CARD> $efrag                                                                         
 INPUT CARD>coord=cart                                                                      
 INPUT CARD>FRAGNAME=H2Odft                                                                 
    5000000 WORDS OF MEMORY AVAILABLE

     BASIS OPTIONS
     -------------
     GBASIS=CCD          IGAUSS=       0      POLAR=NONE    
     NDFUNC=       0     NFFUNC=       0     DIFFSP=       F
     NPFUNC=       0      DIFFS=       F     BASNAM=        


     RUN TITLE
     ---------
 glycyl radical + 4 H2O                                                          

 THE POINT GROUP OF THE MOLECULE IS C1      
 THE ORDER OF THE PRINCIPAL AXIS IS     0

 ATOM      ATOMIC                      COORDINATES (BOHR)
           CHARGE         X                   Y                   Z
 N           7.0     0.6949958273        1.2294083648       -0.1231681460
 H           1.0     0.8962538283        2.8151810654       -1.1346724584
 H           1.0     0.6626166592        1.4677828614        1.7575317921
 C           6.0     2.0150831160       -0.7900125720       -1.0120102833
 H           1.0     2.1379847791       -2.4754413318        0.1274554118
 C           6.0     2.9874306323       -0.7480353080       -3.5501648087
 O           8.0     2.8138082125        1.0710367710       -4.9209924604
 O           8.0     4.1283225321       -2.8679565674       -4.2087708430
 H           1.0     4.7292595783       -2.7691032039       -5.9198496114

          INTERNUCLEAR DISTANCES (ANGS.)
          ------------------------------

                1 N          2 H          3 H          4 C          5 H     

   1 N       0.0000000    1.0010155 *  1.0033322 *  1.3605858 *  2.1081548 *
   2 H       1.0010155 *  0.0000000    1.6929466 *  1.9985986 *  2.9522944 *
   3 H       1.0033322 *  1.6929466 *  0.0000000    2.0217874 *  2.3890977 *
   4 C       1.3605858 *  1.9985986 *  2.0217874 *  0.0000000    1.0785558 *
   5 H       2.1081548 *  2.9522944 *  2.3890977 *  1.0785558 *  0.0000000  
   6 C       2.4197839 *  2.5325505 *  3.2828722    1.4384913 *  2.1965879 *
   7 O       2.7767219 *  2.4281841 *  3.7188670    2.3296789 *  3.2843568  
   8 O       3.5603949    3.8230777    4.3122758    2.3068068 *  2.5333374 *
   9 H       4.2946539    4.3884744    5.1150113    3.1471787    3.4849783  

                6 C          7 O          8 O          9 H     

   1 N       2.4197839 *  2.7767219 *  3.5603949    4.2946539  
   2 H       2.5325505 *  2.4281841 *  3.8230777    4.3884744  
   3 H       3.2828722    3.7188670    4.3122758    5.1150113  
   4 C       1.4384913 *  2.3296789 *  2.3068068 *  3.1471787  
   5 H       2.1965879 *  3.2843568    2.5333374 *  3.4849783  
   6 C       0.0000000    1.2088355 *  1.3207677 *  1.8883614 *
   7 O       1.2088355 *  0.0000000    2.2295184 *  2.3315855 *
   8 O       1.3207677 *  2.2295184 *  0.0000000    0.9611071 *
   9 H       1.8883614 *  2.3315855 *  0.9611071 *  0.0000000  

  * ... LESS THAN  3.000


     ATOMIC BASIS SET
     ----------------
 THE CONTRACTED PRIMITIVE FUNCTIONS HAVE BEEN UNNORMALIZED
 THE CONTRACTED BASIS FUNCTIONS ARE NOW NORMALIZED TO UNITY

  SHELL TYPE  PRIMITIVE        EXPONENT          CONTRACTION COEFFICIENT(S)

 N         

      1   S       1          9046.0000000    0.000699617413
      1   S       2          1357.0000000    0.005386054630
      1   S       3           309.3000000    0.027391021189
      1   S       4            87.7300000    0.103150591982
      1   S       5            28.5600000    0.278570663317
      1   S       6            10.2100000    0.448294849454
      1   S       7             3.8380000    0.278085928395
      1   S       8             0.7466000    0.015431561233

      2   S       9          9046.0000000   -0.000304990096
      2   S      10          1357.0000000   -0.002408026379
      2   S      11           309.3000000   -0.011944448725
      2   S      12            87.7300000   -0.048925992909
      2   S      13            28.5600000   -0.134472724725
      2   S      14            10.2100000   -0.315112577700
      2   S      15             3.8380000   -0.242857832550
      2   S      16             0.7466000    1.094382206854

      3   S      17             0.2248000    1.000000000000

      4   P      18            13.5500000    0.058905676772
      4   P      19             2.9170000    0.320461106714
      4   P      20             0.7973000    0.753042061792

      5   P      21             0.2185000    1.000000000000

      6   D      22             0.8170000    1.000000000000

 H         

      7   S      23            13.0100000    0.033498726390
      7   S      24             1.9620000    0.234800801174
      7   S      25             0.4446000    0.813682957883

      8   S      26             0.1220000    1.000000000000

      9   P      27             0.7270000    1.000000000000

 H         

     10   S      28            13.0100000    0.033498726390
     10   S      29             1.9620000    0.234800801174
     10   S      30             0.4446000    0.813682957883

     11   S      31             0.1220000    1.000000000000

     12   P      32             0.7270000    1.000000000000

 C         

     13   S      33          6665.0000000    0.000691583963
     13   S      34          1000.0000000    0.005325796153
     13   S      35           228.0000000    0.027060721042
     13   S      36            64.7100000    0.101656846141
     13   S      37            21.0600000    0.274574823617
     13   S      38             7.4950000    0.448294318924
     13   S      39             2.7970000    0.284902610715
     13   S      40             0.5215000    0.015194859206

     14   S      41          6665.0000000   -0.000293269653
     14   S      42          1000.0000000   -0.002318035474
     14   S      43           228.0000000   -0.011499786039
     14   S      44            64.7100000   -0.046826727010
     14   S      45            21.0600000   -0.128466168750
     14   S      46             7.4950000   -0.301266272463
     14   S      47             2.7970000   -0.255630702330
     14   S      48             0.5215000    1.093793361012

     15   S      49             0.1596000    1.000000000000

     16   P      50             9.4390000    0.056979251590
     16   P      51             2.0020000    0.313207211501
     16   P      52             0.5456000    0.760376741738

     17   P      53             0.1517000    1.000000000000

     18   D      54             0.5500000    1.000000000000

 H         

     19   S      55            13.0100000    0.033498726390
     19   S      56             1.9620000    0.234800801174
     19   S      57             0.4446000    0.813682957883

     20   S      58             0.1220000    1.000000000000

     21   P      59             0.7270000    1.000000000000

 C         

     22   S      60          6665.0000000    0.000691583963
     22   S      61          1000.0000000    0.005325796153
     22   S      62           228.0000000    0.027060721042
     22   S      63            64.7100000    0.101656846141
     22   S      64            21.0600000    0.274574823617
     22   S      65             7.4950000    0.448294318924
     22   S      66             2.7970000    0.284902610715
     22   S      67             0.5215000    0.015194859206

     23   S      68          6665.0000000   -0.000293269653
     23   S      69          1000.0000000   -0.002318035474
     23   S      70           228.0000000   -0.011499786039
     23   S      71            64.7100000   -0.046826727010
     23   S      72            21.0600000   -0.128466168750
     23   S      73             7.4950000   -0.301266272463
     23   S      74             2.7970000   -0.255630702330
     23   S      75             0.5215000    1.093793361012

     24   S      76             0.1596000    1.000000000000

     25   P      77             9.4390000    0.056979251590
     25   P      78             2.0020000    0.313207211501
     25   P      79             0.5456000    0.760376741738

     26   P      80             0.1517000    1.000000000000

     27   D      81             0.5500000    1.000000000000

 O         

     28   S      82         11720.0000000    0.000709645947
     28   S      83          1759.0000000    0.005467272292
     28   S      84           400.8000000    0.027823118610
     28   S      85           113.7000000    0.104747739711
     28   S      86            37.0300000    0.282920846357
     28   S      87            13.2700000    0.448495238698
     28   S      88             5.0250000    0.270816885213
     28   S      89             1.0130000    0.015450291607

     29   S      90         11720.0000000   -0.000314443412
     29   S      91          1759.0000000   -0.002482137681
     29   S      92           400.8000000   -0.012316355382
     29   S      93           113.7000000   -0.050538917344
     29   S      94            37.0300000   -0.139384903316
     29   S      95            13.2700000   -0.325077494818
     29   S      96             5.0250000   -0.229848307588
     29   S      97             1.0130000    1.095379346788

     30   S      98             0.3023000    1.000000000000

     31   P      99            17.7000000    0.062679166282
     31   P     100             3.8540000    0.333536565879
     31   P     101             1.0460000    0.741239641640

     32   P     102             0.2753000    1.000000000000

     33   D     103             1.1850000    1.000000000000

 O         

     34   S     104         11720.0000000    0.000709645947
     34   S     105          1759.0000000    0.005467272292
     34   S     106           400.8000000    0.027823118610
     34   S     107           113.7000000    0.104747739711
     34   S     108            37.0300000    0.282920846357
     34   S     109            13.2700000    0.448495238698
     34   S     110             5.0250000    0.270816885213
     34   S     111             1.0130000    0.015450291607

     35   S     112         11720.0000000   -0.000314443412
     35   S     113          1759.0000000   -0.002482137681
     35   S     114           400.8000000   -0.012316355382
     35   S     115           113.7000000   -0.050538917344
     35   S     116            37.0300000   -0.139384903316
     35   S     117            13.2700000   -0.325077494818
     35   S     118             5.0250000   -0.229848307588
     35   S     119             1.0130000    1.095379346788

     36   S     120             0.3023000    1.000000000000

     37   P     121            17.7000000    0.062679166282
     37   P     122             3.8540000    0.333536565879
     37   P     123             1.0460000    0.741239641640

     38   P     124             0.2753000    1.000000000000

     39   D     125             1.1850000    1.000000000000

 H         

     40   S     126            13.0100000    0.033498726390
     40   S     127             1.9620000    0.234800801174
     40   S     128             0.4446000    0.813682957883

     41   S     129             0.1220000    1.000000000000

     42   P     130             0.7270000    1.000000000000

 TOTAL NUMBER OF BASIS SET SHELLS             =   42
 NUMBER OF CARTESIAN GAUSSIAN BASIS FUNCTIONS =   95
 NOTE: THIS RUN WILL RESTRICT THE MO VARIATION SPACE TO SPHERICAL HARMONICS.
 THE NUMBER OF ORBITALS KEPT IN THE VARIATIONAL SPACE WILL BE PRINTED LATER.
 NUMBER OF ELECTRONS                          =   39
 CHARGE OF MOLECULE                           =    0
 SPIN MULTIPLICITY                            =    2
 NUMBER OF OCCUPIED ORBITALS (ALPHA)          =   20
 NUMBER OF OCCUPIED ORBITALS (BETA )          =   19
 TOTAL NUMBER OF ATOMS                        =    9
 THE NUCLEAR REPULSION ENERGY IS      172.8194377672

     $CONTRL OPTIONS
     ---------------
 SCFTYP=UHF          RUNTYP=GRADIENT     EXETYP=RUN     
 MPLEVL=       2     CITYP =NONE         CCTYP =NONE         VBTYP =NONE    
 DFTTYP=NONE         TDDFT =NONE    
 MULT  =       2     ICHARG=       0     NZVAR =       0     COORD =UNIQUE  
 PP    =NONE         RELWFN=NONE         LOCAL =NONE         NUMGRD=       F
 ISPHER=       1     NOSYM =       0     MAXIT =      30     UNITS =ANGS    
 PLTORB=       F     MOLPLT=       F     AIMPAC=       F     FRIEND=        
 NPRINT=       7     IREST =       0     GEOM  =INPUT   
 NORMF =       0     NORMP =       0     ITOL  =      20     ICUT  =       9
 INTTYP=BEST         GRDTYP=BEST         QMTTOL= 1.0E-06

     $SYSTEM OPTIONS
     ---------------
  REPLICATED MEMORY=     5000000 WORDS (ON EVERY NODE).
 DISTRIBUTED MEMDDI=          15 MILLION WORDS IN AGGREGATE,
 MEMDDI DISTRIBUTED OVER   1 PROCESSORS IS    15000000 WORDS/PROCESSOR.
 TOTAL MEMORY REQUESTED ON EACH PROCESSOR=    20000000 WORDS.
 TIMLIM=      525600.00 MINUTES, OR     365.0 DAYS.
 PARALL= F  BALTYP=  DLB     KDIAG=    0  COREFL= F
 MXSEQ2=     300 MXSEQ3=     150  mem10=         0

 READING $EFRAG GROUP
 COORD=CART      POSITION=OPTIMIZE  POLMETHD=FRGSCF   NBUFFMO=0
 READING COORDINATES OF FRAGMENT   1 NAMED   H2ODFT
 READING COORDINATES OF FRAGMENT   2 NAMED   H2ODFT
 READING COORDINATES OF FRAGMENT   3 NAMED   H2ODFT
 READING COORDINATES OF FRAGMENT   4 NAMED   H2ODFT
 FINISHED READING $EFRAG GROUP,   4 FRAGMENTS WILL BE USED.



     SUMMARY OF THE EFFECTIVE FRAGMENT POTENTIAL MODEL CHOSEN
     --------------------------------------------------------
 TOTAL NUMBER OF MULTIPOLE POINTS   =        20  (EFP1/EFP2 ELECTROSTATICS)
 TOTAL NUMBER OF POLARIZABLE POINTS =        20  (EFP1/EFP2 INDUCTION)
 TOTAL NUMBER OF L-J POINTS         =         0  (REPULSION AND DISPERSION)
 TOTAL NUMBER OF REPULSIVE POINTS   =        12  (EFP1 REPULSION/ETC.)

 THIS IS A -EFP1- TYPE RUN, WITH PAULI REPULSION, CHARGE TRANSFER, AND
 HIGHER ORDER EFFECTS COLLECTED IN A FITTED REPULSIVE POTENTIAL.

 OPTIONS FOR EFP SCREENING:
     ELECTROSTATIC AB INITIO-EFP GAUSSIAN SCREENING IS ON
     ELECTROSTATIC EFP-EFP SCREENING CHOICE IS EXPONENTIAL, FOR CHARGE/CHARGE
     POLARIZATION EFP-EFP SCREENING IS OFF

     $EWALD OPTIONS
     -----------

     IFEWLD   =        F         TINFOIL        =        T
     BETA    =    0.200         ELECTRIC CONST =     1.00
     EPSILON =     1.00         CUT_OFF        = 0.10E+04
     CUTLIST =  1000.00         LEVEL          =    1
     KMAX    =       10         EWLDPL         =        F

            MULTIPOLE COORDINATES, ELECTRONIC AND NUCLEAR CHARGES

                  X              Y              Z           ELEC.   NUC.
 O1         6.0620066209  -2.7138266962  -9.1860268995   -8.22458    8.0
 H2         7.8153438654  -2.9451961435  -9.4176752029   -0.57906    1.0
 H3         5.6484356956  -1.1478793852  -9.9331228503   -0.57906    1.0
 B12        6.9386749285  -2.8295117332  -9.3018508213   -0.30866    0.0
 B13        5.8552208436  -1.9308533541  -9.5595746450   -0.30866    0.0
 O1         6.9978996947  -0.8464499480   4.0078701096   -8.22458    8.0
 H2         6.8717442407  -1.2633221252   2.2782208272   -0.57906    1.0
 H3         8.5605613197  -0.0135604057   4.2218044610   -0.57906    1.0
 B12        6.9348216304  -1.0548861343   3.1430458243   -0.30866    0.0
 B13        7.7792301699  -0.4300052745   4.1148376412   -0.30866    0.0
 O1         4.3285948691   2.2570610392  -9.9653492429   -8.22458    8.0
 H2         3.7711901979   2.2155953747  -8.2715473413   -0.57906    1.0
 H3         2.9351873694   2.7749186301 -10.9510587874   -0.57906    1.0
 B12        4.0498929916   2.2363280951  -9.1184484584   -0.30866    0.0
 B13        3.6318915773   2.5159897228 -10.4582041815   -0.30866    0.0
 O1         2.0466655113   1.1104739857   5.5329881321   -8.22458    8.0
 H2         1.2926923131   0.1595217224   6.8401218131   -0.57906    1.0
 H3         3.7203324794   0.5166560397   5.3668454895   -0.57906    1.0
 B12        1.6696786963   0.6349982168   6.1865547047   -0.30866    0.0
 B13        2.8834987794   0.8135653754   5.4499165429   -0.30866    0.0

   CHARGE SCREENING PARAMETERS (COEF AND ZETA)
   ICHGP=   5 AI-FRAGMENT SCREENING= 1   FRAGMENT-FRAGMENT SCREENING= 2

             GAUSSIAN DAMPING    EXPONENTIAL DAMPING
 O1         0.18612   0.54910      1.00000   1.96018
 H2         0.11218   0.38954      1.00000   2.38351
 H3         0.11218   0.38954      1.00000   2.38351
 B12       -0.71758   0.96214      1.00000   9.99991
 B13       -0.71758   0.96214      1.00000   9.99991
 O1         0.18612   0.54910      1.00000   1.96018
 H2         0.11218   0.38954      1.00000   2.38351
 H3         0.11218   0.38954      1.00000   2.38351
 B12       -0.71758   0.96214      1.00000   9.99991
 B13       -0.71758   0.96214      1.00000   9.99991
 O1         0.18612   0.54910      1.00000   1.96018
 H2         0.11218   0.38954      1.00000   2.38351
 H3         0.11218   0.38954      1.00000   2.38351
 B12       -0.71758   0.96214      1.00000   9.99991
 B13       -0.71758   0.96214      1.00000   9.99991
 O1         0.18612   0.54910      1.00000   1.96018
 H2         0.11218   0.38954      1.00000   2.38351
 H3         0.11218   0.38954      1.00000   2.38351
 B12       -0.71758   0.96214      1.00000   9.99991
 B13       -0.71758   0.96214      1.00000   9.99991

   SCREENING FOR POLARIZATION WITH EXPONENTIAL FORMULA  OFF

   SCREENING FOR POLARIZATION WITH TANG-TOENNIS FORMULA  OFF

                  DIPOLE MOMENTS AND THE SECOND MOMENT TENSOR

                  X        Y        Z           XX/XY    YY/XZ    ZZ/YZ
 O1            0.27645  0.27538 -0.20196     -3.76486 -3.94239 -4.39058
                                             -0.26777 -0.01254 -0.25741
 H2            0.04652 -0.01590 -0.00097     -0.30001 -0.31111 -0.31221
                                              0.00043 -0.00296 -0.00138
 H3           -0.02167  0.04065 -0.01719     -0.31060 -0.30236 -0.31037
                                             -0.00045 -0.00036 -0.00584
 B12          -0.18759  0.02212  0.02618     -0.09046 -0.11696 -0.12645
                                             -0.00598 -0.00495 -0.00606
 B13           0.04136 -0.16779  0.08064     -0.11269 -0.09860 -0.12259
                                             -0.00784  0.00052 -0.01543
 O1            0.29641  0.08584 -0.31276     -3.95623 -4.32270 -3.81891
                                              0.32037  0.15067  0.22122
 H2           -0.01325 -0.01581 -0.04463     -0.31093 -0.31263 -0.29977
                                              0.00099 -0.00160  0.00200
 H3            0.03989  0.02352  0.01652     -0.30209 -0.31073 -0.31051
                                              0.00554 -0.00118  0.00002
 B12           0.01083  0.04332  0.18540     -0.11717 -0.12521 -0.09150
                                              0.00720  0.00186  0.00894
 B13          -0.16762 -0.08873 -0.01996     -0.09859 -0.12123 -0.11405
                                              0.01676  0.00275  0.00478
 O1           -0.40253  0.09830  0.14611     -4.01996 -4.46670 -3.61117
                                             -0.16014  0.11453 -0.14228
 H2           -0.00494 -0.00438  0.04872     -0.30792 -0.31325 -0.30216
                                             -0.00102 -0.00495  0.00007
 H3           -0.03124  0.01322 -0.03559     -0.30197 -0.31228 -0.30908
                                             -0.00374  0.00349 -0.00154
 B12           0.06230  0.00355 -0.18020     -0.11398 -0.12919 -0.09070
                                             -0.00399 -0.00675 -0.00282
 B13           0.15063 -0.05555  0.10292     -0.10150 -0.12715 -0.10523
                                             -0.00969  0.01099 -0.00619
 O1            0.18977 -0.31875  0.23543     -3.72715 -4.24738 -4.12331
                                             -0.05480 -0.31220 -0.26039
 H2           -0.02967 -0.01994  0.03376     -0.31020 -0.30744 -0.30568
                                              0.00099 -0.00253 -0.00662
 H3            0.04672 -0.00871 -0.01260     -0.30206 -0.30945 -0.31181
                                             -0.00525  0.00005 -0.00173
 B12           0.07806  0.10317 -0.14010     -0.11009 -0.11548 -0.10830
                                              0.00271 -0.01217 -0.01660
 B13          -0.17844  0.06544  0.01557     -0.09300 -0.11970 -0.12117
                                             -0.01039 -0.00675 -0.00633

                  THE THIRD MOMENT TENSOR

               XXX/XYY  YYY/YYZ  ZZZ/XZZ  XXY/YZZ  XXZ/XYZ
 O1            0.62749  0.64090 -0.49411  0.23532 -0.16001
               0.24133 -0.14914  0.23072  0.21906 -0.00966
 H2            0.03420 -0.02273  0.00169 -0.00587  0.00328
               0.01654  0.00062  0.01687 -0.00772  0.00016
 H3           -0.02928  0.03224 -0.01649  0.01368 -0.00536
              -0.00720  0.00044 -0.00947  0.01196 -0.00116
 B12          -0.56363  0.08343  0.07273  0.02692  0.02380
              -0.18928  0.02068 -0.18773  0.02711  0.00053
 B13           0.14515 -0.50280  0.23929 -0.16876  0.07824
               0.04607  0.07968  0.04526 -0.16734 -0.00049
 O1            0.69395  0.20590 -0.72060  0.05020 -0.26797
               0.23213 -0.25538  0.25286  0.08532 -0.00379
 H2           -0.01997 -0.01993 -0.03189 -0.00658 -0.01574
              -0.00646 -0.01555 -0.00622 -0.00288  0.00052
 H3            0.03098  0.02536  0.02401  0.00218  0.00709
               0.01113  0.00759  0.01376  0.00857 -0.00068
 B12           0.04972  0.13559  0.55527  0.04896  0.18550
               0.01610  0.18546  0.01537  0.04558  0.00054
 B13          -0.50142 -0.26784 -0.08079 -0.08944 -0.02464
              -0.16742 -0.02416 -0.16737 -0.09150 -0.00071
 O1           -0.97388  0.24058  0.31808  0.07345  0.14008
              -0.32696  0.12297 -0.30018  0.07694 -0.00939
 H2            0.00117 -0.00660  0.04077 -0.00239  0.01627
              -0.00017  0.01890  0.00514 -0.00181  0.00014
 H3           -0.02175  0.01419 -0.04116  0.00113 -0.00918
              -0.00947 -0.01415 -0.00645  0.00319 -0.00219
 B12           0.17083  0.01399 -0.54766  0.00691 -0.18433
               0.05844 -0.18188  0.05633  0.00582  0.00119
 B13           0.44466 -0.16617  0.32784 -0.05507  0.10788
               0.14881  0.10598  0.14626 -0.05587 -0.00027
 O1            0.42248 -0.77995  0.55813 -0.24020  0.19198
               0.16092  0.18629  0.17139 -0.24765 -0.01507
 H2           -0.03641 -0.01620  0.02995 -0.00486  0.00988
              -0.01093  0.00799 -0.00884 -0.00077 -0.00269
 H3            0.03829 -0.00490 -0.01830  0.00365 -0.00476
               0.01539 -0.00634  0.01737 -0.00187 -0.00001
 B12           0.25290  0.30337 -0.41957  0.09837 -0.14107
               0.08283 -0.13936  0.08197  0.10122 -0.00033
 B13          -0.53961  0.18725  0.05897  0.06199  0.02034
              -0.17992  0.02100 -0.18155  0.05972  0.00133

                  POLARIZABLE POINTS AND THE POLARIZABILITY TENSOR

              X       Y       Z       XX/YZ    YY/YX    ZZ/ZX    XY/ZY     XZ
 LMO1      6.0623 -2.7136 -9.1862   0.00304  0.00330  0.00414  0.00001  0.00030
                                    0.00066  0.00001  0.00030  0.00066
 LMO2      5.8668 -1.8469 -9.6065   0.77985  2.50586  1.21496 -0.57575  0.31660
                                   -0.83658 -0.24575  0.14154 -0.76988
 LMO3      7.0296 -2.8113 -9.3299   2.92210  0.73588  0.84269 -0.06721 -0.38616
                                    0.13295 -0.39720 -0.21110  0.06625
 LMO4      5.7960 -3.1196 -9.4829   1.45832  1.47218  0.50824 -0.08431 -0.03680
                                   -0.33438  0.04029  0.39767  0.18943
 LMO5      5.9691 -2.6655 -8.6269   1.26589  0.96909  1.20376 -0.30808 -0.00808
                                   -0.10029 -0.43268 -0.44254 -0.62410
 LMO1      6.9982 -0.8464  4.0076   0.00326  0.00421  0.00301 -0.00060  0.00025
                                   -0.00019 -0.00060  0.00025 -0.00019
 LMO2      7.8651 -0.3912  4.0924   2.50203  1.29747  0.70118  0.85011  0.04056
                                   -0.00687  0.91815  0.37378  0.16142
 LMO3      6.9589 -1.0618  3.0495   0.71187  0.91382  2.87498 -0.00344  0.28811
                                    0.56199 -0.07148 -0.04511  0.39370
 LMO4      6.5872 -0.4700  4.1227   1.47260  0.75334  1.21281  0.27564 -0.13649
                                    0.66139 -0.19419  0.16562  0.25315
 LMO5      7.0238 -1.3344  4.2991   0.95200  1.05186  1.43488  0.24583  0.33504
                                   -0.32114  0.71565  0.03293  0.08710
 LMO1      4.3282  2.2572 -9.9652   0.00298  0.00441  0.00309  0.00044  0.00013
                                    0.00014  0.00044  0.00013  0.00014
 LMO2      3.5419  2.5445-10.4801   2.15077  1.01823  1.33168 -0.47370  0.80271
                                   -0.28983 -0.51684  1.16504 -0.39397
 LMO3      3.9905  2.2443 -9.0423   0.94733  0.82161  2.73173  0.03267 -0.54515
                                   -0.06913  0.07581 -0.90748  0.03501
 LMO4      4.7250  2.6632-10.0042   1.39685  0.60261  1.43928 -0.10635  0.01607
                                   -0.36030  0.54137  0.15127 -0.15821
 LMO5      4.4548  1.7233-10.1162   0.95936  0.97432  1.50506 -0.16627  0.14005
                                    0.14016 -0.81400  0.00485 -0.06192
 LMO1      2.0468  1.1102  5.5332   0.00319  0.00362  0.00367  0.00039  0.00023
                                    0.00077  0.00039  0.00023  0.00077
 LMO2      2.9631  0.7610  5.4666   2.71014  1.03093  0.75961 -0.84925 -0.00003
                                    0.07473 -0.59530 -0.25686  0.19106
 LMO3      1.6604  0.5694  6.2572   1.06263  1.43802  2.00002  0.66714 -0.77891
                                   -0.79897  0.41319 -0.52207 -0.91530
 LMO4      1.7726  0.9843  5.0508   1.49831  0.55639  1.38404 -0.20477 -0.08455
                                    0.01595  0.15136  0.00178 -0.57089
 LMO5      2.0744  1.6505  5.7095   1.26791  1.41077  0.76007  0.09053 -0.39262
                                   -0.46402 -0.26561 -0.47895  0.12282

                    --------------                     ------------------
                      REP POINTS                         REP PARAMETERS  
                    --------------                     ------------------

                X         Y         Z               COEF       N          ZETA

  O1         6.06201  -2.71383  -9.18603        -0.00125       0       0.07615
                                                17.16050       0       1.00000
  H2         7.81534  -2.94520  -9.41768        -0.00025       0       0.09500
                                                 0.10634       0       0.60000
  H3         5.64844  -1.14788  -9.93312        -0.00025       0       0.09500
                                                 0.10634       0       0.60000
  O1         6.99790  -0.84645   4.00787        -0.00125       0       0.07615
                                                17.16050       0       1.00000
  H2         6.87174  -1.26332   2.27822        -0.00025       0       0.09500
                                                 0.10634       0       0.60000
  H3         8.56056  -0.01356   4.22180        -0.00025       0       0.09500
                                                 0.10634       0       0.60000
  O1         4.32859   2.25706  -9.96535        -0.00125       0       0.07615
                                                17.16050       0       1.00000
  H2         3.77119   2.21560  -8.27155        -0.00025       0       0.09500
                                                 0.10634       0       0.60000
  H3         2.93519   2.77492 -10.95106        -0.00025       0       0.09500
                                                 0.10634       0       0.60000
  O1         2.04667   1.11047   5.53299        -0.00125       0       0.07615
                                                17.16050       0       1.00000
  H2         1.29269   0.15952   6.84012        -0.00025       0       0.09500
                                                 0.10634       0       0.60000
  H3         3.72033   0.51666   5.36685        -0.00025       0       0.09500
                                                 0.10634       0       0.60000

 THERE ARE   1 FRAGMENT TYPES, AND   1 FRAGMENT-FRAGMENT INTERACTIONS.

 REPULSIVE FIT FOR FRAGMENT PAIR H2ODFT-H2ODFT (COEF,EXPONENT)
 O1      -O1         -47.20425500    1.50233300
 O1      -H2          44.18476900    2.73135500
 O1      -H3          44.18476900    2.73135500
 O1      -CENTER      31.73261600    1.51840900
 H2      -O1          44.18476900    2.73135500
 H2      -H2           0.12069900    1.31532100
 H2      -H3           0.12069900    1.31532100
 H2      -CENTER      -0.06170800    0.80230100
 H3      -O1          44.18476900    2.73135500
 H3      -H2           0.12069900    1.31532100
 H3      -H3           0.12069900    1.31532100
 H3      -CENTER      -0.06170800    0.80230100
 CENTER  -O1          31.73261600    1.51840900
 CENTER  -H2          -0.06170800    0.80230100
 CENTER  -H3          -0.06170800    0.80230100
 CENTER  -CENTER     146.76346400    2.08394700

          ----------------
          PROPERTIES INPUT
          ----------------

     MOMENTS            FIELD           POTENTIAL          DENSITY
 IEMOM =       1   IEFLD =       0   IEPOT =       0   IEDEN =       0
 WHERE =COMASS     WHERE =NUCLEI     WHERE =NUCLEI     WHERE =NUCLEI  
 OUTPUT=BOTH       OUTPUT=BOTH       OUTPUT=BOTH       OUTPUT=BOTH    
 IEMINT=       0   IEFINT=       0                     IEDINT=       0
                                                       MORB  =       0
          EXTRAPOLATION IN EFFECT
          SOSCF IN EFFECT
          DIIS or SOSCF will be reset if energy rises
 ORBITAL PRINTING OPTION: NPREO=     1    95     2     1

     -------------------------------
     INTEGRAL TRANSFORMATION OPTIONS
     -------------------------------
     NWORD  =            0
     CUTOFF = 1.0E-09     MPTRAN =       0
     DIRTRF =       F     AOINTS =DUP     

          ----------------------
          INTEGRAL INPUT OPTIONS
          ----------------------
 NOPK  =       1 NORDER=       0 SCHWRZ=       T

          -----------------------
          MP2 CONTROL INFORMATION
          -----------------------
          NACORE =        5  NBCORE =        5
          LMOMP2 =        F  AOINTS = DUP     
          METHOD =        2  NWORD  =               0
          MP2PRP =        F  OSPT   = UMP     
          CUTOFF = 1.00E-09  CPHFBS = BASISAO 
          CODE   = DDI     

          NUMBER OF CORE -A-  ORBITALS =     5
          NUMBER OF CORE -B-  ORBITALS =     5
          NUMBER OF OCC. -A-  ORBITALS =    20
          NUMBER OF OCC. -B-  ORBITALS =    19
          NUMBER OF MOLECULAR ORBITALS =    95
          NUMBER OF   BASIS  FUNCTIONS =    95


     ------------------------------------------
     THE POINT GROUP IS C1 , NAXIS= 0, ORDER= 1
     ------------------------------------------

 -- VARIATIONAL SPACE WILL BE RESTRICTED TO PURE SPHERICAL HARMONICS ONLY --
 AFTER EXCLUDING CONTAMINANT COMBINATIONS FROM THE CARTESIAN GAUSSIAN BASIS
 SET, THE NUMBER OF SPHERICAL HARMONICS KEPT IN THE VARIATION SPACE IS   90

     DIMENSIONS OF THE SYMMETRY SUBSPACES ARE
 A   =   90

 ..... DONE SETTING UP THE RUN .....
 CPU     0: STEP CPU TIME=     0.02 TOTAL CPU TIME=        0.0 (    0.0 MIN)
 TOTAL WALL CLOCK TIME=        0.0 SECONDS, CPU UTILIZATION IS  66.67%

                    --------------------------------
                    SINGLE POINT ENERGY AND GRADIENT
                    --------------------------------

          ********************
          1 ELECTRON INTEGRALS
          ********************
 TIME TO DO ORDINARY INTEGRALS=      0.01
 TIME TO DO FRAGMENT INTEGRALS=      0.30
 ...... END OF ONE-ELECTRON INTEGRALS ......
 CPU     0: STEP CPU TIME=     0.31 TOTAL CPU TIME=        0.3 (    0.0 MIN)
 TOTAL WALL CLOCK TIME=        0.3 SECONDS, CPU UTILIZATION IS 100.00%

          -------------
          GUESS OPTIONS
          -------------
          GUESS =HUCKEL            NORB  =       0          NORDER=       0
          MIX   =       F          PRTMO =       F          PUNMO =       F
          TOLZ  = 1.0E-08          TOLE  = 1.0E-05
          SYMDEN=       F          PURIFY=       F

 INITIAL GUESS ORBITALS GENERATED BY HUCKEL   ROUTINE.
 HUCKEL GUESS REQUIRES     75828 WORDS.

 STATISTICS FOR GENERATION OF SYMMETRY ORBITAL -Q- MATRIX
 NUMBER OF CARTESIAN ATOMIC ORBITALS=         95
 NUMBER OF SPHERICAL CONTAMINANTS DROPPED=     5
 NUMBER OF LINEARLY DEPENDENT MOS DROPPED=     0
 TOTAL NUMBER OF MOS IN VARIATION SPACE=      90

 SYMMETRIES FOR INITIAL GUESS ORBITALS FOLLOW.  ALPHA SET(S).
    20 ORBITALS ARE OCCUPIED (    5 CORE ORBITALS).
     6=A        7=A        8=A        9=A       10=A       11=A       12=A   
    13=A       14=A       15=A       16=A       17=A       18=A       19=A   
    20=A       21=A       22=A       23=A       24=A       25=A       26=A   
    27=A       28=A       29=A       30=A   

 SYMMETRIES FOR INITIAL GUESS ORBITALS FOLLOW.   BETA SET(S).
    19 ORBITALS ARE OCCUPIED (    5 CORE ORBITALS).
     6=A        7=A        8=A        9=A       10=A       11=A       12=A   
    13=A       14=A       15=A       16=A       17=A       18=A       19=A   
    20=A       21=A       22=A       23=A       24=A       25=A       26=A   
    27=A       28=A       29=A   
 ...... END OF INITIAL ORBITAL SELECTION ......
 CPU     0: STEP CPU TIME=     0.01 TOTAL CPU TIME=        0.3 (    0.0 MIN)
 TOTAL WALL CLOCK TIME=        0.3 SECONDS, CPU UTILIZATION IS 100.00%

                    ----------------------
                    AO INTEGRAL TECHNOLOGY
                    ----------------------
     S,P,L SHELL ROTATED AXIS INTEGRALS, REPROGRAMMED BY
        KAZUYA ISHIMURA (IMS) AND JOSE SIERRA (SYNSTAR).
     S,P,D,L SHELL ROTATED AXIS INTEGRALS PROGRAMMED BY
        KAZUYA ISHIMURA (INSTITUTE FOR MOLECULAR SCIENCE).
     S,P,D,F,G SHELL TO TOTAL QUARTET ANGULAR MOMENTUM SUM 5,
        ERIC PROGRAM BY GRAHAM FLETCHER (ELORET AND NASA ADVANCED
        SUPERCOMPUTING DIVISION, AMES RESEARCH CENTER).
     S,P,D,F,G,L SHELL GENERAL RYS QUADRATURE PROGRAMMED BY
        MICHEL DUPUIS (PACIFIC NORTHWEST NATIONAL LABORATORY).

          --------------------
          2 ELECTRON INTEGRALS
          --------------------

 THE -PK- OPTION IS OFF, THE INTEGRALS ARE NOT IN SUPERMATRIX FORM.
 STORING   15000 INTEGRALS/RECORD ON DISK, USING 12 BYTES/INTEGRAL.
 TWO ELECTRON INTEGRAL EVALUATION REQUIRES   91299 WORDS OF MEMORY.
 SCHWARZ INEQUALITY OVERHEAD:      4560 INTEGRALS, T=        0.01
 II,JST,KST,LST =  1  1  1  1 NREC =         1 INTLOC =    1
 II,JST,KST,LST =  2  1  1  1 NREC =         1 INTLOC =    2
 II,JST,KST,LST =  3  1  1  1 NREC =         1 INTLOC =    7
 II,JST,KST,LST =  4  1  1  1 NREC =         1 INTLOC =   22
 II,JST,KST,LST =  5  1  1  1 NREC =         1 INTLOC =   67
 II,JST,KST,LST =  6  1  1  1 NREC =         1 INTLOC =  214
 II,JST,KST,LST =  7  1  1  1 NREC =         1 INTLOC = 1189
 II,JST,KST,LST =  8  1  1  1 NREC =         1 INTLOC = 3245
 II,JST,KST,LST =  9  1  1  1 NREC =         1 INTLOC = 5710
 II,JST,KST,LST = 10  1  1  1 NREC =         2 INTLOC =  997
 II,JST,KST,LST = 11  1  1  1 NREC =         2 INTLOC = 5638
 II,JST,KST,LST = 12  1  1  1 NREC =         2 INTLOC =10973
 II,JST,KST,LST = 13  1  1  1 NREC =         4 INTLOC = 1729
 II,JST,KST,LST = 14  1  1  1 NREC =         4 INTLOC =10530
 II,JST,KST,LST = 15  1  1  1 NREC =         5 INTLOC = 5385
 II,JST,KST,LST = 16  1  1  1 NREC =         6 INTLOC = 1375
 II,JST,KST,LST = 17  1  1  1 NREC =         8 INTLOC =11843
 II,JST,KST,LST = 18  1  1  1 NREC =        12 INTLOC = 5240
 II,JST,KST,LST = 19  1  1  1 NREC =        22 INTLOC = 9290
 II,JST,KST,LST = 20  1  1  1 NREC =        24 INTLOC =13771
 II,JST,KST,LST = 21  1  1  1 NREC =        27 INTLOC = 5836
 II,JST,KST,LST = 22  1  1  1 NREC =        35 INTLOC =13632
 II,JST,KST,LST = 23  1  1  1 NREC =        39 INTLOC = 1335
 II,JST,KST,LST = 24  1  1  1 NREC =        42 INTLOC = 8092
 II,JST,KST,LST = 25  1  1  1 NREC =        46 INTLOC = 3396
 II,JST,KST,LST = 26  1  1  1 NREC =        58 INTLOC =10372
 II,JST,KST,LST = 27  1  1  1 NREC =        73 INTLOC = 8199
 II,JST,KST,LST = 28  1  1  1 NREC =       111 INTLOC = 4187
 II,JST,KST,LST = 29  1  1  1 NREC =       117 INTLOC = 2656
 II,JST,KST,LST = 30  1  1  1 NREC =       124 INTLOC = 5367
 II,JST,KST,LST = 31  1  1  1 NREC =       132 INTLOC = 8822
 II,JST,KST,LST = 32  1  1  1 NREC =       157 INTLOC = 1285
 II,JST,KST,LST = 33  1  1  1 NREC =       187 INTLOC =13681
 II,JST,KST,LST = 34  1  1  1 NREC =       255 INTLOC = 8539
 II,JST,KST,LST = 35  1  1  1 NREC =       265 INTLOC = 3720
 II,JST,KST,LST = 36  1  1  1 NREC =       276 INTLOC = 5861
 II,JST,KST,LST = 37  1  1  1 NREC =       291 INTLOC = 4264
 II,JST,KST,LST = 38  1  1  1 NREC =       329 INTLOC = 2594
 II,JST,KST,LST = 39  1  1  1 NREC =       383 INTLOC =  394
 II,JST,KST,LST = 40  1  1  1 NREC =       483 INTLOC =11953
 II,JST,KST,LST = 41  1  1  1 NREC =       502 INTLOC =10337
 II,JST,KST,LST = 42  1  1  1 NREC =       526 INTLOC =11736
 SCHWARZ INEQUALITY TEST SKIPPED       42890 INTEGRAL BLOCKS.
 TOTAL NUMBER OF NONZERO TWO-ELECTRON INTEGRALS =             8771015
        585 INTEGRAL RECORDS WERE STORED ON DISK FILE  8.
  ...... END OF TWO-ELECTRON INTEGRALS .....
 CPU     0: STEP CPU TIME=     1.06 TOTAL CPU TIME=        1.4 (    0.0 MIN)
 TOTAL WALL CLOCK TIME=        1.4 SECONDS, CPU UTILIZATION IS  99.29%

 EFP ADDITIVE CONTRIBUTIONS TO THE "NUCLEAR ENERGY":
   -- NUCLEAR CHARGE - NUCLEAR CHARGE   =      172.8194377672
   -- NUCLEAR CHARGE - EFP CHARGE       =       -0.1326319506
   -- NUCLEAR CHARGE - EFP DIPOLE       =       -0.0849858084
   -- NUCLEAR CHARGE - EFP QUADRUPOLE   =       -0.0013041891
   -- NUCLEAR CHARGE - EFP OCTUPOLE     =       -0.0028439464
   -- EFP CHARGE     - EFP CHARGE       =       -0.0133582830
   -- EFP CHARGE     - EFP DIPOLE       =       -0.0056328619
   -- EFP CHARGE     - EFP QUADRUPOLE   =       -0.0040235438
   -- EFP CHARGE     - EFP OCTUPOLE     =       -0.0000024371
   -- EFP DIPOLE     - EFP DIPOLE       =       -0.0010465798
   -- EFP DIPOLE     - EFP QUADRUPOLE   =       -0.0001652360
   -- EFP QUADRUPOLE - EFP QUADRUPOLE   =       -0.0011501316
   -- EFP-EFP EXCHANGE REPULSION ENERGY =        0.0059324994
   -- EFP-EFP DISPERSION ENERGY (C6)    =        0.0000000000
   -- EFP-EFP DISPERSION ENERGY (C8)    =        0.0000000000
   -- TOTAL INTERFRAGMENT INTERACTION   =       -0.0194465737
 THE TOTAL NUCLEAR CHARGE/EFP ENERGY    =      172.5782252990

          ---------------------------
                  UHF SCF CALCULATION
          ---------------------------

     NUCLEAR ENERGY =       172.5782252990
     MAXIT = 30     NPUNCH=  2     MULT=  2
     EXTRAP=T  DAMP=F  SHIFT=F  RSTRCT=F  DIIS=F  SOSCF=T
     DENSITY MATRIX CONV=  1.00E-06
     SOSCF WILL OPTIMIZE    1400 ALPHA AND    1349 BETA ROTATION ANGLES.
     SOGTOL= 2.500E-01
     MEMORY REQUIRED FOR UHF/ROHF ITERS=    154873 WORDS.

 ITER EX      TOTAL ENERGY        E CHANGE  DENSITY CHANGE    ORB. GRAD 
   1  0     -281.3603148195  -281.3603148195   0.282381784   0.000000000
          ---------------START SECOND ORDER SCF---------------
   2  1     -282.1988376882    -0.8385228687   0.194832681   0.099093839
   3  2     -282.2560608922    -0.0572232040   0.096313545   0.065912837
   4  3     -282.3165524895    -0.0604915973   0.017730380   0.012617558
   5  4     -282.3185221857    -0.0019696962   0.012250124   0.004696873
   6  5     -282.3189813161    -0.0004591304   0.009379984   0.003507686
   7  6     -282.3191675541    -0.0001862380   0.006765156   0.001491159
   8  7     -282.3192182338    -0.0000506797   0.003061588   0.000800516
   9  8     -282.3192304248    -0.0000121910   0.001310807   0.000338846
  10  9     -282.3192333506    -0.0000029258   0.000566529   0.000172819
  11 10     -282.3192343140    -0.0000009633   0.000322295   0.000092158
  12 11     -282.3192345413    -0.0000002274   0.000195500   0.000060773
  13 12     -282.3192346052    -0.0000000638   0.000129170   0.000033276
  14 13     -282.3192346287    -0.0000000235   0.000084724   0.000019667
  15 14     -282.3192346385    -0.0000000098   0.000040317   0.000008354
  16 15     -282.3192346413    -0.0000000027   0.000012803   0.000002936
  17 16     -282.3192346418    -0.0000000005   0.000004220   0.000001485
  18 17     -282.3192346419    -0.0000000001   0.000001719   0.000000763
  19 18     -282.3192346419    -0.0000000000   0.000000759   0.000000248

          -----------------
          DENSITY CONVERGED
          -----------------
     TIME TO FORM FOCK OPERATORS=       2.5 SECONDS (       0.1 SEC/ITER)
     TIME TO SOLVE SCF EQUATIONS=       0.1 SECONDS (       0.0 SEC/ITER)

 FINAL UHF ENERGY IS     -282.3192346419 AFTER  19 ITERATIONS

          --------------------
          SPIN SZ   =    0.500
          S-SQUARED =    0.769
          --------------------

          INDUCED DIPOLE     ATOMIC UNITS          DEBYE
                X(IND)            0.10644          0.27054
                Y(IND)            0.11820          0.30045
                Z(IND)           -0.04300         -0.10930

  ----- ALPHA SET ----- 

          ------------
          EIGENVECTORS
          ------------

                      1          2          3          4          5
                  -20.5777   -20.5284   -15.5681   -11.3632   -11.2639
                     A          A          A          A          A   
    1  N  1  S    0.000001  -0.000103   1.001926  -0.000021   0.000055
    2  N  1  S   -0.000005  -0.000198   0.003695  -0.000043   0.000475
    3  N  1  S   -0.000568   0.000937  -0.007561   0.000004  -0.002072
    4  N  1  X   -0.000021  -0.000045   0.000934   0.000012   0.000021
    5  N  1  Y    0.000010   0.000067   0.000205  -0.000019  -0.000114
    6  N  1  Z    0.000036   0.000026   0.000091   0.000015  -0.000029
    7  N  1  X   -0.000016   0.000177  -0.001489   0.000016  -0.000812
    8  N  1  Y    0.000074  -0.000238   0.001505  -0.000203   0.001098
    9  N  1  Z   -0.000187  -0.000100   0.000797   0.000026   0.000263
   10  N  1 XX   -0.000012   0.000006  -0.000107  -0.000024   0.000186
   11  N  1 YY    0.000062  -0.000028  -0.000044   0.000023  -0.000143
   12  N  1 ZZ   -0.000051   0.000022   0.000151   0.000001  -0.000043
   13  N  1 XY   -0.000022   0.000036   0.000145  -0.000067   0.000302
   14  N  1 XZ    0.000006   0.000002   0.000050  -0.000041   0.000184
   15  N  1 YZ   -0.000037  -0.000005  -0.000109   0.000035  -0.000064
   16  H  2  S   -0.000059  -0.000043  -0.000145   0.000038   0.000166
   17  H  2  S    0.000094  -0.000001   0.000349   0.000178   0.000135
   18  H  2  X    0.000022  -0.000021   0.000172   0.000024   0.000156
   19  H  2  Y   -0.000004   0.000019   0.000487  -0.000058  -0.000290
   20  H  2  Z   -0.000030   0.000027  -0.000432  -0.000017  -0.000066
   21  H  3  S    0.000141  -0.000049  -0.000151   0.000020   0.000283
   22  H  3  S    0.000001   0.000145   0.000146   0.000088  -0.000067
   23  H  3  X   -0.000027   0.000007   0.000096   0.000017   0.000126
   24  H  3  Y    0.000003  -0.000004  -0.000022  -0.000025  -0.000213
   25  H  3  Z   -0.000044   0.000004   0.000652  -0.000003  -0.000164
   26  C  4  S   -0.000084  -0.000096   0.000064   0.004589   1.002282
   27  C  4  S   -0.000166  -0.000199   0.000020  -0.000302   0.005314
   28  C  4  S    0.000664   0.000580   0.003528   0.003013  -0.006297
   29  C  4  X   -0.000043  -0.000012  -0.000046   0.000004  -0.000308
   30  C  4  Y   -0.000038  -0.000031   0.000014   0.000010   0.000301
   31  C  4  Z    0.000144   0.000085   0.000075  -0.000010   0.000100
   32  C  4  X   -0.000360   0.000719  -0.001180   0.000596  -0.000965
   33  C  4  Y    0.001093  -0.001526   0.002578   0.000251   0.001300
   34  C  4  Z   -0.000208  -0.000316   0.000328  -0.001708   0.001443
   35  C  4 XX   -0.000098   0.000039  -0.000087   0.000115  -0.000076
   36  C  4 YY    0.000133   0.000075  -0.000117  -0.000063   0.000128
   37  C  4 ZZ   -0.000035  -0.000114   0.000205  -0.000051  -0.000052
   38  C  4 XY   -0.000034  -0.000143   0.000186   0.000159  -0.000135
   39  C  4 XZ    0.000053  -0.000066   0.000003   0.000149  -0.000060
   40  C  4 YZ   -0.000192   0.000274  -0.000249  -0.000050  -0.000044
   41  H  5  S   -0.000020  -0.000110  -0.000089  -0.000009  -0.000318
   42  H  5  S    0.000294  -0.000373   0.000493   0.000483   0.001561
   43  H  5  X    0.000002  -0.000059   0.000131   0.000011   0.000094
   44  H  5  Y   -0.000079   0.000116  -0.000173   0.000060  -0.000488
   45  H  5  Z    0.000063   0.000030  -0.000134  -0.000070   0.000153
   46  C  6  S    0.000158   0.000245  -0.000087   1.001689  -0.005181
   47  C  6  S    0.000259   0.000308  -0.000178   0.003343  -0.000398
   48  C  6  S    0.001983   0.001704  -0.000623  -0.004377   0.002679
   49  C  6  X    0.000108  -0.000008   0.000057   0.000440   0.000045
   50  C  6  Y   -0.000200  -0.000020  -0.000036  -0.000429  -0.000011
   51  C  6  Z   -0.000061   0.000039  -0.000114  -0.000585  -0.000122
   52  C  6  X    0.001509  -0.000334   0.000405   0.001230  -0.000336
   53  C  6  Y   -0.002622   0.002889  -0.000869  -0.000188  -0.000433
   54  C  6  Z   -0.001070  -0.002023  -0.000189  -0.002969   0.001172
   55  C  6 XX   -0.000066   0.000249  -0.000044  -0.000613   0.000170
   56  C  6 YY   -0.000176  -0.000301   0.000059   0.000588   0.000079
   57  C  6 ZZ    0.000241   0.000052  -0.000014   0.000025  -0.000249
   58  C  6 XY    0.000135  -0.000025  -0.000017  -0.000553   0.000080
   59  C  6 XZ   -0.000060  -0.000190   0.000021  -0.000293   0.000212
   60  C  6 YZ   -0.000176   0.000622  -0.000112  -0.000382   0.000012
   61  O  7  S   -0.000497   1.001482  -0.000079  -0.000120  -0.000061
   62  O  7  S   -0.000192   0.002381  -0.000154   0.000547  -0.000132
   63  O  7  S    0.000443  -0.006869   0.000495  -0.001599   0.000290
   64  O  7  X   -0.000003   0.000164   0.000012   0.000067   0.000013
   65  O  7  Y    0.000056  -0.001393   0.000019  -0.000378  -0.000009
   66  O  7  Z   -0.000044   0.000975  -0.000038   0.000204  -0.000025
   67  O  7  X   -0.000345  -0.000160  -0.000031  -0.000346   0.000032
   68  O  7  Y    0.000351   0.001436  -0.000058   0.001112  -0.000052
   69  O  7  Z    0.000477  -0.001023   0.000123  -0.000219  -0.000011
   70  O  7 XX   -0.000005  -0.000050   0.000006  -0.000067  -0.000031
   71  O  7 YY   -0.000111   0.000043  -0.000007   0.000061   0.000015
   72  O  7 ZZ    0.000115   0.000008   0.000001   0.000006   0.000017
   73  O  7 XY    0.000054  -0.000022   0.000008   0.000040  -0.000027
   74  O  7 XZ   -0.000053  -0.000009   0.000007   0.000066  -0.000029
   75  O  7 YZ   -0.000012  -0.000073  -0.000005  -0.000204  -0.000005
   76  O  8  S    1.001393   0.000308  -0.000004   0.000200  -0.000009
   77  O  8  S    0.002184  -0.000198  -0.000014   0.000710  -0.000037
   78  O  8  S   -0.006310   0.000611  -0.000287  -0.002282  -0.000259
   79  O  8  X   -0.000232   0.000040   0.000015  -0.000117   0.000015
   80  O  8  Y    0.001281  -0.000064  -0.000002   0.000220  -0.000012
   81  O  8  Z   -0.000781  -0.000025  -0.000043   0.000062  -0.000033
   82  O  8  X    0.000749  -0.000217  -0.000120   0.000539  -0.000060
   83  O  8  Y   -0.001756  -0.000165   0.000005  -0.001503  -0.000004
   84  O  8  Z   -0.000041   0.000667   0.000334   0.000249   0.000205
   85  O  8 XX   -0.000010   0.000033   0.000005   0.000150  -0.000019
   86  O  8 YY   -0.000106  -0.000107   0.000031  -0.000078   0.000015
   87  O  8 ZZ    0.000116   0.000074  -0.000036  -0.000073   0.000004
   88  O  8 XY    0.000063   0.000029  -0.000012   0.000183  -0.000025
   89  O  8 XZ   -0.000039  -0.000059   0.000020   0.000168  -0.000020
   90  O  8 YZ   -0.000028   0.000079  -0.000004  -0.000035   0.000004
   91  H  9  S    0.000147   0.000152   0.000177   0.000512   0.000147
   92  H  9  S   -0.000226   0.000033   0.000025  -0.000210   0.000132
   93  H  9  X    0.000151   0.000023  -0.000015  -0.000147  -0.000026
   94  H  9  Y    0.000108  -0.000062  -0.000034   0.000136   0.000022
   95  H  9  Z   -0.000520   0.000021   0.000078   0.000236   0.000045

                      6          7          8          9         10
                   -1.4509    -1.3481    -1.2229    -0.9750    -0.7952
                     A          A          A          A          A   
    1  N  1  S    0.000684  -0.000942  -0.013214   0.006256  -0.001899
    2  N  1  S    0.020378   0.028408   0.378583  -0.159090   0.063253
    3  N  1  S    0.002609   0.019994   0.271528  -0.146080   0.067319
    4  N  1  X    0.005646   0.006511   0.052152   0.036443  -0.065122
    5  N  1  Y   -0.005005  -0.004049  -0.031557  -0.096321   0.202394
    6  N  1  Z   -0.005676  -0.006360  -0.015450  -0.060919   0.039443
    7  N  1  X   -0.001249   0.002415   0.005068   0.019434  -0.036458
    8  N  1  Y    0.001146  -0.006695  -0.024780  -0.029766   0.090992
    9  N  1  Z    0.001202  -0.000612  -0.002996  -0.016198   0.020678
   10  N  1 XX    0.000306   0.000054   0.001661   0.000258  -0.001084
   11  N  1 YY   -0.000606   0.001028   0.001768   0.002193  -0.005539
   12  N  1 ZZ    0.000300  -0.001082  -0.003429  -0.002451   0.006623
   13  N  1 XY   -0.000801  -0.001476  -0.006006  -0.007330   0.011413
   14  N  1 XZ   -0.001172  -0.000439  -0.002566  -0.004887   0.002263
   15  N  1 YZ    0.001508   0.000522   0.004073   0.005424  -0.004770
   16  H  2  S    0.008240   0.013534   0.151735  -0.106234   0.136998
   17  H  2  S   -0.000276   0.003293   0.004601  -0.022177   0.017909
   18  H  2  X    0.000035   0.000107  -0.000923   0.000984  -0.003171
   19  H  2  Y   -0.001753  -0.002161  -0.024382   0.013283  -0.011422
   20  H  2  Z    0.000638   0.000812   0.018622  -0.012067   0.013769
   21  H  3  S    0.003720   0.007604   0.143954  -0.123599   0.082116
   22  H  3  S   -0.002037   0.000177  -0.001527  -0.003361   0.009454
   23  H  3  X    0.000426   0.000201   0.003495  -0.000214  -0.000761
   24  H  3  Y   -0.000281   0.000109  -0.001690  -0.001079   0.005169
   25  H  3  Z   -0.000607  -0.002090  -0.029811   0.020498  -0.011099
   26  C  4  S    0.000352  -0.001951  -0.013538  -0.008958   0.008184
   27  C  4  S    0.051216   0.019595   0.208503   0.275851  -0.177545
   28  C  4  S    0.005727   0.010666   0.140929   0.173906  -0.184522
   29  C  4  X    0.010450  -0.005507  -0.055456   0.068167   0.065231
   30  C  4  Y    0.003496   0.019442   0.097507  -0.063157  -0.000017
   31  C  4  Z   -0.030527  -0.006795   0.030890  -0.119963  -0.120972
   32  C  4  X   -0.004421   0.002732   0.000750   0.019047   0.003416
   33  C  4  Y    0.009414   0.004916   0.033755  -0.023211   0.003359
   34  C  4  Z    0.003663  -0.009849  -0.013722  -0.025153  -0.005817
   35  C  4 XX    0.000615  -0.003058  -0.001952   0.003643  -0.002556
   36  C  4 YY   -0.006542  -0.000186   0.010188  -0.016780  -0.005518
   37  C  4 ZZ    0.005927   0.003244  -0.008237   0.013137   0.008074
   38  C  4 XY    0.001721   0.001862  -0.016258   0.010108   0.004043
   39  C  4 XZ   -0.003708   0.000534  -0.006981  -0.002009  -0.004088
   40  C  4 YZ    0.002515  -0.007218   0.016535  -0.003419   0.000488
   41  H  5  S    0.013175  -0.002369   0.056070   0.122394  -0.140900
   42  H  5  S    0.001586   0.002640   0.005333   0.001238  -0.032550
   43  H  5  X    0.000819   0.000086  -0.002828   0.000121   0.002792
   44  H  5  Y    0.001528  -0.001308   0.009694   0.012804  -0.014361
   45  H  5  Z   -0.003170   0.000492  -0.002899  -0.011669   0.006586
   46  C  6  S   -0.014538  -0.003736   0.002486  -0.001582   0.003732
   47  C  6  S    0.232045   0.078033   0.023664   0.203223   0.194297
   48  C  6  S    0.092278   0.018504  -0.021547   0.113376   0.106640
   49  C  6  X    0.037471  -0.058806  -0.021532  -0.052329   0.080672
   50  C  6  Y   -0.006073   0.209374  -0.018590  -0.056145  -0.137696
   51  C  6  Z   -0.083526  -0.063661   0.072140   0.189300  -0.044410
   52  C  6  X   -0.002715  -0.006408   0.003946  -0.028420  -0.009487
   53  C  6  Y   -0.002105   0.017149  -0.018340  -0.006356  -0.015243
   54  C  6  Z    0.009114  -0.001388   0.000618   0.081528   0.049289
   55  C  6 XX   -0.013997  -0.013015   0.003035  -0.005005  -0.004193
   56  C  6 YY    0.022029   0.002368  -0.007874  -0.007112   0.019188
   57  C  6 ZZ   -0.008031   0.010647   0.004840   0.012116  -0.014995
   58  C  6 XY   -0.018792   0.013341   0.000514   0.001121  -0.014610
   59  C  6 XZ   -0.004879   0.009027  -0.005683  -0.007235   0.002737
   60  C  6 YZ   -0.004872  -0.040667   0.009333  -0.003630   0.002119
   61  O  7  S   -0.006571  -0.011218   0.001690   0.001744   0.000093
   62  O  7  S    0.232052   0.332493  -0.068227  -0.090935  -0.073717
   63  O  7  S    0.216859   0.330095  -0.061242  -0.112843  -0.099252
   64  O  7  X    0.011750   0.001679  -0.007851  -0.016056   0.026509
   65  O  7  Y   -0.075757  -0.069500   0.015878  -0.007978  -0.083085
   66  O  7  Z    0.046563   0.064665   0.003750   0.048901   0.026866
   67  O  7  X    0.007353  -0.000484  -0.002832  -0.003588   0.018960
   68  O  7  Y   -0.022568  -0.011733   0.002385  -0.012665  -0.057153
   69  O  7  Z    0.004952   0.013644   0.006388   0.020685   0.014094
   70  O  7 XX   -0.004408  -0.004929   0.000466  -0.000771  -0.001777
   71  O  7 YY    0.006443   0.002428  -0.001540  -0.001893   0.005600
   72  O  7 ZZ   -0.002035   0.002501   0.001074   0.002664  -0.003823
   73  O  7 XY   -0.001634   0.000677   0.000602   0.001617  -0.002800
   74  O  7 XZ    0.002291   0.000561  -0.000603  -0.000389   0.002149
   75  O  7 YZ   -0.008200  -0.009681   0.000839  -0.002359  -0.002522
   76  O  8  S   -0.008021   0.006035   0.001126   0.000836  -0.000906
   77  O  8  S    0.320541  -0.285700  -0.010378  -0.075536  -0.061226
   78  O  8  S    0.295633  -0.270329  -0.018168  -0.076013  -0.053042
   79  O  8  X   -0.025343   0.006300  -0.004103  -0.071830  -0.172275
   80  O  8  Y    0.078129  -0.030998  -0.002474   0.052363   0.209772
   81  O  8  Z   -0.017995   0.018014   0.012838   0.129225   0.230120
   82  O  8  X   -0.013855   0.006200   0.000275  -0.030138  -0.089639
   83  O  8  Y    0.027102  -0.001648  -0.002391   0.036884   0.129533
   84  O  8  Z    0.009463  -0.016028   0.002722   0.036492   0.095728
   85  O  8 XX   -0.003010   0.000867   0.000356   0.000538  -0.000480
   86  O  8 YY    0.006189   0.000727  -0.000888   0.004028   0.014440
   87  O  8 ZZ   -0.003180  -0.001594   0.000533  -0.004566  -0.013960
   88  O  8 XY   -0.006435   0.002048  -0.000044  -0.005146  -0.011072
   89  O  8 XZ   -0.001805   0.002969  -0.000772  -0.001257   0.001802
   90  O  8 YZ    0.001602  -0.002627   0.001330   0.006043   0.006581
   91  H  9  S    0.112000  -0.110894  -0.011581  -0.125229  -0.222171
   92  H  9  S   -0.003717   0.003425  -0.001762   0.003706  -0.005171
   93  H  9  X   -0.010449   0.009118   0.001158   0.007942   0.009670
   94  H  9  Y    0.001335   0.000315  -0.000417   0.001021   0.007004
   95  H  9  Z    0.026221  -0.024494  -0.002593  -0.022501  -0.033577

                     11         12         13         14         15
                   -0.7330    -0.6905    -0.6473    -0.6316    -0.6018
                     A          A          A          A          A   
    1  N  1  S   -0.001324  -0.002627  -0.001071   0.000180   0.000562
    2  N  1  S    0.004701  -0.006309  -0.025586  -0.008122  -0.024340
    3  N  1  S    0.025575   0.023941  -0.056026  -0.013551  -0.058830
    4  N  1  X   -0.026344  -0.027615  -0.034172   0.132980  -0.061300
    5  N  1  Y   -0.140738   0.133456   0.153267  -0.032448   0.289154
    6  N  1  Z    0.268776  -0.032960   0.307321  -0.114888  -0.089966
    7  N  1  X   -0.011662  -0.005600  -0.022658   0.075733  -0.040091
    8  N  1  Y   -0.059468   0.035581   0.095447  -0.024574   0.149547
    9  N  1  Z    0.111702  -0.012027   0.153527  -0.056199  -0.027940
   10  N  1 XX   -0.001485  -0.001113  -0.001137   0.006929  -0.003610
   11  N  1 YY   -0.001605   0.000946  -0.011244   0.001242   0.006992
   12  N  1 ZZ    0.003090   0.000167   0.012381  -0.008171  -0.003382
   13  N  1 XY   -0.004574   0.004290   0.007261  -0.005377   0.009713
   14  N  1 XZ    0.007773   0.000431   0.005928  -0.002905   0.003037
   15  N  1 YZ    0.003547  -0.003851  -0.001151  -0.002084  -0.012814
   16  H  2  S   -0.201650   0.106676  -0.043918   0.034042   0.235332
   17  H  2  S   -0.026296   0.052584  -0.006624   0.006008   0.067953
   18  H  2  X    0.001413  -0.001628   0.000651   0.004587  -0.004570
   19  H  2  Y    0.019881  -0.008829   0.009642  -0.005035  -0.014508
   20  H  2  Z   -0.006177   0.006082   0.007901  -0.000539   0.013840
   21  H  3  S    0.188894  -0.014056   0.250367  -0.107552  -0.061940
   22  H  3  S    0.012784   0.001288   0.030726  -0.018328  -0.010141
   23  H  3  X   -0.000189  -0.000688   0.000541   0.003847  -0.001170
   24  H  3  Y   -0.008505   0.005689   0.000578   0.001271   0.011074
   25  H  3  Z   -0.018875   0.000598  -0.023599   0.009223   0.003165
   26  C  4  S   -0.003146  -0.001731  -0.002514  -0.000959  -0.009243
   27  C  4  S    0.027444  -0.008769  -0.018968   0.019921   0.047988
   28  C  4  S    0.017386  -0.004184   0.008432   0.029459   0.171232
   29  C  4  X   -0.025845   0.063816   0.213375   0.079836   0.111354
   30  C  4  Y   -0.132787  -0.080107  -0.120545   0.135086  -0.276125
   31  C  4  Z    0.212245  -0.047033  -0.072635   0.108828   0.031239
   32  C  4  X   -0.007012   0.050677   0.061203   0.064886   0.045876
   33  C  4  Y   -0.065666  -0.065562   0.010300   0.042392  -0.091897
   34  C  4  Z    0.101015  -0.042800   0.008701   0.032864  -0.006971
   35  C  4 XX    0.003599  -0.001315  -0.000151   0.009155  -0.002141
   36  C  4 YY   -0.003395   0.000641  -0.017261   0.010370   0.006916
   37  C  4 ZZ   -0.000205   0.000674   0.017412  -0.019525  -0.004775
   38  C  4 XY    0.001022   0.004743   0.018987  -0.004987   0.010960
   39  C  4 XZ   -0.002131   0.003154  -0.008832  -0.008867   0.013893
   40  C  4 YZ    0.009368  -0.005812  -0.007506  -0.001468  -0.018462
   41  H  5  S    0.169344   0.026863   0.046146  -0.023064   0.242517
   42  H  5  S    0.024229   0.014564   0.022859  -0.009835   0.066334
   43  H  5  X   -0.000288   0.000614   0.006698   0.002635  -0.000666
   44  H  5  Y    0.013753   0.001745   0.001272   0.001680   0.015026
   45  H  5  Z   -0.009623  -0.002358  -0.006346   0.005835  -0.009135
   46  C  6  S   -0.002352  -0.007785  -0.001954   0.000181   0.001182
   47  C  6  S   -0.048849  -0.153787   0.054012  -0.029933  -0.007008
   48  C  6  S    0.003624  -0.047798   0.065168  -0.035383  -0.048610
   49  C  6  X    0.112798  -0.017621  -0.003657   0.285119   0.022384
   50  C  6  Y   -0.144425  -0.132996   0.205568   0.022483  -0.063261
   51  C  6  Z   -0.128362   0.199575   0.148463   0.041005  -0.021531
   52  C  6  X    0.011212  -0.012742   0.030345   0.125344   0.013483
   53  C  6  Y   -0.003405   0.036730  -0.005048   0.053323   0.011913
   54  C  6  Z   -0.027708   0.002523   0.087886   0.005753  -0.063592
   55  C  6 XX   -0.001982   0.001891  -0.000950   0.010423  -0.002529
   56  C  6 YY    0.006979   0.009896  -0.002503  -0.003125  -0.021989
   57  C  6 ZZ   -0.004997  -0.011787   0.003453  -0.007298   0.024519
   58  C  6 XY   -0.004473  -0.001020   0.008887  -0.002419   0.010400
   59  C  6 XZ    0.001479   0.009977   0.004754  -0.011631  -0.010511
   60  C  6 YZ   -0.002452  -0.004263  -0.016930   0.004560   0.000001
   61  O  7  S    0.000020  -0.001055  -0.002193   0.001222   0.001317
   62  O  7  S    0.064191   0.165314  -0.046056   0.017789   0.004494
   63  O  7  S    0.093070   0.264010  -0.059365   0.021657  -0.005188
   64  O  7  X    0.064319  -0.062776   0.044346   0.267208   0.046154
   65  O  7  Y    0.000406   0.334436  -0.007705   0.110275  -0.019313
   66  O  7  Z   -0.156335  -0.157554   0.217374   0.006032  -0.122650
   67  O  7  X    0.042465  -0.038033   0.025806   0.171784   0.030629
   68  O  7  Y    0.001450   0.211883  -0.005797   0.071696  -0.010932
   69  O  7  Z   -0.103629  -0.102988   0.143256   0.001501  -0.082396
   70  O  7 XX    0.003450   0.010153  -0.003406   0.004388   0.001648
   71  O  7 YY    0.004205  -0.012932  -0.005837  -0.007398   0.000850
   72  O  7 ZZ   -0.007655   0.002779   0.009243   0.003010  -0.002498
   73  O  7 XY   -0.003176   0.003991  -0.002116  -0.013239  -0.000962
   74  O  7 XZ    0.002548  -0.002371   0.002963   0.009873  -0.000429
   75  O  7 YZ    0.006311   0.015932  -0.009652   0.002795   0.004401
   76  O  8  S    0.000377  -0.000705   0.001037  -0.000317  -0.000195
   77  O  8  S   -0.021647   0.087271   0.019470  -0.014196  -0.086543
   78  O  8  S   -0.026045   0.168672   0.013987  -0.020366  -0.163556
   79  O  8  X   -0.092624  -0.010471   0.204083   0.252183   0.005088
   80  O  8  Y    0.124490  -0.173264  -0.130923   0.212081   0.152293
   81  O  8  Z    0.111228   0.231224  -0.003743   0.108363  -0.244902
   82  O  8  X   -0.051293  -0.003499   0.133603   0.172455  -0.008020
   83  O  8  Y    0.072590  -0.114258  -0.081387   0.139423   0.108139
   84  O  8  Z    0.058104   0.144452  -0.000238   0.074251  -0.144863
   85  O  8 XX   -0.000489   0.005363  -0.001804  -0.009060  -0.004948
   86  O  8 YY    0.008089  -0.005519  -0.004806   0.012940   0.001712
   87  O  8 ZZ   -0.007600   0.000156   0.006611  -0.003880   0.003235
   88  O  8 XY   -0.005393   0.002014   0.009918   0.008520  -0.001716
   89  O  8 XZ    0.001719  -0.001451  -0.003066  -0.002758  -0.000819
   90  O  8 YZ    0.001941   0.009421   0.001684   0.003550  -0.007725
   91  H  9  S   -0.105139  -0.120921   0.062463  -0.014605   0.149627
   92  H  9  S   -0.002787   0.010735   0.005675  -0.003100  -0.000050
   93  H  9  X    0.003064   0.009402   0.004434   0.010835  -0.010088
   94  H  9  Y    0.005656  -0.008172  -0.005588   0.008601   0.006011
   95  H  9  Z   -0.014364  -0.015691   0.009844   0.002511   0.018027

                     16         17         18         19         20
                   -0.5552    -0.5247    -0.4823    -0.4465    -0.2947
                     A          A          A          A          A   
    1  N  1  S   -0.000758  -0.002619   0.001436  -0.001019   0.002542
    2  N  1  S    0.012412  -0.060583   0.021465  -0.014183   0.049895
    3  N  1  S    0.039290  -0.106195   0.030967  -0.016848   0.093681
    4  N  1  X   -0.081685   0.425725  -0.140056   0.020581  -0.333279
    5  N  1  Y    0.041762   0.114780  -0.042865  -0.013590  -0.100289
    6  N  1  Z   -0.159402   0.039735  -0.026631  -0.008750  -0.086546
    7  N  1  X   -0.050322   0.301474  -0.099662   0.026989  -0.373732
    8  N  1  Y    0.008109   0.069639  -0.026544  -0.026225  -0.103969
    9  N  1  Z   -0.093295   0.033619  -0.009702  -0.024893  -0.098442
   10  N  1 XX   -0.003701   0.010523  -0.001901  -0.000723   0.012246
   11  N  1 YY    0.013415  -0.002600   0.000924   0.002662  -0.007210
   12  N  1 ZZ   -0.009714  -0.007923   0.000977  -0.001940  -0.005036
   13  N  1 XY   -0.000519  -0.002539   0.000103  -0.000420  -0.010381
   14  N  1 XZ    0.001498   0.000595  -0.000622   0.001097  -0.002828
   15  N  1 YZ   -0.009053  -0.004413   0.000397  -0.004028  -0.008208
   16  H  2  S    0.113712   0.068093  -0.016501   0.015373  -0.046017
   17  H  2  S    0.034096   0.018333   0.000462   0.061666  -0.026108
   18  H  2  X   -0.004200   0.015296  -0.004011   0.003279  -0.013008
   19  H  2  Y   -0.007536  -0.003756   0.000173  -0.002294  -0.001026
   20  H  2  Z    0.000757   0.008438  -0.003221  -0.005406  -0.006330
   21  H  3  S   -0.127348  -0.003473  -0.014566  -0.018931  -0.069951
   22  H  3  S   -0.025694  -0.013565  -0.002171  -0.014936  -0.018414
   23  H  3  X   -0.003939   0.015509  -0.005940  -0.000026  -0.012258
   24  H  3  Y    0.004062   0.005504  -0.001904   0.000009  -0.004769
   25  H  3  Z    0.009044  -0.001307   0.001639   0.001484   0.001745
   26  C  4  S   -0.000475  -0.002375   0.000464   0.003629  -0.004275
   27  C  4  S   -0.020563   0.014333  -0.006605  -0.041908  -0.008491
   28  C  4  S   -0.079194   0.018708  -0.004735  -0.155368   0.058194
   29  C  4  X   -0.089306   0.186416  -0.041399  -0.044563   0.413357
   30  C  4  Y   -0.139489   0.125108  -0.029228  -0.048701   0.153419
   31  C  4  Z    0.193090   0.166543  -0.026460   0.176857   0.163070
   32  C  4  X   -0.042999   0.131194  -0.037874  -0.026363   0.392935
   33  C  4  Y   -0.050485   0.069338  -0.011782  -0.042717   0.177858
   34  C  4  Z    0.068791   0.075298  -0.021200   0.128391   0.164710
   35  C  4 XX   -0.001405  -0.012896   0.006603  -0.000945   0.032203
   36  C  4 YY    0.014710   0.018972  -0.003918   0.007646  -0.015667
   37  C  4 ZZ   -0.013305  -0.006076  -0.002685  -0.006701  -0.016536
   38  C  4 XY   -0.000631   0.006272  -0.001365  -0.003506  -0.008553
   39  C  4 XZ    0.013884   0.003488  -0.004729   0.001396  -0.017337
   40  C  4 YZ   -0.024038   0.002995  -0.003372   0.001665  -0.014169
   41  H  5  S    0.183579   0.018437   0.000980   0.105695  -0.020139
   42  H  5  S    0.098395   0.018048   0.004731   0.036529   0.001345
   43  H  5  X   -0.002260   0.005767  -0.001618  -0.002218   0.014885
   44  H  5  Y    0.008047   0.003598  -0.000766   0.008528   0.004939
   45  H  5  Z   -0.005300   0.004342  -0.001336  -0.000557   0.006109
   46  C  6  S   -0.000588   0.000621   0.000046  -0.003164  -0.001198
   47  C  6  S   -0.037609  -0.021020   0.003566  -0.026966  -0.003320
   48  C  6  S   -0.069711  -0.047083   0.000467   0.006350  -0.002304
   49  C  6  X    0.034292   0.000618   0.082214   0.050212   0.117428
   50  C  6  Y    0.161861   0.014931   0.034450  -0.032102   0.047319
   51  C  6  Z   -0.211113  -0.080210   0.041337  -0.085718   0.043805
   52  C  6  X    0.025726  -0.009188   0.046495  -0.023823   0.054543
   53  C  6  Y   -0.041244  -0.022715   0.020913   0.027997   0.015189
   54  C  6  Z    0.002152  -0.027806   0.021523   0.031361   0.018790
   55  C  6 XX   -0.005554  -0.022135  -0.021406   0.003475  -0.020896
   56  C  6 YY    0.019192   0.012560   0.034746   0.049290  -0.005706
   57  C  6 ZZ   -0.013638   0.009575  -0.013340  -0.052765   0.026602
   58  C  6 XY    0.003891   0.006676   0.043625  -0.037556  -0.013532
   59  C  6 XZ    0.015232   0.017575  -0.022670   0.010277   0.036407
   60  C  6 YZ   -0.040794   0.005974   0.011799   0.028905   0.012159
   61  O  7  S   -0.004942  -0.001061  -0.000140   0.000902   0.000206
   62  O  7  S   -0.049090  -0.008173  -0.000043   0.007062   0.001720
   63  O  7  S   -0.061702  -0.006340  -0.000001   0.013063   0.002772
   64  O  7  X    0.054950  -0.003785   0.397628  -0.274919  -0.161725
   65  O  7  Y   -0.238565  -0.072061   0.164956   0.274561  -0.060118
   66  O  7  Z    0.151011  -0.004196   0.169326   0.401050  -0.058327
   67  O  7  X    0.030459  -0.001819   0.300322  -0.212141  -0.152616
   68  O  7  Y   -0.157881  -0.048833   0.124170   0.205574  -0.056332
   69  O  7  Z    0.114311   0.001335   0.127479   0.317638  -0.056265
   70  O  7 XX   -0.006615  -0.001936   0.002707  -0.001166  -0.000586
   71  O  7 YY    0.008704   0.003893  -0.009178  -0.009026   0.000771
   72  O  7 ZZ   -0.002089  -0.001958   0.006471   0.010193  -0.000185
   73  O  7 XY   -0.003888  -0.000217  -0.011909   0.006207   0.001160
   74  O  7 XZ    0.002543   0.000147   0.009497  -0.002618  -0.000335
   75  O  7 YZ   -0.010979  -0.001100  -0.001753  -0.004712   0.000168
   76  O  8  S    0.001148   0.000619   0.000090  -0.004010   0.000292
   77  O  8  S    0.080898   0.022044  -0.001093   0.005295  -0.000556
   78  O  8  S    0.155795   0.040704  -0.002684   0.036141  -0.005613
   79  O  8  X    0.056564  -0.250766  -0.339100  -0.075975  -0.116559
   80  O  8  Y   -0.203532  -0.142039  -0.141759   0.222702  -0.048303
   81  O  8  Z    0.268427  -0.022992  -0.134941  -0.038676  -0.047292
   82  O  8  X    0.052454  -0.188033  -0.272658  -0.053974  -0.104296
   83  O  8  Y   -0.141858  -0.107768  -0.112484   0.167869  -0.043775
   84  O  8  Z    0.165290  -0.026346  -0.106917  -0.038913  -0.041628
   85  O  8 XX    0.004187   0.004331   0.002047  -0.002926  -0.002019
   86  O  8 YY    0.000344  -0.004425  -0.005203   0.007106  -0.000506
   87  O  8 ZZ   -0.004532   0.000094   0.003156  -0.004179   0.002525
   88  O  8 XY    0.003571  -0.006384  -0.006652  -0.002771  -0.001149
   89  O  8 XZ    0.002162   0.004564   0.004622   0.002609   0.003047
   90  O  8 YZ    0.005169  -0.000376  -0.000915  -0.004829   0.001165
   91  H  9  S   -0.160606  -0.047008   0.005675  -0.003519   0.003315
   92  H  9  S   -0.004266  -0.003241  -0.000078  -0.024200  -0.000562
   93  H  9  X    0.012045  -0.007951  -0.013295  -0.002666  -0.008144
   94  H  9  Y   -0.006328  -0.005297  -0.005687   0.005167  -0.003482
   95  H  9  Z   -0.017417  -0.009082  -0.004324   0.001262  -0.002672

                     21         22         23         24         25
                    0.2276     0.2378     0.2526     0.3659     0.4253
                     A          A          A          A          A   
    1  N  1  S    0.003884   0.041480  -0.009968  -0.018919   0.009982
    2  N  1  S    0.042794  -0.104765   0.008302   0.101902  -0.072759
    3  N  1  S   -0.009005  -1.199335   0.248167   0.922864  -0.681089
    4  N  1  X    0.029822  -0.012438   0.082242   0.046163  -0.000697
[...]
            FRAGMENT-NUCLEAR ENERGY =      -0.2217658945
    TOTAL FRAGMENT INDUCTION ENERGY =      -0.0076436368
 ELECTRON-FRAGMENT EXCHANGE REPULSION =      0.0000000000
                                      ------------------
             TOTAL POTENTIAL ENERGY =    -565.9392521826
                                      ------------------
            SOLUTE POTENTIAL ENERGY =    -565.8689455156
              SOLUTE KINETIC ENERGY =     282.8483988047
                 VIRIAL RATIO (V/T) =       2.0006086225

          ---------------------------------------
          MULLIKEN AND LOWDIN POPULATION ANALYSES
          ---------------------------------------

          MULLIKEN SPHERICAL HARMONIC POPULATIONS
       ATOM           S       P       D      F      G      H      I    TOTAL
    1 N             1.66    2.01    0.03   0.00   0.00   0.00   0.00    3.70
    2 H             0.41    0.03    0.00   0.00   0.00   0.00   0.00    0.44
    3 H             0.36    0.03    0.00   0.00   0.00   0.00   0.00    0.39
    4 C             1.58    1.72    0.06   0.00   0.00   0.00   0.00    3.36
    5 H             0.45    0.02    0.00   0.00   0.00   0.00   0.00    0.46
    6 C             1.49    1.30    0.14   0.00   0.00   0.00   0.00    2.94
    7 O             1.85    2.34    0.02   0.00   0.00   0.00   0.00    4.21
    8 O             1.83    2.29    0.02   0.00   0.00   0.00   0.00    4.14
    9 H             0.32    0.04    0.00   0.00   0.00   0.00   0.00    0.37

          MULLIKEN SPHERICAL HARMONIC POPULATIONS
       ATOM           S       P       D      F      G      H      I    TOTAL
    1 N             1.64    1.75    0.02   0.00   0.00   0.00   0.00    3.42
    2 H             0.42    0.03    0.00   0.00   0.00   0.00   0.00    0.45
    3 H             0.37    0.03    0.00   0.00   0.00   0.00   0.00    0.39
    4 C             1.54    1.17    0.05   0.00   0.00   0.00   0.00    2.76
    5 H             0.48    0.01    0.00   0.00   0.00   0.00   0.00    0.49
    6 C             1.50    1.23    0.13   0.00   0.00   0.00   0.00    2.86
    7 O             1.85    2.29    0.02   0.00   0.00   0.00   0.00    4.16
    8 O             1.83    2.26    0.02   0.00   0.00   0.00   0.00    4.10
    9 H             0.33    0.04    0.00   0.00   0.00   0.00   0.00    0.37

     ATOMIC SPIN POPULATION (ALPHA MINUS BETA)
       ATOM         MULL.POP.                    LOW.POP.
    1 N             0.282717                     0.269809
    2 H            -0.008854                     0.007023
    3 H            -0.002009                     0.011132
    4 C             0.591770                     0.506481
    5 H            -0.028849                     0.004938
    6 C             0.075451                     0.102340
    7 O             0.057159                     0.060802
    8 O             0.034633                     0.037304
    9 H            -0.002018                     0.000170


          ********* ALL ELECTRONS ********

               ----- POPULATIONS IN EACH AO -----
                             MULLIKEN      LOWDIN
              1  N  1  S      2.00376     1.88588
              2  N  1  S      0.74546     0.52208
              3  N  1  S      0.55396     0.34174
              4  N  1  X      0.87028     0.81623
              5  N  1  Y      0.76690     0.68139
              6  N  1  Z      0.78305     0.69400
              7  N  1  X      0.64467     0.62466
              8  N  1  Y      0.34421     0.44976
              9  N  1  Z      0.35520     0.46640
             10  N  1 XX      0.01188     0.13001
             11  N  1 YY      0.01100     0.16914
             12  N  1 ZZ      0.00989     0.17274
             13  N  1 XY      0.00616     0.01629
             14  N  1 XZ      0.01109     0.00821
             15  N  1 YZ      0.00000     0.02520
             16  H  2  S      0.70923     0.55530
             17  H  2  S      0.11642     0.19779
             18  H  2  X      0.01456     0.04469
             19  H  2  Y      0.02600     0.04994
             20  H  2  Z      0.01933     0.03788
             21  H  3  S      0.68773     0.54770
             22  H  3  S      0.03798     0.16133
             23  H  3  X      0.01380     0.04394
             24  H  3  Y      0.01016     0.02490
             25  H  3  Z      0.03506     0.06486
             26  C  4  S      2.00402     1.87639
             27  C  4  S      0.66931     0.48412
             28  C  4  S      0.44860     0.28376
             29  C  4  X      0.62582     0.57520
             30  C  4  Y      0.68186     0.60858
             31  C  4  Z      0.71134     0.63273
             32  C  4  X      0.39365     0.42696
             33  C  4  Y      0.23177     0.33492
             34  C  4  Z      0.24633     0.34045
             35  C  4 XX      0.02316     0.12850
             36  C  4 YY      0.02392     0.17983
             37  C  4 ZZ      0.01829     0.17454
             38  C  4 XY      0.01592     0.03676
             39  C  4 XZ      0.02657     0.03281
             40  C  4 YZ      0.00000     0.06206
             41  H  5  S      0.74004     0.58533
             42  H  5  S      0.18495     0.25339
             43  H  5  X      0.00760     0.02369
             44  H  5  Y      0.01631     0.03589
             45  H  5  Z      0.00979     0.02595
             46  C  6  S      2.00382     1.87072
             47  C  6  S      0.70270     0.49677
             48  C  6  S      0.28357     0.24988
             49  C  6  X      0.56057     0.49793
             50  C  6  Y      0.66040     0.58648
             51  C  6  Z      0.72060     0.63301
             52  C  6  X      0.26240     0.33217
             53  C  6  Y      0.12813     0.27998
             54  C  6  Z      0.19788     0.29615
             55  C  6 XX      0.06844     0.11685
             56  C  6 YY      0.05013     0.24140
             57  C  6 ZZ      0.05952     0.22440
             58  C  6 XY      0.03490     0.12177
             59  C  6 XZ      0.06153     0.07227
             60  C  6 YZ      0.00000     0.11702
             61  O  7  S      2.00298     1.90203
             62  O  7  S      0.84203     0.61082
             63  O  7  S      0.85902     0.50935
             64  O  7  X      0.91906     0.86898
             65  O  7  Y      0.92316     0.87180
             66  O  7  Z      0.96727     0.92363
             67  O  7  X      0.63059     0.64318
             68  O  7  Y      0.55940     0.61535
             69  O  7  Z      0.62892     0.66080
             70  O  7 XX      0.00647     0.18301
             71  O  7 YY      0.00728     0.19419
             72  O  7 ZZ      0.00670     0.18946
             73  O  7 XY      0.00547     0.00788
             74  O  7 XZ      0.00984     0.00608
             75  O  7 YZ      0.00000     0.01613
             76  O  8  S      2.00290     1.90175
             77  O  8  S      0.84050     0.59838
             78  O  8  S      0.80905     0.45258
             79  O  8  X      0.98488     0.93286
             80  O  8  Y      0.94981     0.88862
             81  O  8  Z      0.91729     0.84614
             82  O  8  X      0.64850     0.64844
             83  O  8  Y      0.57828     0.60787
             84  O  8  Z      0.47368     0.55965
             85  O  8 XX      0.00817     0.17479
             86  O  8 YY      0.00706     0.17995
             87  O  8 ZZ      0.00753     0.18547
             88  O  8 XY      0.00475     0.00988
             89  O  8 XZ      0.00573     0.00677
             90  O  8 YZ      0.00000     0.00744
             91  H  9  S      0.63872     0.50654
             92  H  9  S      0.00901     0.13862
             93  H  9  X      0.02225     0.05519
             94  H  9  Y      0.01481     0.04129
             95  H  9  Z      0.04730     0.08433

          ----- MULLIKEN ATOMIC OVERLAP POPULATIONS -----
          (OFF-DIAGONAL ELEMENTS NEED TO BE MULTIPLIED BY 2)

             1           2           3           4           5

    1    6.0820167
    2    0.3675631   0.5592226
    3    0.3733029  -0.0183562   0.4391496
    4    0.3651780  -0.0407965  -0.0057441   5.3255986
    5   -0.0255623   0.0075912  -0.0066876   0.3705122   0.6296143
    6   -0.0456852  -0.0138742   0.0034448   0.3162840  -0.0244042
    7   -0.0010426   0.0234827  -0.0003028  -0.1188405   0.0038826
    8    0.0018305   0.0007659  -0.0000792  -0.0982415   0.0040407
    9   -0.0000850  -0.0000671   0.0000069   0.0066171  -0.0003005

             6           7           8           9

    6    4.3681297
    7    0.7420430   7.7869453
    8    0.4467120  -0.0696307   7.6131460
    9    0.0019351   0.0016332   0.3395705   0.3827848

          TOTAL MULLIKEN AND LOWDIN ATOMIC POPULATIONS
       ATOM         MULL.POP.    CHARGE          LOW.POP.     CHARGE
    1 N             7.117516   -0.117516         7.003726   -0.003726
    2 H             0.885531    0.114469         0.885611    0.114389
    3 H             0.784734    0.215266         0.842736    0.157264
    4 C             6.120567   -0.120567         6.177606   -0.177606
    5 H             0.958686    0.041314         0.924240    0.075760
    6 C             5.794585    0.205415         6.136807   -0.136807
    7 O             8.368170   -0.368170         8.202704   -0.202704
    8 O             8.238114   -0.238114         8.000598   -0.000598
    9 H             0.732095    0.267905         0.825972    0.174028

          MULLIKEN SPHERICAL HARMONIC POPULATIONS
       ATOM           S       P       D      F      G      H      I    TOTAL
    1 N             3.30    3.76    0.05   0.00   0.00   0.00   0.00    7.12
    2 H             0.83    0.06    0.00   0.00   0.00   0.00   0.00    0.89
    3 H             0.73    0.06    0.00   0.00   0.00   0.00   0.00    0.78
    4 C             3.12    2.89    0.11   0.00   0.00   0.00   0.00    6.12
    5 H             0.92    0.03    0.00   0.00   0.00   0.00   0.00    0.96
    6 C             2.99    2.53    0.27   0.00   0.00   0.00   0.00    5.79
    7 O             3.70    4.63    0.04   0.00   0.00   0.00   0.00    8.37
    8 O             3.65    4.55    0.03   0.00   0.00   0.00   0.00    8.24
    9 H             0.65    0.08    0.00   0.00   0.00   0.00   0.00    0.73

          -------------------------------
          BOND ORDER AND VALENCE ANALYSIS     BOND ORDER THRESHOLD=0.050
          -------------------------------

                   BOND                       BOND                       BOND
  ATOM PAIR DIST  ORDER      ATOM PAIR DIST  ORDER      ATOM PAIR DIST  ORDER
    1   2  1.001  0.923        1   3  1.003  0.902        1   4  1.361  1.359
    4   5  1.079  0.931        4   6  1.438  1.102        6   7  1.209  1.954
    6   8  1.321  1.250        8   9  0.961  0.887

                       TOTAL       BONDED        FREE
      ATOM            VALENCE     VALENCE     VALENCE
    1 N                 3.576       3.209       0.368
    2 H                 1.041       0.992       0.049
    3 H                 0.980       0.937       0.043
    4 C                 4.000       3.457       0.544
    5 H                 1.005       0.958       0.047
    6 C                 4.611       4.345       0.267
    7 O                 2.455       2.104       0.351
    8 O                 2.514       2.194       0.320
    9 H                 0.992       0.948       0.043

          -----------------------------------------
          ATOMIC SPIN DENSITY AT THE NUCLEUS (A.U.)
          -----------------------------------------
                            SPIN DENS    ALPHA DENS     BETA DENS
    1  N            7.0     0.1026722      97.82929      97.72662
    2  H            1.0    -0.0032053       0.18222       0.18543
    3  H            1.0     0.0002588       0.17884       0.17858
    4  C            6.0     0.0609482      60.39062      60.32967
    5  H            1.0    -0.0088943       0.18274       0.19164
    6  C            6.0    -0.0034968      60.35307      60.35657
    7  O            8.0     0.0015510     148.71344     148.71189
    8  O            8.0     0.0124559     148.59305     148.58059
    9  H            1.0    -0.0013253       0.16783       0.16915

          ----------------------------
          SOLUTE ELECTROSTATIC MOMENTS
          ----------------------------

 POINT   1           X           Y           Z (BOHR)    CHARGE
                 2.557178   -0.418130   -2.805982       -0.00 (A.U.)
         DX          DY          DZ         /D/  (DEBYE)
     0.063610   -0.459280    2.389927    2.434489

          ----------------------------------------
          EFFECTIVE FRAGMENT ELECTROSTATIC MOMENTS
          ----------------------------------------

 FRAGMENT   1  H2ODFT
          X           Y           Z (BOHR)    CHARGE
     6.136977   -2.639147   -9.240795       -0.00 (A.U.)
         DX          DY          DZ         /D/  (DEBYE)
     1.355756    1.601498   -1.299611    2.468169

 FRAGMENT   2  H2ODFT
          X           Y           Z (BOHR)    CHARGE
     7.078283   -0.823171    3.923055       -0.00 (A.U.)
         DX          DY          DZ         /D/  (DEBYE)
     1.559467    0.367958   -1.621058    2.279289

 FRAGMENT   3  H2ODFT
          X           Y           Z (BOHR)    CHARGE
     4.219432    2.283719   -9.925726       -0.00 (A.U.)
         DX          DY          DZ         /D/  (DEBYE)
    -2.106543    0.607332    0.977880    2.400547

 FRAGMENT   4  H2ODFT
          X           Y           Z (BOHR)    CHARGE
     2.098129    1.024033    5.596835       -0.00 (A.U.)
         DX          DY          DZ         /D/  (DEBYE)
     1.157916   -1.613321    1.206274    2.323504


          ----------------------------
          SYSTEM ELECTROSTATIC MOMENTS
          ----------------------------

 POINT   1           X           Y           Z (BOHR)    CHARGE
                 2.557178   -0.418130   -2.805982       -0.00 (A.U.)
         DX          DY          DZ         /D/  (DEBYE)
     2.032843    0.487965    1.641610    2.658091
 ...... END OF PROPERTY EVALUATION ......
 CPU     0: STEP CPU TIME=     0.02 TOTAL CPU TIME=       23.5 (    0.4 MIN)
 TOTAL WALL CLOCK TIME=       23.5 SECONDS, CPU UTILIZATION IS  99.87%

 BEGINNING ONE ELECTRON GRADIENT...
 TIME TO DO ORDINARY GRADIENT INTEGRALS=      0.05
 READY TO DO 1E- PART OF GRAD WRT FRAGMENT

                     -----------------------------
                     FRAGMENT GRADIENT INFORMATION
                     -----------------------------


      FRAGMENT NO.    1     E'X               E'Y               E'Z 
      TOTALS           0.004000909      -0.004349235      -0.005711528
      TORQUE          -0.002789887      -0.001298260      -0.000246079

      FRAGMENT NO.    2     E'X               E'Y               E'Z 
      TOTALS           0.004815503      -0.001783616      -0.001047120
      TORQUE           0.000023602      -0.000500628       0.000503855

      FRAGMENT NO.    3     E'X               E'Y               E'Z 
      TOTALS          -0.000300447       0.005610956      -0.004947941
      TORQUE           0.000669257       0.000206653       0.000718146

      FRAGMENT NO.    4     E'X               E'Y               E'Z 
      TOTALS          -0.002901971       0.001479086       0.005694530
      TORQUE          -0.000399574      -0.001978262       0.000738599

      TOTAL FORCE ON ALL FRAGMENTS
      FORCE            0.005613995       0.000957191      -0.006012059
 TIME TO DO FRAGMENT GRADIENT INTEGRALS=      3.85
 ..... END OF 1-ELECTRON GRADIENT ......
 CPU     0: STEP CPU TIME=     3.90 TOTAL CPU TIME=       27.4 (    0.5 MIN)
 TOTAL WALL CLOCK TIME=       27.4 SECONDS, CPU UTILIZATION IS  99.89%

      COMPUTING 2-PARTICLE GRADIENT
      FORMING ALL ALPHA BACK-TRANSFORMED AMPLITUDES
      FORMING ALL BETA BACK-TRANSFORMED AMPLITUDES
      FORMING MIXED SPIN BACK-TRANSFORMED AMPLITUDES
 THE COARSE/FINE SCHWARZ SCREENINGS SKIPPED     173459/    332055 BLOCKS.
 THE NUMBER OF GRADIENT INTEGRAL BLOCKS COMPUTED WAS   1083382
 ..... DONE WITH MP2 GRADIENT .....
 CPU     0: STEP CPU TIME=    12.78 TOTAL CPU TIME=       40.2 (    0.7 MIN)
 TOTAL WALL CLOCK TIME=       40.2 SECONDS, CPU UTILIZATION IS  99.95%

                         ----------------------
                         GRADIENT OF THE ENERGY
                         ----------------------

 UNITS ARE HARTREE/BOHR    E'X               E'Y               E'Z 
    1 N                0.001078990       0.008721994      -0.000210446
    2 H               -0.001871383      -0.011571592       0.010149680
    3 H                0.001136091      -0.000671903      -0.014563730
    4 C               -0.001427286       0.002355956      -0.001720582
    5 H                0.000159636       0.006303310      -0.006189630
    6 C                0.004375008       0.011494525      -0.021445846
    7 O                0.004044959      -0.043243328       0.033583696
    8 O               -0.008322504       0.030231654      -0.010860323
    9 H               -0.004787507      -0.004577809       0.017269242
      TOTAL QM TRANS. -0.005613995      -0.000957191       0.006012059
      TOTAL QM TORQUE  0.002521166      -0.031464005       0.013333240
  EFP           TRANS GRADIENT                           TORQUE
    1   0.0040009 -0.0043492 -0.0057115    -0.0027899 -0.0012983 -0.0002461
    2   0.0048155 -0.0017836 -0.0010471     0.0000236 -0.0005006  0.0005039
    3  -0.0003004  0.0056110 -0.0049479     0.0006693  0.0002067  0.0007181
    4  -0.0029020  0.0014791  0.0056945    -0.0003996 -0.0019783  0.0007386

                   MAXIMUM GRADIENT =    0.043243328
                       RMS GRADIENT =    0.010754473
  $VIB   
          IVIB=   0 IATOM=   0 ICOORD=   0 E=     -283.0908533779
  1.078989794E-03 8.721994237E-03-2.104458287E-04-1.871382642E-03-1.157159176E-02
  1.014967975E-02 1.136091442E-03-6.719027987E-04-1.456373021E-02-1.427285719E-03
  2.355956342E-03-1.720582390E-03 1.596363866E-04 6.303310445E-03-6.189630264E-03
  4.375008160E-03 1.149452518E-02-2.144584640E-02 4.044958756E-03-4.324332803E-02
  3.358369600E-02-8.322503540E-03 3.023165435E-02-1.086032345E-02-4.787507416E-03
 -4.577808596E-03 1.726924211E-02
 4.000909489E-03-4.349235269E-03-5.711528436E-03
-2.789886568E-03-1.298260181E-03-2.460789781E-04
 4.815503439E-03-1.783615714E-03-1.047119816E-03
 2.360190847E-05-5.006278040E-04 5.038551875E-04
-3.004468796E-04 5.610955709E-03-4.947941266E-03
 6.692571257E-04 2.066532204E-04 7.181463844E-04
-2.901971271E-03 1.479085909E-03 5.694530202E-03
-3.995742671E-04-1.978261854E-03 7.385993548E-04
  2.032843338E+00 4.879650014E-01 1.641610307E+00

..... END OF SINGLE POINT GRADIENT .....
 CPU     0: STEP CPU TIME=     0.00 TOTAL CPU TIME=       40.2 (    0.7 MIN)
 TOTAL WALL CLOCK TIME=       40.2 SECONDS, CPU UTILIZATION IS  99.95%
               903841  WORDS OF DYNAMIC MEMORY USED
 EXECUTION OF GAMESS TERMINATED NORMALLY Fri Jun  2 04:30:53 2017
 DDI: 96759640 bytes (92.3 MB / 11 MWords) used by master data server.

 ----------------------------------------
 CPU timing information for all processes
 ========================================
 0: 39.841 + 0.342 = 40.184
 ----------------------------------------
 ddikick.x: exited gracefully.
unset echo
----- accounting info -----
Files used on the master node compute-0-1.local were:
-rw-rw-r-- 1 sarom sarom      3179 Jun  2 04:30 /scratch/efp1-glycyl-ump2.F05
-rw-rw-r-- 1 sarom sarom 105309360 Jun  2 04:30 /scratch/efp1-glycyl-ump2.F08
-rw-rw-r-- 1 sarom sarom   3664640 Jun  2 04:30 /scratch/efp1-glycyl-ump2.F10
-rw-rw-r-- 1 sarom sarom   2189280 Jun  2 04:30 /scratch/efp1-glycyl-ump2.F25
rm: cannot remove `/scratch/sarom': Is a directory
rm: cannot remove `/scratch/tmp': Is a directory
ls: No match.
ls: No match.
ls: No match.
Fri Jun  2 04:30:56 CDT 2017
0.252u 0.208s 0:43.74 1.0%	0+0k 8+352io 0pf+0w
/opt/gridengine/default/spool/compute-0-1/active_jobs/23955.1/pe_hostfile compute-0-1.local
