-catch_rsh /opt/gridengine/default/spool/compute-0-1/active_jobs/23954.1/pe_hostfile
compute-0-1
The primary node assigned by SGE to this run is compute-0-1
Warning: no access to tty (Bad file descriptor).
Thus no job control in this shell.
source /home/sarom/gamess.github.2017-05-31.14.06/install.info
setenv GMS_PATH /home/sarom/gamess.github.2017-05-31.14.06
setenv GMS_BUILD_DIR /home/sarom/gamess.github.2017-05-31.14.06
setenv GMS_TARGET linux64
setenv GMS_FORTRAN gfortran
setenv GMS_GFORTRAN_VERNO 4.4
setenv GMS_MATHLIB mkl-so
setenv GMS_MATHLIB_PATH /share/apps/intel/compilers_and_libraries_2017.1.132/linux/mkl/lib/intel64
setenv GMS_MKL_VERNO 12
setenv GMS_DDI_COMM sockets
setenv GMS_LIBCCHEM false
setenv GMS_EIGEN_PATH
setenv GMS_PHI false
setenv GMS_SHMTYPE sysv
setenv GMS_OPENMP false
unset echo
efp1-glycine
tests/solvent/efp1
----- GAMESS execution script 'rungms' -----
This job is running on host compute-0-1.local
under operating system Linux at Fri Jun 2 04:28:57 CDT 2017
Available scratch disk space (Kbyte units) at beginning of the job is
Filesystem           1K-blocks      Used Available Use% Mounted on
/dev/sda1             16126920   3867344  11440376  26% /
GAMESS temporary binary files will be written to /scratch
GAMESS supplementary output files will be written to /home/sarom/restart
Copying input file efp1-glycine.inp to your run's scratch directory...
cp tests/solvent/efp1/efp1-glycine.inp /scratch/efp1-glycine.F05
unset echo
The generated host list is
compute-0-1.local
/home/sarom/gamess.github.2017-05-31.14.06/ddikick.x /home/sarom/gamess.github.2017-05-31.14.06/gamess.00.x efp1-glycine -ddi 1 1 compute-0-1.local -scr /scratch

 Distributed Data Interface kickoff program.
 Initiating 1 compute processes on 1 nodes to run the following command:
 /home/sarom/gamess.github.2017-05-31.14.06/gamess.00.x efp1-glycine 

          ******************************************************
          *         GAMESS VERSION = 20 APR 2017 (R1)          *
          *             FROM IOWA STATE UNIVERSITY             *
          * M.W.SCHMIDT, K.K.BALDRIDGE, J.A.BOATZ, S.T.ELBERT, *
          *   M.S.GORDON, J.H.JENSEN, S.KOSEKI, N.MATSUNAGA,   *
          *          K.A.NGUYEN, S.J.SU, T.L.WINDUS,           *
          *       TOGETHER WITH M.DUPUIS, J.A.MONTGOMERY       *
          *         J.COMPUT.CHEM.  14, 1347-1363(1993)        *
          **************** 64 BIT LINUX VERSION ****************

  SINCE 1993, STUDENTS AND POSTDOCS WORKING AT IOWA STATE UNIVERSITY
  AND ALSO IN THEIR VARIOUS JOBS AFTER LEAVING ISU HAVE MADE IMPORTANT
  CONTRIBUTIONS TO THE CODE:
     IVANA ADAMOVIC, CHRISTINE AIKENS, YURI ALEXEEV, POOJA ARORA,
     ANDREY ASADCHEV, ROB BELL, PRADIPTA BANDYOPADHYAY, JONATHAN BENTZ,
     BRETT BODE, KURT BRORSEN, CALEB CARLIN, GALINA CHABAN, WEI CHEN,
     CHEOL HO CHOI, PAUL DAY, ALBERT DEFUSCO, NUWAN DESILVA, TIM DUDLEY,
     DMITRI FEDOROV, GRAHAM FLETCHER, MARK FREITAG, KURT GLAESEMANN,
     DAN KEMP, GRANT MERRILL, NORIYUKI MINEZAWA, JONATHAN MULLIN,
     TAKESHI NAGATA, SEAN NEDD, HEATHER NETZLOFF, BOSILJKA NJEGIC, RYAN OLSON,
     MIKE PAK, SPENCER PRUITT, LUKE ROSKOP, JIM SHOEMAKER, LYUDMILA SLIPCHENKO,
     TONY SMITH, SAROM SOK LEANG, JIE SONG, TETSUYA TAKETSUGU, SIMON WEBB,
     PENG XU, SOOHAENG YOO, FEDERICO ZAHARIEV

  ADDITIONAL CODE HAS BEEN PROVIDED BY COLLABORATORS IN OTHER GROUPS:
     IOWA STATE UNIVERSITY:
          JOE IVANIC, AARON WEST, LAIMUTIS BYTAUTAS, KLAUS RUEDENBERG
     UNIVERSITY OF TOKYO: KIMIHIKO HIRAO, TAKAHITO NAKAJIMA,
          TAKAO TSUNEDA, MUNEAKI KAMIYA, SUSUMU YANAGISAWA,
          KIYOSHI YAGI, MAHITO CHIBA, SEIKEN TOKURA, NAOAKI KAWAKAMI
     UNIVERSITY OF AARHUS: FRANK JENSEN
     UNIVERSITY OF IOWA: VISVALDAS KAIRYS, HUI LI
     NATIONAL INST. OF STANDARDS AND TECHNOLOGY: WALT STEVENS, DAVID GARMER
     UNIVERSITY OF PISA: BENEDETTA MENNUCCI, JACOPO TOMASI
     UNIVERSITY OF MEMPHIS: HENRY KURTZ, PRAKASHAN KORAMBATH
     UNIVERSITY OF ALBERTA: TOBY ZENG, MARIUSZ KLOBUKOWSKI
     UNIVERSITY OF NEW ENGLAND: MARK SPACKMAN
     MIE UNIVERSITY: HIROAKI UMEDA
     NAT. INST. OF ADVANCED INDUSTRIAL SCIENCE AND TECHNOLOGY: KAZUO KITAURA
     MICHIGAN STATE UNIVERSITY:
          KAROL KOWALSKI, MARTA WLOCH, JEFFREY GOUR, JESSE LUTZ,
          WEI LI, PIOTR PIECUCH
     UNIVERSITY OF SILESIA: MONIKA MUSIAL, STANISLAW KUCHARSKI
     FACULTES UNIVERSITAIRES NOTRE-DAME DE LA PAIX:
          OLIVIER QUINET, BENOIT CHAMPAGNE
     UNIVERSITY OF CALIFORNIA - SANTA BARBARA: BERNARD KIRTMAN
     INSTITUTE FOR MOLECULAR SCIENCE:
          KAZUYA ISHIMURA, MICHIO KATOUDA, AND SHIGERU NAGASE
     UNIVERSITY OF NOTRE DAME: ANNA POMOGAEVA, DAN CHIPMAN
     KYUSHU UNIVERSITY:
          HARUYUKI NAKANO,
          FENG LONG GU, JACEK KORCHOWIEC, MARCIN MAKOWSKI, AND YURIKO AOKI,
          HIROTOSHI MORI AND EISAKU MIYOSHI
     PENNSYLVANIA STATE UNIVERSITY:
          TZVETELIN IORDANOV, CHET SWALINA, JONATHAN SKONE,
          SHARON HAMMES-SCHIFFER
     WASEDA UNIVERSITY:
          MASATO KOBAYASHI, TOMOKO AKAMA, TSUGUKI TOUMA,
          TAKESHI YOSHIKAWA, YASUHIRO IKABATA, JUNJI SEINO,
          YUYA NAKAJIMA, HIROMI NAKAI
     NANJING UNIVERSITY: SHUHUA LI
     UNIVERSITY OF NEBRASKA:
          PEIFENG SU, DEJUN SI, NANDUN THELLAMUREGE, YALI WANG, HUI LI
     UNIVERSITY OF ZURICH: ROBERTO PEVERATI, KIM BALDRIDGE
     N. COPERNICUS UNIVERSITY AND JACKSON STATE UNIVERSITY:
          MARIA BARYSZ
     UNIVERSITY OF COPENHAGEN: Jimmy Kromann, CASPER STEINMANN
     TOKYO INSTITUTE OF TECHNOLOGY: HIROYA NAKATA
     NAGOYA UNIVERSITY: YOSHIO NISHIMOTO, STEPHAN IRLE
     MOSCOW STATE UNIVERSITY: VLADIMIR MIRONOV

 EXECUTION OF GAMESS BEGUN Fri Jun  2 04:28:57 2017

            ECHO OF THE FIRST FEW INPUT CARDS -
 INPUT CARD>!   This test came from Christine                                               
 INPUT CARD>!   glycine by 6-31++G(d,p), embedded in 30 EFP1 waters                         
 INPUT CARD>!                                                                               
 INPUT CARD>!       FINAL E= -283.2769765249, RMS grad=0.001398027                          
 INPUT CARD>!                                                                               
 INPUT CARD>!   This run takes 68 seconds on 2.66 GHz Cloverton (26 Oct 2015)               
 INPUT CARD>!   results haven't changed since at least 2008                                 
 INPUT CARD>!                                                                               
 INPUT CARD> $contrl scftyp=rhf runtyp=gradient $end                                        
 INPUT CARD> $system mwords=7 $end                                                          
 INPUT CARD> $basis  gbasis=n31 ngauss=6 npfunc=1 ndfunc=1 diffsp=.t. diffs=.t. $end        
 INPUT CARD> $scf    dirscf=.true. $end                                                     
 INPUT CARD> $data                                                                          
 INPUT CARD>ab initio glycine with efp water                                                
 INPUT CARD>C1                                                                              
 INPUT CARD>C           6.0    .8888104467   1.1455874144    .8626499938                    
 INPUT CARD>O           8.0   1.6934066956   1.7133491773   1.7211089321                    
 INPUT CARD>H           1.0   1.7826390480   1.1958279059   2.5322257651                    
 INPUT CARD>O           8.0    .3233527289    .1083126803   1.0853563601                    
 INPUT CARD>C           6.0    .6979042395   1.9705524167   -.3898102601                    
 INPUT CARD>H           1.0    .3463726263   2.9426276877   -.0581209531                    
 INPUT CARD>H           1.0   1.6670641285   2.1235616024   -.8458483603                    
 INPUT CARD>N           7.0   -.2246430136   1.4135517188  -1.3486763259                    
 INPUT CARD>H           1.0    .1814265041    .6334248202  -1.8239154552                    
 INPUT CARD>H           1.0  -1.0679634881   1.1068590034   -.8971057238                    
 INPUT CARD> $end                                                                           
 INPUT CARD> $efrag                                                                         
 INPUT CARD>coord=cart                                                                      
 INPUT CARD>FRAGNAME=H2ORHF                                                                 
 INPUT CARD>ZO1              -1.6213012626  -5.3727239056   2.1160907497                    
 INPUT CARD>ZH2               -.7877111288  -5.5281120737   1.7015301870                    
 INPUT CARD>ZH3              -2.1716843076  -4.9575595452   1.4714237724                    
 INPUT CARD>FRAGNAME=H2ORHF                                                                 
 INPUT CARD>ZO1               1.8096875691  -3.7880132843   5.8361512680                    
 INPUT CARD>ZH2               1.7727963795  -3.7496134430   6.7785115741                    
 INPUT CARD>ZH3               2.4626152025  -3.1628866429   5.5645253456                    
 INPUT CARD>FRAGNAME=H2ORHF                                                                 
 INPUT CARD>ZO1               5.2683954185   2.3592126763  -2.8380236508                    
 INPUT CARD>ZH2               5.6955958255   2.7709039328  -3.5721139556                    
 INPUT CARD>ZH3               4.3415455535   2.3839997838  -3.0146967421                    
 INPUT CARD>FRAGNAME=H2ORHF                                                                 
 INPUT CARD>ZO1               5.7481592504   -.2256131892  -1.6371651431                    
 INPUT CARD>ZH2               5.7436265569    .5575987263  -2.1638880343                    
 INPUT CARD>ZH3               6.4816792264   -.1519110134  -1.0477629984                    
 INPUT CARD>FRAGNAME=H2ORHF                                                                 
 INPUT CARD>ZO1               1.3845917709    .1042933528  -4.9773937423                    
 INPUT CARD>ZH2               1.9381190281   -.0923890767  -5.7161779135                    
 INPUT CARD>ZH3                .4947824633    .0813761328  -5.2913884098                    
 INPUT CARD>FRAGNAME=H2ORHF                                                                 
 INPUT CARD>ZO1               2.5114476378   2.3718861425  -3.4389524078                    
    7000000 WORDS OF MEMORY AVAILABLE

     BASIS OPTIONS
     -------------
     GBASIS=N31          IGAUSS=       6      POLAR=POPN31  
     NDFUNC=       1     NFFUNC=       0     DIFFSP=       T
     NPFUNC=       1      DIFFS=       T     BASNAM=        


     RUN TITLE
     ---------
 ab initio glycine with efp water                                                

 THE POINT GROUP OF THE MOLECULE IS C1      
 THE ORDER OF THE PRINCIPAL AXIS IS     0

 ATOM      ATOMIC                      COORDINATES (BOHR)
           CHARGE         X                   Y                   Z
 C           6.0     1.6796081993        2.1648463082        1.6301721116
 O           8.0     3.2000746405        3.2377604664        3.2524242767
 H           1.0     3.3686993357        2.2597870706        4.7852128351
 O           8.0     0.6110480550        0.2046812868        2.0510261196
 C           6.0     1.3188477783        3.7238041120       -0.7366345788
 H           1.0     0.6545493534        5.5607600136       -0.1098326755
 H           1.0     3.1502944068        4.0129495466       -1.5984216281
 N           7.0    -0.4245137408        2.6712254180       -2.5486287021
 H           1.0     0.3428463797        1.1969993440       -3.4467004351
 H           1.0    -2.0181583574        2.0916602235       -1.6952840000

          INTERNUCLEAR DISTANCES (ANGS.)
          ------------------------------

                1 C          2 O          3 H          4 O          5 C     

   1 C       0.0000000    1.3063997 *  1.8944490 *  1.2021978 *  1.5118430 *
   2 O       1.3063997 *  0.0000000    0.9662822 *  2.2039445 *  2.3480116 *
   3 H       1.8944490 *  0.9662822 *  0.0000000    2.3250026 *  3.2117195  
   4 O       1.2021978 *  2.2039445 *  2.3250026 *  0.0000000    2.4050660 *
   5 C       1.5118430 *  2.3480116 *  3.2117195    2.4050660 *  0.0000000  
   6 H       2.0907921 *  2.5478001 *  3.4386141    3.0563723    1.0855978 *
   7 H       2.1168559 *  2.5996611 *  3.5050581    3.0977960    1.0819674 *
   8 N       2.4902907 *  3.6321309    4.3746984    2.8157527 *  1.4424865 *
   9 H       2.8249489 *  4.0024391    4.6750556    2.9596872 *  2.0276383 *
  10 H       2.6319583 *  3.8533159    4.4602875    2.6197350 *  2.0301733 *

                6 H          7 H          8 N          9 H         10 H     

   1 C       2.0907921 *  2.1168559 *  2.4902907 *  2.8249489 *  2.6319583 *
   2 O       2.5478001 *  2.5996611 *  3.6321309    4.0024391    3.8533159  
   3 H       3.4386141    3.5050581    4.3746984    4.6750556    4.4602875  
   4 O       3.0563723    3.0977960    2.8157527 *  2.9596872 *  2.6197350 *
   5 C       1.0855978 *  1.0819674 *  1.4424865 *  2.0276383 *  2.0301733 *
   6 H       0.0000000    1.7423001 *  2.0807848 *  2.9116413 *  2.4646072 *
   7 H       1.7423001 *  0.0000000    2.0821878 *  2.3203970 *  2.9183364 *
   8 N       2.0807848 *  2.0821878 *  0.0000000    0.9996713 *  1.0045725 *
   9 H       2.9116413 *  2.3203970 *  0.9996713 *  0.0000000    1.6260663 *
  10 H       2.4646072 *  2.9183364 *  1.0045725 *  1.6260663 *  0.0000000  

  * ... LESS THAN  3.000


     ATOMIC BASIS SET
     ----------------
 THE CONTRACTED PRIMITIVE FUNCTIONS HAVE BEEN UNNORMALIZED
 THE CONTRACTED BASIS FUNCTIONS ARE NOW NORMALIZED TO UNITY

  SHELL TYPE  PRIMITIVE        EXPONENT          CONTRACTION COEFFICIENT(S)

 C         

      1   S       1          3047.5248800    0.001834737132
      1   S       2           457.3695180    0.014037322813
      1   S       3           103.9486850    0.068842622264
      1   S       4            29.2101553    0.232184443216
      1   S       5             9.2866630    0.467941348435
      1   S       6             3.1639270    0.362311985337

      2   L       7             7.8682723   -0.119332419775    0.068999066591
      2   L       8             1.8812885   -0.160854151696    0.316423960957
      2   L       9             0.5442493    1.143456437840    0.744308290898

      3   L      10             0.1687145    1.000000000000    1.000000000000

      4   L      11             0.0438000    1.000000000000    1.000000000000

      5   D      12             0.8000000    1.000000000000

 O         

      6   S      13          5484.6716600    0.001831074430
      6   S      14           825.2349460    0.013950172200
      6   S      15           188.0469580    0.068445078098
      6   S      16            52.9645000    0.232714335992
      6   S      17            16.8975704    0.470192897984
      6   S      18             5.7996353    0.358520852987

      7   L      19            15.5396162   -0.110777549525    0.070874268231
      7   L      20             3.5999336   -0.148026262701    0.339752839147
      7   L      21             1.0137618    1.130767015354    0.727158577316

      8   L      22             0.2700058    1.000000000000    1.000000000000

      9   L      23             0.0845000    1.000000000000    1.000000000000

     10   D      24             0.8000000    1.000000000000

 H         

     11   S      25            18.7311370    0.033494604338
     11   S      26             2.8253944    0.234726953484
     11   S      27             0.6401217    0.813757326146

     12   S      28             0.1612778    1.000000000000

     13   S      29             0.0360000    1.000000000000

     14   P      30             1.1000000    1.000000000000

 O         

     15   S      31          5484.6716600    0.001831074430
     15   S      32           825.2349460    0.013950172200
     15   S      33           188.0469580    0.068445078098
     15   S      34            52.9645000    0.232714335992
     15   S      35            16.8975704    0.470192897984
     15   S      36             5.7996353    0.358520852987

     16   L      37            15.5396162   -0.110777549525    0.070874268231
     16   L      38             3.5999336   -0.148026262701    0.339752839147
     16   L      39             1.0137618    1.130767015354    0.727158577316

     17   L      40             0.2700058    1.000000000000    1.000000000000

     18   L      41             0.0845000    1.000000000000    1.000000000000

     19   D      42             0.8000000    1.000000000000

 C         

     20   S      43          3047.5248800    0.001834737132
     20   S      44           457.3695180    0.014037322813
     20   S      45           103.9486850    0.068842622264
     20   S      46            29.2101553    0.232184443216
     20   S      47             9.2866630    0.467941348435
     20   S      48             3.1639270    0.362311985337

     21   L      49             7.8682723   -0.119332419775    0.068999066591
     21   L      50             1.8812885   -0.160854151696    0.316423960957
     21   L      51             0.5442493    1.143456437840    0.744308290898

     22   L      52             0.1687145    1.000000000000    1.000000000000

     23   L      53             0.0438000    1.000000000000    1.000000000000

     24   D      54             0.8000000    1.000000000000

 H         

     25   S      55            18.7311370    0.033494604338
     25   S      56             2.8253944    0.234726953484
     25   S      57             0.6401217    0.813757326146

     26   S      58             0.1612778    1.000000000000

     27   S      59             0.0360000    1.000000000000

     28   P      60             1.1000000    1.000000000000

 H         

     29   S      61            18.7311370    0.033494604338
     29   S      62             2.8253944    0.234726953484
     29   S      63             0.6401217    0.813757326146

     30   S      64             0.1612778    1.000000000000

     31   S      65             0.0360000    1.000000000000

     32   P      66             1.1000000    1.000000000000

 N         

     33   S      67          4173.5114600    0.001834772160
     33   S      68           627.4579110    0.013994627002
     33   S      69           142.9020930    0.068586551812
     33   S      70            40.2343293    0.232240873040
     33   S      71            12.8202129    0.469069948082
     33   S      72             4.3904370    0.360455199063

     34   L      73            11.6263619   -0.114961181702    0.067579743878
     34   L      74             2.7162798   -0.169117478561    0.323907295893
     34   L      75             0.7722184    1.145851947027    0.740895139755

     35   L      76             0.2120315    1.000000000000    1.000000000000

     36   L      77             0.0639000    1.000000000000    1.000000000000

     37   D      78             0.8000000    1.000000000000

 H         

     38   S      79            18.7311370    0.033494604338
     38   S      80             2.8253944    0.234726953484
     38   S      81             0.6401217    0.813757326146

     39   S      82             0.1612778    1.000000000000

     40   S      83             0.0360000    1.000000000000

     41   P      84             1.1000000    1.000000000000

 H         

     42   S      85            18.7311370    0.033494604338
     42   S      86             2.8253944    0.234726953484
     42   S      87             0.6401217    0.813757326146

     43   S      88             0.1612778    1.000000000000

     44   S      89             0.0360000    1.000000000000

     45   P      90             1.1000000    1.000000000000

 TOTAL NUMBER OF BASIS SET SHELLS             =   45
 NUMBER OF CARTESIAN GAUSSIAN BASIS FUNCTIONS =  125
 NUMBER OF ELECTRONS                          =   40
 CHARGE OF MOLECULE                           =    0
 SPIN MULTIPLICITY                            =    1
 NUMBER OF OCCUPIED ORBITALS (ALPHA)          =   20
 NUMBER OF OCCUPIED ORBITALS (BETA )          =   20
 TOTAL NUMBER OF ATOMS                        =   10
 THE NUCLEAR REPULSION ENERGY IS      181.1531785189

     $CONTRL OPTIONS
     ---------------
 SCFTYP=RHF          RUNTYP=GRADIENT     EXETYP=RUN     
 MPLEVL=       0     CITYP =NONE         CCTYP =NONE         VBTYP =NONE    
 DFTTYP=NONE         TDDFT =NONE    
 MULT  =       1     ICHARG=       0     NZVAR =       0     COORD =UNIQUE  
 PP    =NONE         RELWFN=NONE         LOCAL =NONE         NUMGRD=       F
 ISPHER=      -1     NOSYM =       0     MAXIT =      30     UNITS =ANGS    
 PLTORB=       F     MOLPLT=       F     AIMPAC=       F     FRIEND=        
 NPRINT=       7     IREST =       0     GEOM  =INPUT   
 NORMF =       0     NORMP =       0     ITOL  =      20     ICUT  =       9
 INTTYP=BEST         GRDTYP=BEST         QMTTOL= 1.0E-06

     $SYSTEM OPTIONS
     ---------------
  REPLICATED MEMORY=     7000000 WORDS (ON EVERY NODE).
 DISTRIBUTED MEMDDI=           0 MILLION WORDS IN AGGREGATE,
 MEMDDI DISTRIBUTED OVER   1 PROCESSORS IS           0 WORDS/PROCESSOR.
 TOTAL MEMORY REQUESTED ON EACH PROCESSOR=     7000000 WORDS.
 TIMLIM=      525600.00 MINUTES, OR     365.0 DAYS.
 PARALL= F  BALTYP=  DLB     KDIAG=    0  COREFL= F
 MXSEQ2=     300 MXSEQ3=     150  mem10=         0

 READING $EFRAG GROUP
 COORD=CART      POSITION=OPTIMIZE  POLMETHD=FRGSCF   NBUFFMO=0
 READING COORDINATES OF FRAGMENT   1 NAMED   H2ORHF
 READING COORDINATES OF FRAGMENT   2 NAMED   H2ORHF
 READING COORDINATES OF FRAGMENT   3 NAMED   H2ORHF
 READING COORDINATES OF FRAGMENT   4 NAMED   H2ORHF
 READING COORDINATES OF FRAGMENT   5 NAMED   H2ORHF
 READING COORDINATES OF FRAGMENT   6 NAMED   H2ORHF
 READING COORDINATES OF FRAGMENT   7 NAMED   H2ORHF
 READING COORDINATES OF FRAGMENT   8 NAMED   H2ORHF
 READING COORDINATES OF FRAGMENT   9 NAMED   H2ORHF
 READING COORDINATES OF FRAGMENT  10 NAMED   H2ORHF
 READING COORDINATES OF FRAGMENT  11 NAMED   H2ORHF
 READING COORDINATES OF FRAGMENT  12 NAMED   H2ORHF
 READING COORDINATES OF FRAGMENT  13 NAMED   H2ORHF
 READING COORDINATES OF FRAGMENT  14 NAMED   H2ORHF
 READING COORDINATES OF FRAGMENT  15 NAMED   H2ORHF
 READING COORDINATES OF FRAGMENT  16 NAMED   H2ORHF
 READING COORDINATES OF FRAGMENT  17 NAMED   H2ORHF
 READING COORDINATES OF FRAGMENT  18 NAMED   H2ORHF
 READING COORDINATES OF FRAGMENT  19 NAMED   H2ORHF
 READING COORDINATES OF FRAGMENT  20 NAMED   H2ORHF
 READING COORDINATES OF FRAGMENT  21 NAMED   H2ORHF
 READING COORDINATES OF FRAGMENT  22 NAMED   H2ORHF
 READING COORDINATES OF FRAGMENT  23 NAMED   H2ORHF
 READING COORDINATES OF FRAGMENT  24 NAMED   H2ORHF
 READING COORDINATES OF FRAGMENT  25 NAMED   H2ORHF
 READING COORDINATES OF FRAGMENT  26 NAMED   H2ORHF
 READING COORDINATES OF FRAGMENT  27 NAMED   H2ORHF
 READING COORDINATES OF FRAGMENT  28 NAMED   H2ORHF
 READING COORDINATES OF FRAGMENT  29 NAMED   H2ORHF
 READING COORDINATES OF FRAGMENT  30 NAMED   H2ORHF
 FINISHED READING $EFRAG GROUP,  30 FRAGMENTS WILL BE USED.



     SUMMARY OF THE EFFECTIVE FRAGMENT POTENTIAL MODEL CHOSEN
     --------------------------------------------------------
 TOTAL NUMBER OF MULTIPOLE POINTS   =       240  (EFP1/EFP2 ELECTROSTATICS)
 TOTAL NUMBER OF POLARIZABLE POINTS =       150  (EFP1/EFP2 INDUCTION)
 TOTAL NUMBER OF L-J POINTS         =         0  (REPULSION AND DISPERSION)
 TOTAL NUMBER OF REPULSIVE POINTS   =        90  (EFP1 REPULSION/ETC.)

 THIS IS A -EFP1- TYPE RUN, WITH PAULI REPULSION, CHARGE TRANSFER, AND
 HIGHER ORDER EFFECTS COLLECTED IN A FITTED REPULSIVE POTENTIAL.

 OPTIONS FOR EFP SCREENING:
     ELECTROSTATIC AB INITIO-EFP GAUSSIAN SCREENING IS ON
     ELECTROSTATIC EFP-EFP SCREENING CHOICE IS GAUSSIAN, FOR CHARGE/CHARGE
     POLARIZATION EFP-EFP SCREENING IS OFF

     $EWALD OPTIONS
     -----------

     IFEWLD   =        F         TINFOIL        =        T
     BETA    =    0.200         ELECTRIC CONST =     1.00
     EPSILON =     1.00         CUT_OFF        = 0.10E+04
     CUTLIST =  1000.00         LEVEL          =    1
     KMAX    =       10         EWLDPL         =        F

            MULTIPOLE COORDINATES, ELECTRONIC AND NUCLEAR CHARGES

                  X              Y              Z           ELEC.   NUC.
 ZO1       -3.0638151299 -10.1529759893   3.9988316821    8.00000    0.0
 ZH2       -1.4885581909 -10.4466170487   3.2154258133    1.00000    0.0
 ZH3       -4.1038882733  -9.3684291082   2.7805877416    1.00000    0.0
 O1        -3.0638151299 -10.1529759893   3.9988316821   -8.21083    0.0
 H2        -1.4885581909 -10.4466170487   3.2154258133   -0.55665    0.0
 H3        -4.1038882733  -9.3684291082   2.7805877416   -0.55665    0.0
 B12       -2.2761867861 -10.2997966343   3.6071292177   -0.33793    0.0
 B13       -3.5838518272  -9.7607026640   3.3897101819   -0.33793    0.0
 ZO1        3.4198136290  -7.1583071452  11.0287267194    8.00000    0.0
 ZH2        3.3500993893  -7.0857419672  12.8095294795    1.00000    0.0
 ZH3        4.6536679460  -5.9769890853  10.5154281548    1.00000    0.0
 O1         3.4198136290  -7.1583071452  11.0287267194   -8.21083    0.0
 H2         3.3500993893  -7.0857419672  12.8095294795   -0.55665    0.0
 H3         4.6536679460  -5.9769890853  10.5154281548   -0.55665    0.0
 B12        3.3849562358  -7.1220248506  11.9191278018   -0.33793    0.0
 B13        4.0367405141  -6.5676484096  10.7720771395   -0.33793    0.0
 ZO1        9.9558237359   4.4582655050  -5.3630870467    8.00000    0.0
 ZH2       10.7631154470   5.2362491713  -6.7503165730    1.00000    0.0
 ZH3        8.2043314594   4.5051063462  -5.6969507786    1.00000    0.0
 O1         9.9558237359   4.4582655050  -5.3630870467   -8.21083    0.0
 H2        10.7631154470   5.2362491713  -6.7503165730   -0.55665    0.0
 H3         8.2043314594   4.5051063462  -5.6969507786   -0.55665    0.0
 B12       10.3594698132   4.8472571445  -6.0567014057   -0.33793    0.0
 B13        9.0800778194   4.4816857319  -5.5300185085   -0.33793    0.0
 ZO1       10.8624459170  -0.4263471068  -3.0937935171    8.00000    0.0
 ZH2       10.8538803683   1.0537088039  -4.0891554530    1.00000    0.0
 ZH3       12.2485976782  -0.2870701899  -1.9799849671    1.00000    0.0
 O1        10.8624459170  -0.4263471068  -3.0937935171   -8.21083    0.0
 H2        10.8538803683   1.0537088039  -4.0891554530   -0.55665    0.0
 H3        12.2485976782  -0.2870701899  -1.9799849671   -0.55665    0.0
 B12       10.8581628192   0.3136804683  -3.5914745129   -0.33793    0.0
 B13       11.5555214741  -0.3567090286  -2.5368892699   -0.33793    0.0
 ZO1        2.6164990519   0.1970858591  -9.4059103059    8.00000    0.0
 ZH2        3.6625138946  -0.1745900392 -10.8020099535    1.00000    0.0
 ZH3        0.9350032792   0.1537785929  -9.9992741892    1.00000    0.0
 O1         2.6164990519   0.1970858591  -9.4059103059   -8.21083    0.0
 H2         3.6625138946  -0.1745900392 -10.8020099535   -0.55665    0.0
 H3         0.9350032792   0.1537785929  -9.9992741892   -0.55665    0.0
 B12        3.1395066225   0.0112480074 -10.1039596626   -0.33793    0.0
 B13        1.7757513148   0.1754323235  -9.7025917804   -0.33793    0.0
 ZO1        4.7459478680   4.4822148834  -6.4986777356    8.00000    0.0
 ZH2        3.8144284727   5.9759743403  -6.7856246852    1.00000    0.0
 ZH3        3.9424716578   3.1902100597  -7.4295556899    1.00000    0.0
 O1         4.7459478680   4.4822148834  -6.4986777356   -8.21083    0.0
 H2         3.8144284727   5.9759743403  -6.7856246852   -0.55665    0.0
 H3         3.9424716578   3.1902100597  -7.4295556899   -0.55665    0.0
 B12        4.2801885777   5.2290945645  -6.6421509244   -0.33793    0.0
 B13        4.3442101703   3.8362124242  -6.9641164268   -0.33793    0.0
 ZO1        3.1598660445  -2.8568110632  -4.9239613136    8.00000    0.0
 ZH2        2.9688079609  -2.0232993119  -6.4892533694    1.00000    0.0
 ZH3        4.5801219187  -3.9242468018  -5.0815634911    1.00000    0.0
 O1         3.1598660445  -2.8568110632  -4.9239613136   -8.21083    0.0
 H2         2.9688079609  -2.0232993119  -6.4892533694   -0.55665    0.0
 H3         4.5801219187  -3.9242468018  -5.0815634911   -0.55665    0.0
 B12        3.0643367141  -2.4400551326  -5.7066069369   -0.33793    0.0
 B13        3.8699936930  -3.3905288775  -5.0027619978   -0.33793    0.0
 ZO1       -7.8660685500   6.6430640105   0.2135678445    8.00000    0.0
 ZH2       -9.2259885448   6.1977808663  -0.8511972843    1.00000    0.0
 ZH3       -7.0023671781   7.9807320888  -0.5902034558    1.00000    0.0
 O1        -7.8660685500   6.6430640105   0.2135678445   -8.21083    0.0
 H2        -9.2259885448   6.1977808663  -0.8511972843   -0.55665    0.0
 H3        -7.0023671781   7.9807320888  -0.5902034558   -0.55665    0.0
 B12       -8.5460284309   6.4204222288  -0.3188142811   -0.33793    0.0
 B13       -7.4342177475   7.3118978401  -0.1883173669   -0.33793    0.0
 ZO1       12.0033473397  -0.0357165105   5.1009409083    8.00000    0.0
 ZH2       11.2127918294  -1.6282348466   4.9584923728    1.00000    0.0
 ZH3       10.7254825537   1.1913209954   4.8939993746    1.00000    0.0
 O1        12.0033473397  -0.0357165105   5.1009409083   -8.21083    0.0
 H2        11.2127918294  -1.6282348466   4.9584923728   -0.55665    0.0
 H3        10.7254825537   1.1913209954   4.8939993746   -0.55665    0.0
 B12       11.6080700703  -0.8319755927   5.0297167226   -0.33793    0.0
 B13       11.3644154324   0.5778023283   4.9974702235   -0.33793    0.0
 ZO1       -5.8743761777   2.4209653787  -8.5304825829    8.00000    0.0
 ZH2       -6.7408425533   1.6211774479  -7.1922152193    1.00000    0.0
 ZH3       -5.0503727261   3.8403028174  -7.8319957917    1.00000    0.0
 O1        -5.8743761777   2.4209653787  -8.5304825829   -8.21083    0.0
 H2        -6.7408425533   1.6211774479  -7.1922152193   -0.55665    0.0
 H3        -5.0503727261   3.8403028174  -7.8319957917   -0.55665    0.0
 B12       -6.3076093555   2.0210712678  -7.8613493794   -0.33793    0.0
 B13       -5.4623744419   3.1306339526  -8.1812396655   -0.33793    0.0
 ZO1        6.8279728076  -3.4273643812   9.0445634318    8.00000    0.0
 ZH2        7.7528313713  -4.1208887996   7.6862391815    1.00000    0.0
 ZH3        5.8179388661  -2.1239872635   8.3645459492    1.00000    0.0
 O1         6.8279728076  -3.4273643812   9.0445634318   -8.21083    0.0
 H2         7.7528313713  -4.1208887996   7.6862391815   -0.55665    0.0
 H3         5.8179388661  -2.1239872635   8.3645459492   -0.55665    0.0
 B12        7.2904021095  -3.7741267336   8.3654017853   -0.33793    0.0
 B13        6.3229558568  -2.7756759655   8.7045551691   -0.33793    0.0
 ZO1       -1.0854973641  -1.2645544153   7.0852482713    8.00000    0.0
 ZH2       -0.4244439133  -1.0233282698   5.4462844119    1.00000    0.0
 ZH3       -1.0212742594  -3.0169998799   7.4111233040    1.00000    0.0
 O1        -1.0854973641  -1.2645544153   7.0852482713   -8.21083    0.0
 H2        -0.4244439133  -1.0233282698   5.4462844119   -0.55665    0.0
 H3        -1.0212742594  -3.0169998799   7.4111233040   -0.55665    0.0
 B12       -0.7549708090  -1.1439409877   6.2657666499   -0.33793    0.0
 B13       -1.0533859821  -2.1407767928   7.2481860960   -0.33793    0.0
 ZO1        7.9706655746  -5.1843177416  -4.4076582893    8.00000    0.0
 ZH2        9.1542200722  -3.8557820195  -4.2828550958    1.00000    0.0
 ZH3        7.8395232998  -5.9083797569  -2.7828751799    1.00000    0.0
 O1         7.9706655746  -5.1843177416  -4.4076582893   -8.21083    0.0
 H2         9.1542200722  -3.8557820195  -4.2828550958   -0.55665    0.0
 H3         7.8395232998  -5.9083797569  -2.7828751799   -0.55665    0.0
 B12        8.5624425763  -4.5200500225  -4.3452571034   -0.33793    0.0
 B13        7.9050941901  -5.5463488912  -3.5952671454   -0.33793    0.0
 ZO1       -8.1727563462   0.1479830205  -4.0380525111    8.00000    0.0
 ZH2       -8.6422553174  -1.5715567054  -3.9737244619    1.00000    0.0
 ZH3       -7.1492422976   0.4537192541  -2.6096517975    1.00000    0.0
 O1        -8.1727563462   0.1479830205  -4.0380525111   -8.21083    0.0
 H2        -8.6422553174  -1.5715567054  -3.9737244619   -0.55665    0.0
 H3        -7.1492422976   0.4537192541  -2.6096517975   -0.55665    0.0
 B12       -8.4075059619  -0.7117865105  -4.0058888370   -0.33793    0.0
 B13       -7.6609994520   0.3008514692  -3.3238525048   -0.33793    0.0
 ZO1        3.7748370563   0.9763450079   7.7475334351    8.00000    0.0
 ZH2        4.6189389508   2.1861210848   8.7501889524    1.00000    0.0
 ZH3        2.1833585121   0.7030821918   8.5051004138    1.00000    0.0
 O1         3.7748370563   0.9763450079   7.7475334351   -8.21083    0.0
 H2         4.6189389508   2.1861210848   8.7501889524   -0.55665    0.0
 H3         2.1833585121   0.7030821918   8.5051004138   -0.55665    0.0
 B12        4.1968881790   1.5812328265   8.2488607804   -0.33793    0.0
 B13        2.9790979597   0.8397133800   8.1263165112   -0.33793    0.0
 ZO1        9.9362156734  -5.0950542202   4.9148034454    8.00000    0.0
 ZH2        8.9510615515  -5.4961760321   3.4830363907    1.00000    0.0
 ZH3       11.0669541125  -6.4532429619   5.1559220370    1.00000    0.0
 O1         9.9362156734  -5.0950542202   4.9148034454   -8.21083    0.0
 H2         8.9510615515  -5.4961760321   3.4830363907   -0.55665    0.0
 H3        11.0669541125  -6.4532429619   5.1559220370   -0.55665    0.0
 B12        9.4436385783  -5.2956147130   4.1989201976   -0.33793    0.0
 B13       10.5015848587  -5.7741481780   5.0353630208   -0.33793    0.0
 ZO1        5.9136500244  -0.5555739630  -0.7705055572    8.00000    0.0
 ZH2        7.5806719513  -0.2673158903  -1.3355979653    1.00000    0.0
 ZH3        4.9564417026  -1.0067634647  -2.2063204871    1.00000    0.0
 O1         5.9136500244  -0.5555739630  -0.7705055572   -8.21083    0.0
 H2         7.5806719513  -0.2673158903  -1.3355979653   -0.55665    0.0
 H3         4.9564417026  -1.0067634647  -2.2063204871   -0.55665    0.0
 B12        6.7471608212  -0.4114448884  -1.0530512914   -0.33793    0.0
 B13        5.4350456969  -0.7811686756  -1.4884125523   -0.33793    0.0
 ZO1        8.8256886852   4.2093300674   3.9945375224    8.00000    0.0
 ZH2        9.8113967502   5.0572824216   2.7735786098    1.00000    0.0
 ZH3        7.2215742603   3.9412207567   3.2621997861    1.00000    0.0
 O1         8.8256886852   4.2093300674   3.9945375224   -8.21083    0.0
 H2         9.8113967502   5.0572824216   2.7735786098   -0.55665    0.0
 H3         7.2215742603   3.9412207567   3.2621997861   -0.55665    0.0
 B12        9.3185428630   4.6333061083   3.3840585248   -0.33793    0.0
 B13        8.0236316180   4.0752752759   3.6283691129   -0.33793    0.0
 ZO1       -0.3509322853  -6.6267942557   7.2431591383    8.00000    0.0
 ZH2       -1.5601802800  -7.8952800051   6.9114251460    1.00000    0.0
 ZH3        0.6192598727  -7.1931479844   8.6285669776    1.00000    0.0
 O1        -0.3509322853  -6.6267942557   7.2431591383   -8.21083    0.0
 H2        -1.5601802800  -7.8952800051   6.9114251460   -0.55665    0.0
 H3         0.6192598727  -7.1931479844   8.6285669776   -0.55665    0.0
 B12       -0.9555562265  -7.2610366995   7.0772918947   -0.33793    0.0
 B13        0.1341638498  -6.9099706892   7.9358628105   -0.33793    0.0
 ZO1        6.6724010935  -5.6001508348   1.0136771818    8.00000    0.0
 ZH2        5.2027686673  -6.5058441308   1.4623245221    1.00000    0.0
 ZH3        6.1679893583  -3.9132071667   0.7287664720    1.00000    0.0
 O1         6.6724010935  -5.6001508348   1.0136771818   -8.21083    0.0
 H2         5.2027686673  -6.5058441308   1.4623245221   -0.55665    0.0
 H3         6.1679893583  -3.9132071667   0.7287664720   -0.55665    0.0
 B12        5.9375853439  -6.0529976663   1.2380008135   -0.33793    0.0
 B13        6.4201956895  -4.7566791842   0.8712217885   -0.33793    0.0
 ZO1       -5.4417757435  -6.4051822862   0.3433475717    8.00000    0.0
 ZH2       -3.9456418641  -5.5945866550  -0.1913508371    1.00000    0.0
 ZH3       -6.0341539832  -5.5030939276   1.7634563228    1.00000    0.0
 O1        -5.4417757435  -6.4051822862   0.3433475717   -8.21083    0.0
 H2        -3.9456418641  -5.5945866550  -0.1913508371   -0.55665    0.0
 H3        -6.0341539832  -5.5030939276   1.7634563228   -0.55665    0.0
 B12       -4.6937090160  -5.9998848728   0.0759981594   -0.33793    0.0
 B13       -5.7379650755  -5.9541385091   1.0534017393   -0.33793    0.0
 ZO1       -5.9710592136   0.2184076556   5.2863682351    8.00000    0.0
 ZH2       -4.4871407777   0.0010895501   6.2518438522    1.00000    0.0
 ZH3       -6.8055049542  -1.3578886215   5.2670135637    1.00000    0.0
 O1        -5.9710592136   0.2184076556   5.2863682351   -8.21083    0.0
 H2        -4.4871407777   0.0010895501   6.2518438522   -0.55665    0.0
 H3        -6.8055049542  -1.3578886215   5.2670135637   -0.55665    0.0
 B12       -5.2291001482   0.1097490240   5.7691058215   -0.33793    0.0
 B13       -6.3882822364  -0.5697400618   5.2766906772   -0.33793    0.0
 ZO1       -0.6185677305  -4.1103624950  -0.9995735515    8.00000    0.0
 ZH2        0.3063988402  -4.0195112081  -2.5219293370    1.00000    0.0
 ZH3       -0.3500050647  -2.5686625077  -0.1437584463    1.00000    0.0
 O1        -0.6185677305  -4.1103624950  -0.9995735515   -8.21083    0.0
 H2         0.3063988402  -4.0195112081  -2.5219293370   -0.55665    0.0
 H3        -0.3500050647  -2.5686625077  -0.1437584463   -0.55665    0.0
 B12       -0.1560847254  -4.0649372349  -1.7607512877   -0.33793    0.0
 B13       -0.4842866779  -3.3395128847  -0.5716658424   -0.33793    0.0
 ZO1        1.9154401134  -7.5057438168   2.3325048461    8.00000    0.0
 ZH2        1.4426074071  -7.0254857276   3.9839180743    1.00000    0.0
 ZH3        0.9005530281  -6.5583917886   1.2127224613    1.00000    0.0
 O1         1.9154401134  -7.5057438168   2.3325048461   -8.21083    0.0
 H2         1.4426074071  -7.0254857276   3.9839180743   -0.55665    0.0
 H3         0.9005530281  -6.5583917886   1.2127224613   -0.55665    0.0
 B12        1.6790241096  -7.2656151075   3.1582113354   -0.33793    0.0
 B13        1.4079969201  -7.0320681379   1.7726135289   -0.33793    0.0
 ZO1       -0.1829592926  12.0656698580  -3.1566710581    8.00000    0.0
 ZH2       -1.8893325930  11.5922629276  -2.9432224961    1.00000    0.0
 ZH3        0.4391400976  12.4844910022  -1.5383492581    1.00000    0.0
 O1        -0.1829592926  12.0656698580  -3.1566710581   -8.21083    0.0
 H2        -1.8893325930  11.5922629276  -2.9432224961   -0.55665    0.0
 H3         0.4391400976  12.4844910022  -1.5383492581   -0.55665    0.0
 B12       -1.0361456882  11.8289664056  -3.0499472073   -0.33793    0.0
 B13        0.1280906571  12.2750804429  -2.3475105882   -0.33793    0.0
 ZO1       -5.1758639596   9.8467519622  -3.4527712380    8.00000    0.0
 ZH2       -4.5419862045   8.4808082789  -4.4086902180    1.00000    0.0
 ZH3       -6.3619379053  10.6883909160  -4.4853683121    1.00000    0.0
 O1        -5.1758639596   9.8467519622  -3.4527712380   -8.21083    0.0
 H2        -4.5419862045   8.4808082789  -4.4086902180   -0.55665    0.0
 H3        -6.3619379053  10.6883909160  -4.4853683121   -0.55665    0.0
 B12       -4.8589249524   9.1637802437  -3.9307302611   -0.33793    0.0
 B13       -5.7689008028  10.2675715622  -3.9690693082   -0.33793    0.0
 ZO1        1.7899679704   9.1515758726  -7.2331269541    8.00000    0.0
 ZH2        2.0908780400  10.2484966094  -8.6070273428    1.00000    0.0
 ZH3        1.4441301764  10.1831368715  -5.8197401081    1.00000    0.0
 O1         1.7899679704   9.1515758726  -7.2331269541   -8.21083    0.0
 H2         2.0908780400  10.2484966094  -8.6070273428   -0.55665    0.0
 H3         1.4441301764  10.1831368715  -5.8197401081   -0.55665    0.0
 B12        1.9404230157   9.7000357412  -7.9200771578   -0.33793    0.0
 B13        1.6170490840   9.6673558723  -6.5264335404   -0.33793    0.0
 ZO1       -5.3687050981   1.9368423408   0.1701024071    8.00000    0.0
 ZH2       -6.0995338203   3.5586042928   0.3011054625    1.00000    0.0
 ZH3       -5.3990189151   1.2272014796   1.8062182867    1.00000    0.0
 O1        -5.3687050981   1.9368423408   0.1701024071   -8.21083    0.0
 H2        -6.0995338203   3.5586042928   0.3011054625   -0.55665    0.0
 H3        -5.3990189151   1.2272014796   1.8062182867   -0.55665    0.0
 B12       -5.7341192805   2.7477231026   0.2356035199   -0.33793    0.0
 B13       -5.3838618279   1.5820216960   0.9881599320   -0.33793    0.0
 ZO1       -2.6358083276   6.0870368392  -6.0517744569    8.00000    0.0
 ZH2       -1.8548613768   4.9588653543  -4.9121538132    1.00000    0.0
 ZH3       -1.3249260224   6.9036322331  -6.9440433600    1.00000    0.0
 O1        -2.6358083276   6.0870368392  -6.0517744569   -8.21083    0.0
 H2        -1.8548613768   4.9588653543  -4.9121538132   -0.55665    0.0
 H3        -1.3249260224   6.9036322331  -6.9440433600   -0.55665    0.0
 B12       -2.2453353434   5.5229511699  -5.4819641931   -0.33793    0.0
 B13       -1.9803676662   6.4953346093  -6.4979089665   -0.33793    0.0
 ZO1        7.3364725377   4.2457922020   9.4793335099    8.00000    0.0
 ZH2        8.5907279337   3.2698208188  10.2890911966    1.00000    0.0
 ZH3        8.0264576231   4.7782186136   7.9231114985    1.00000    0.0
 O1         7.3364725377   4.2457922020   9.4793335099   -8.21083    0.0
 H2         8.5907279337   3.2698208188  10.2890911966   -0.55665    0.0
 H3         8.0264576231   4.7782186136   7.9231114985   -0.55665    0.0
 B12        7.9635997791   3.7578066145   9.8842125286   -0.33793    0.0
 B13        7.6814646238   4.5120055119   8.7012226795   -0.33793    0.0

   CHARGE SCREENING PARAMETERS (COEF AND ZETA)
   ICHGP=   3 AI-FRAGMENT SCREENING= 1   FRAGMENT-FRAGMENT SCREENING= 1

             GAUSSIAN DAMPING    EXPONENTIAL DAMPING
 ZO1        3.17107   0.30798      3.17107   0.30798
 ZH2       -0.74355   0.22035     -0.74355   0.22035
 ZH3       -0.74355   0.22035     -0.74355   0.22035
 O1         3.06389   0.30817      3.06389   0.30817
 H2        -1.50149   0.23358     -1.50149   0.23358
 H3        -1.50149   0.23358     -1.50149   0.23358
 B12        1.99014   0.44003      1.99014   0.44003
 B13        1.99014   0.44003      1.99014   0.44003
 ZO1        3.17107   0.30798      3.17107   0.30798
 ZH2       -0.74355   0.22035     -0.74355   0.22035
 ZH3       -0.74355   0.22035     -0.74355   0.22035
 O1         3.06389   0.30817      3.06389   0.30817
 H2        -1.50149   0.23358     -1.50149   0.23358
 H3        -1.50149   0.23358     -1.50149   0.23358
 B12        1.99014   0.44003      1.99014   0.44003
 B13        1.99014   0.44003      1.99014   0.44003
 ZO1        3.17107   0.30798      3.17107   0.30798
 ZH2       -0.74355   0.22035     -0.74355   0.22035
 ZH3       -0.74355   0.22035     -0.74355   0.22035
 O1         3.06389   0.30817      3.06389   0.30817
 H2        -1.50149   0.23358     -1.50149   0.23358
 H3        -1.50149   0.23358     -1.50149   0.23358
 B12        1.99014   0.44003      1.99014   0.44003
 B13        1.99014   0.44003      1.99014   0.44003
 ZO1        3.17107   0.30798      3.17107   0.30798
 ZH2       -0.74355   0.22035     -0.74355   0.22035
 ZH3       -0.74355   0.22035     -0.74355   0.22035
 O1         3.06389   0.30817      3.06389   0.30817
 H2        -1.50149   0.23358     -1.50149   0.23358
 H3        -1.50149   0.23358     -1.50149   0.23358
 B12        1.99014   0.44003      1.99014   0.44003
 B13        1.99014   0.44003      1.99014   0.44003
 ZO1        3.17107   0.30798      3.17107   0.30798
 ZH2       -0.74355   0.22035     -0.74355   0.22035
 ZH3       -0.74355   0.22035     -0.74355   0.22035
 O1         3.06389   0.30817      3.06389   0.30817
 H2        -1.50149   0.23358     -1.50149   0.23358
 H3        -1.50149   0.23358     -1.50149   0.23358
 B12        1.99014   0.44003      1.99014   0.44003
 B13        1.99014   0.44003      1.99014   0.44003
 ZO1        3.17107   0.30798      3.17107   0.30798
 ZH2       -0.74355   0.22035     -0.74355   0.22035
 ZH3       -0.74355   0.22035     -0.74355   0.22035
 O1         3.06389   0.30817      3.06389   0.30817
 H2        -1.50149   0.23358     -1.50149   0.23358
 H3        -1.50149   0.23358     -1.50149   0.23358
 B12        1.99014   0.44003      1.99014   0.44003
 B13        1.99014   0.44003      1.99014   0.44003
 ZO1        3.17107   0.30798      3.17107   0.30798
 ZH2       -0.74355   0.22035     -0.74355   0.22035
 ZH3       -0.74355   0.22035     -0.74355   0.22035
 O1         3.06389   0.30817      3.06389   0.30817
 H2        -1.50149   0.23358     -1.50149   0.23358
 H3        -1.50149   0.23358     -1.50149   0.23358
 B12        1.99014   0.44003      1.99014   0.44003
 B13        1.99014   0.44003      1.99014   0.44003
 ZO1        3.17107   0.30798      3.17107   0.30798
 ZH2       -0.74355   0.22035     -0.74355   0.22035
 ZH3       -0.74355   0.22035     -0.74355   0.22035
 O1         3.06389   0.30817      3.06389   0.30817
 H2        -1.50149   0.23358     -1.50149   0.23358
 H3        -1.50149   0.23358     -1.50149   0.23358
 B12        1.99014   0.44003      1.99014   0.44003
 B13        1.99014   0.44003      1.99014   0.44003
 ZO1        3.17107   0.30798      3.17107   0.30798
 ZH2       -0.74355   0.22035     -0.74355   0.22035
 ZH3       -0.74355   0.22035     -0.74355   0.22035
 O1         3.06389   0.30817      3.06389   0.30817
 H2        -1.50149   0.23358     -1.50149   0.23358
 H3        -1.50149   0.23358     -1.50149   0.23358
 B12        1.99014   0.44003      1.99014   0.44003
 B13        1.99014   0.44003      1.99014   0.44003
 ZO1        3.17107   0.30798      3.17107   0.30798
 ZH2       -0.74355   0.22035     -0.74355   0.22035
 ZH3       -0.74355   0.22035     -0.74355   0.22035
 O1         3.06389   0.30817      3.06389   0.30817
 H2        -1.50149   0.23358     -1.50149   0.23358
 H3        -1.50149   0.23358     -1.50149   0.23358
 B12        1.99014   0.44003      1.99014   0.44003
 B13        1.99014   0.44003      1.99014   0.44003
 ZO1        3.17107   0.30798      3.17107   0.30798
 ZH2       -0.74355   0.22035     -0.74355   0.22035
 ZH3       -0.74355   0.22035     -0.74355   0.22035
 O1         3.06389   0.30817      3.06389   0.30817
 H2        -1.50149   0.23358     -1.50149   0.23358
 H3        -1.50149   0.23358     -1.50149   0.23358
 B12        1.99014   0.44003      1.99014   0.44003
 B13        1.99014   0.44003      1.99014   0.44003
 ZO1        3.17107   0.30798      3.17107   0.30798
 ZH2       -0.74355   0.22035     -0.74355   0.22035
 ZH3       -0.74355   0.22035     -0.74355   0.22035
 O1         3.06389   0.30817      3.06389   0.30817
 H2        -1.50149   0.23358     -1.50149   0.23358
 H3        -1.50149   0.23358     -1.50149   0.23358
 B12        1.99014   0.44003      1.99014   0.44003
 B13        1.99014   0.44003      1.99014   0.44003
 ZO1        3.17107   0.30798      3.17107   0.30798
 ZH2       -0.74355   0.22035     -0.74355   0.22035
 ZH3       -0.74355   0.22035     -0.74355   0.22035
 O1         3.06389   0.30817      3.06389   0.30817
 H2        -1.50149   0.23358     -1.50149   0.23358
 H3        -1.50149   0.23358     -1.50149   0.23358
 B12        1.99014   0.44003      1.99014   0.44003
 B13        1.99014   0.44003      1.99014   0.44003
 ZO1        3.17107   0.30798      3.17107   0.30798
 ZH2       -0.74355   0.22035     -0.74355   0.22035
 ZH3       -0.74355   0.22035     -0.74355   0.22035
 O1         3.06389   0.30817      3.06389   0.30817
 H2        -1.50149   0.23358     -1.50149   0.23358
 H3        -1.50149   0.23358     -1.50149   0.23358
 B12        1.99014   0.44003      1.99014   0.44003
 B13        1.99014   0.44003      1.99014   0.44003
 ZO1        3.17107   0.30798      3.17107   0.30798
 ZH2       -0.74355   0.22035     -0.74355   0.22035
 ZH3       -0.74355   0.22035     -0.74355   0.22035
 O1         3.06389   0.30817      3.06389   0.30817
 H2        -1.50149   0.23358     -1.50149   0.23358
 H3        -1.50149   0.23358     -1.50149   0.23358
 B12        1.99014   0.44003      1.99014   0.44003
 B13        1.99014   0.44003      1.99014   0.44003
 ZO1        3.17107   0.30798      3.17107   0.30798
 ZH2       -0.74355   0.22035     -0.74355   0.22035
 ZH3       -0.74355   0.22035     -0.74355   0.22035
 O1         3.06389   0.30817      3.06389   0.30817
 H2        -1.50149   0.23358     -1.50149   0.23358
 H3        -1.50149   0.23358     -1.50149   0.23358
 B12        1.99014   0.44003      1.99014   0.44003
 B13        1.99014   0.44003      1.99014   0.44003
 ZO1        3.17107   0.30798      3.17107   0.30798
 ZH2       -0.74355   0.22035     -0.74355   0.22035
 ZH3       -0.74355   0.22035     -0.74355   0.22035
 O1         3.06389   0.30817      3.06389   0.30817
 H2        -1.50149   0.23358     -1.50149   0.23358
 H3        -1.50149   0.23358     -1.50149   0.23358
 B12        1.99014   0.44003      1.99014   0.44003
 B13        1.99014   0.44003      1.99014   0.44003
 ZO1        3.17107   0.30798      3.17107   0.30798
 ZH2       -0.74355   0.22035     -0.74355   0.22035
 ZH3       -0.74355   0.22035     -0.74355   0.22035
 O1         3.06389   0.30817      3.06389   0.30817
 H2        -1.50149   0.23358     -1.50149   0.23358
 H3        -1.50149   0.23358     -1.50149   0.23358
 B12        1.99014   0.44003      1.99014   0.44003
 B13        1.99014   0.44003      1.99014   0.44003
 ZO1        3.17107   0.30798      3.17107   0.30798
 ZH2       -0.74355   0.22035     -0.74355   0.22035
 ZH3       -0.74355   0.22035     -0.74355   0.22035
 O1         3.06389   0.30817      3.06389   0.30817
 H2        -1.50149   0.23358     -1.50149   0.23358
 H3        -1.50149   0.23358     -1.50149   0.23358
 B12        1.99014   0.44003      1.99014   0.44003
 B13        1.99014   0.44003      1.99014   0.44003
 ZO1        3.17107   0.30798      3.17107   0.30798
 ZH2       -0.74355   0.22035     -0.74355   0.22035
 ZH3       -0.74355   0.22035     -0.74355   0.22035
 O1         3.06389   0.30817      3.06389   0.30817
 H2        -1.50149   0.23358     -1.50149   0.23358
 H3        -1.50149   0.23358     -1.50149   0.23358
 B12        1.99014   0.44003      1.99014   0.44003
 B13        1.99014   0.44003      1.99014   0.44003
 ZO1        3.17107   0.30798      3.17107   0.30798
 ZH2       -0.74355   0.22035     -0.74355   0.22035
 ZH3       -0.74355   0.22035     -0.74355   0.22035
 O1         3.06389   0.30817      3.06389   0.30817
 H2        -1.50149   0.23358     -1.50149   0.23358
 H3        -1.50149   0.23358     -1.50149   0.23358
 B12        1.99014   0.44003      1.99014   0.44003
 B13        1.99014   0.44003      1.99014   0.44003
 ZO1        3.17107   0.30798      3.17107   0.30798
 ZH2       -0.74355   0.22035     -0.74355   0.22035
 ZH3       -0.74355   0.22035     -0.74355   0.22035
 O1         3.06389   0.30817      3.06389   0.30817
 H2        -1.50149   0.23358     -1.50149   0.23358
 H3        -1.50149   0.23358     -1.50149   0.23358
 B12        1.99014   0.44003      1.99014   0.44003
 B13        1.99014   0.44003      1.99014   0.44003
 ZO1        3.17107   0.30798      3.17107   0.30798
 ZH2       -0.74355   0.22035     -0.74355   0.22035
 ZH3       -0.74355   0.22035     -0.74355   0.22035
 O1         3.06389   0.30817      3.06389   0.30817
 H2        -1.50149   0.23358     -1.50149   0.23358
 H3        -1.50149   0.23358     -1.50149   0.23358
 B12        1.99014   0.44003      1.99014   0.44003
 B13        1.99014   0.44003      1.99014   0.44003
 ZO1        3.17107   0.30798      3.17107   0.30798
 ZH2       -0.74355   0.22035     -0.74355   0.22035
 ZH3       -0.74355   0.22035     -0.74355   0.22035
 O1         3.06389   0.30817      3.06389   0.30817
 H2        -1.50149   0.23358     -1.50149   0.23358
 H3        -1.50149   0.23358     -1.50149   0.23358
 B12        1.99014   0.44003      1.99014   0.44003
 B13        1.99014   0.44003      1.99014   0.44003
 ZO1        3.17107   0.30798      3.17107   0.30798
 ZH2       -0.74355   0.22035     -0.74355   0.22035
 ZH3       -0.74355   0.22035     -0.74355   0.22035
 O1         3.06389   0.30817      3.06389   0.30817
 H2        -1.50149   0.23358     -1.50149   0.23358
 H3        -1.50149   0.23358     -1.50149   0.23358
 B12        1.99014   0.44003      1.99014   0.44003
 B13        1.99014   0.44003      1.99014   0.44003
 ZO1        3.17107   0.30798      3.17107   0.30798
 ZH2       -0.74355   0.22035     -0.74355   0.22035
 ZH3       -0.74355   0.22035     -0.74355   0.22035
 O1         3.06389   0.30817      3.06389   0.30817
 H2        -1.50149   0.23358     -1.50149   0.23358
 H3        -1.50149   0.23358     -1.50149   0.23358
 B12        1.99014   0.44003      1.99014   0.44003
 B13        1.99014   0.44003      1.99014   0.44003
 ZO1        3.17107   0.30798      3.17107   0.30798
 ZH2       -0.74355   0.22035     -0.74355   0.22035
 ZH3       -0.74355   0.22035     -0.74355   0.22035
 O1         3.06389   0.30817      3.06389   0.30817
 H2        -1.50149   0.23358     -1.50149   0.23358
 H3        -1.50149   0.23358     -1.50149   0.23358
 B12        1.99014   0.44003      1.99014   0.44003
 B13        1.99014   0.44003      1.99014   0.44003
 ZO1        3.17107   0.30798      3.17107   0.30798
 ZH2       -0.74355   0.22035     -0.74355   0.22035
 ZH3       -0.74355   0.22035     -0.74355   0.22035
 O1         3.06389   0.30817      3.06389   0.30817
 H2        -1.50149   0.23358     -1.50149   0.23358
 H3        -1.50149   0.23358     -1.50149   0.23358
 B12        1.99014   0.44003      1.99014   0.44003
 B13        1.99014   0.44003      1.99014   0.44003
 ZO1        3.17107   0.30798      3.17107   0.30798
 ZH2       -0.74355   0.22035     -0.74355   0.22035
 ZH3       -0.74355   0.22035     -0.74355   0.22035
 O1         3.06389   0.30817      3.06389   0.30817
 H2        -1.50149   0.23358     -1.50149   0.23358
 H3        -1.50149   0.23358     -1.50149   0.23358
 B12        1.99014   0.44003      1.99014   0.44003
 B13        1.99014   0.44003      1.99014   0.44003
 ZO1        3.17107   0.30798      3.17107   0.30798
 ZH2       -0.74355   0.22035     -0.74355   0.22035
 ZH3       -0.74355   0.22035     -0.74355   0.22035
 O1         3.06389   0.30817      3.06389   0.30817
 H2        -1.50149   0.23358     -1.50149   0.23358
 H3        -1.50149   0.23358     -1.50149   0.23358
 B12        1.99014   0.44003      1.99014   0.44003
 B13        1.99014   0.44003      1.99014   0.44003

   SCREENING FOR POLARIZATION WITH EXPONENTIAL FORMULA  OFF

   SCREENING FOR POLARIZATION WITH TANG-TOENNIS FORMULA  OFF

                  DIPOLE MOMENTS AND THE SECOND MOMENT TENSOR

                  X        Y        Z           XX/XY    YY/XZ    ZZ/YZ
 O1            0.10947  0.10041 -0.40941     -3.72741 -4.39373 -4.10686
                                             -0.30061  0.01863 -0.15908
 H2            0.05559 -0.01401 -0.01694     -0.27121 -0.28403 -0.27653
                                             -0.00216 -0.00786 -0.00002
 H3           -0.04218  0.02630 -0.03320     -0.27862 -0.28122 -0.27192
                                             -0.00403  0.00539 -0.00630
 B12          -0.15948  0.03015  0.07808     -0.12162 -0.15293 -0.14047
                                             -0.00873 -0.01089 -0.00161
 B13           0.10593 -0.07927  0.12221     -0.13330 -0.14852 -0.13320
                                             -0.01168  0.00997 -0.01151
 O1            0.23811  0.25647  0.25925     -4.21274 -4.24443 -3.77082
                                              0.32356 -0.19158 -0.12742
 H2           -0.00979 -0.00502  0.05876     -0.28306 -0.28279 -0.26592
                                              0.00182  0.00115  0.00264
 H3            0.03895  0.03643 -0.02701     -0.27502 -0.27542 -0.28132
                                              0.00957 -0.00155 -0.00126
 B12           0.00790 -0.00647 -0.17982     -0.14960 -0.14995 -0.11548
                                              0.00668 -0.00303  0.00027
 B13          -0.12439 -0.11899  0.05299     -0.13694 -0.13835 -0.13974
                                              0.01888 -0.00727 -0.00586
 O1           -0.19313  0.16871 -0.35203     -3.69717 -4.42018 -4.11063
                                              0.13519 -0.14130 -0.24064
 H2            0.03600  0.02400 -0.04124     -0.28015 -0.28074 -0.27088
                                              0.00238 -0.00393 -0.00750
 H3           -0.05965 -0.00334 -0.00187     -0.26735 -0.28393 -0.28049
                                             -0.00139  0.00510 -0.00187
 B12          -0.08260 -0.07837  0.13956     -0.13586 -0.14868 -0.13048
                                              0.00687 -0.01035 -0.01429
 B13           0.17708 -0.00417  0.03266     -0.11571 -0.15371 -0.14561
                                              0.00094  0.00387 -0.00542
 O1            0.28177  0.33122  0.02423     -4.12641 -4.06659 -4.03498
                                              0.01925  0.36009 -0.30910
 H2           -0.00882  0.04534 -0.03794     -0.28240 -0.26989 -0.27948
                                              0.00270  0.00029 -0.00760
 H3            0.04332 -0.00478  0.04091     -0.27222 -0.28139 -0.27815
                                              0.00379  0.00842  0.00102
 B12           0.00185 -0.14905  0.10110     -0.14771 -0.12781 -0.13950
                                              0.00212  0.00631 -0.01736
 B13          -0.13969 -0.01298 -0.11295     -0.13168 -0.14592 -0.13742
                                              0.00384  0.01912 -0.00378
 O1           -0.12998 -0.08488 -0.40692     -3.64509 -4.52392 -4.05898
                                             -0.07632 -0.12071  0.11847
 H2            0.04302 -0.01134 -0.03992     -0.27840 -0.28385 -0.26951
                                             -0.00174 -0.00618  0.00379
 H3           -0.05894  0.00094 -0.00991     -0.26922 -0.28457 -0.27797
                                              0.00070  0.00684  0.00117
 B12          -0.10660  0.03742  0.14027     -0.13170 -0.15476 -0.12856
                                             -0.00431 -0.01315  0.00704
 B13           0.17019  0.00410  0.05880     -0.11724 -0.15590 -0.14188
                                             -0.00046  0.00735  0.00292
 O1           -0.35487  0.04127 -0.24909     -4.23289 -3.64627 -4.34882
                                             -0.07877  0.21500  0.18289
 H2           -0.02412  0.05460 -0.00322     -0.27643 -0.27283 -0.28250
                                             -0.00781  0.00406 -0.00255
 H3           -0.01934 -0.04954 -0.02729     -0.27761 -0.27580 -0.27835
                                              0.00506  0.00661  0.00609
 B12           0.09330 -0.15145  0.02826     -0.14133 -0.12254 -0.15115
                                             -0.01324  0.00767 -0.00069
 B13           0.08031  0.13126  0.09360     -0.14318 -0.12723 -0.14460
                                              0.00703  0.01168  0.01292
 O1            0.25142 -0.04785 -0.35240     -4.09167 -4.12794 -4.00837
                                             -0.38744  0.03916 -0.26894
 H2           -0.01472  0.03260 -0.04789     -0.28268 -0.28100 -0.26808
                                             -0.00124 -0.00104 -0.00644
 H3            0.04551 -0.03846  0.00473     -0.27219 -0.27865 -0.28093
                                             -0.00843 -0.00381  0.00136
 B12           0.02026 -0.08475  0.15763     -0.14715 -0.14351 -0.12436
                                             -0.00814  0.00136 -0.01510
 B13          -0.14326  0.10816  0.01477     -0.13063 -0.13980 -0.14459
                                             -0.01946 -0.00301 -0.00281
 O1           -0.10150  0.18253 -0.38219     -3.95252 -4.09975 -4.17571
                                              0.41485  0.16618 -0.12303
 H2           -0.04778 -0.02215 -0.02828     -0.27463 -0.28271 -0.27442
                                              0.00271  0.00884  0.00043
 H3            0.03535  0.04450 -0.01852     -0.28048 -0.27428 -0.27701
                                              0.00562 -0.00251 -0.00778
 B12           0.13766  0.04582  0.10673     -0.13074 -0.14654 -0.13773
                                              0.01170  0.01568  0.00045
 B13          -0.08800 -0.13512  0.08024     -0.13995 -0.13327 -0.14180
                                              0.01629 -0.00219 -0.01247
 O1           -0.42307 -0.07475 -0.07146     -4.07233 -3.61433 -4.54133
                                             -0.07973  0.08048 -0.00761
 H2           -0.01680 -0.05728 -0.00317     -0.27613 -0.27109 -0.28454
                                              0.00760  0.00150  0.00136
 H3           -0.03501  0.04813 -0.00558     -0.27079 -0.27655 -0.28442
                                             -0.00738  0.00231 -0.00119
 B12           0.07876  0.16135  0.01421     -0.13956 -0.11938 -0.15608
                                              0.00980  0.00292  0.00187
 B13           0.12821 -0.12478  0.02075     -0.13115 -0.12798 -0.15590
                                             -0.01379  0.00418 -0.00214
 O1           -0.00869  0.12672  0.41659     -4.22164 -3.94022 -4.06613
                                              0.43428 -0.13520 -0.03128
 H2           -0.03213 -0.03372  0.03747     -0.28078 -0.28087 -0.27011
                                              0.00369 -0.00627 -0.00411
 H3            0.03107  0.04924  0.01355     -0.28116 -0.27358 -0.27702
                                              0.00621  0.00293  0.00681
 B12           0.08790  0.08160 -0.13437     -0.14468 -0.14051 -0.12983
                                              0.01312 -0.01204 -0.00838
 B13          -0.08365 -0.14360 -0.06944     -0.14528 -0.12904 -0.14070
                                              0.01709  0.00244  0.00881
 O1           -0.01742  0.12474 -0.41692     -4.11782 -4.05065 -4.05952
                                             -0.45570 -0.13446  0.02568
 H2            0.03510 -0.02969 -0.03821     -0.28021 -0.28173 -0.26982
                                             -0.00351 -0.00645  0.00345
 H3           -0.03723  0.04496 -0.01285     -0.27934 -0.27528 -0.27714
                                             -0.00709  0.00384 -0.00623
 B12          -0.09392  0.07081  0.13640     -0.14204 -0.14372 -0.12927
                                             -0.01312 -0.01261  0.00724
 B13           0.10244 -0.13184  0.06756     -0.14067 -0.13356 -0.14080
                                             -0.01875  0.00360 -0.00802
 O1            0.14835 -0.30910 -0.26858     -4.45737 -3.84892 -3.92170
                                              0.02213 -0.23786 -0.24547
 H2            0.02024  0.01834 -0.05317     -0.28182 -0.28158 -0.26836
                                             -0.00051 -0.00695  0.00034
 H3           -0.00207 -0.05619  0.02028     -0.28412 -0.26562 -0.28203
                                             -0.00195 -0.00110 -0.00059
 B12          -0.06657 -0.02555  0.16540     -0.15084 -0.14220 -0.12198
                                              0.00077 -0.01388 -0.00577
 B13          -0.00600  0.17677 -0.03400     -0.15445 -0.11706 -0.14351
                                             -0.00150 -0.00467 -0.00723
 O1            0.21526  0.12364  0.35786     -4.23567 -4.02506 -3.96725
                                              0.38203 -0.03404 -0.24630
 H2            0.03775  0.04594 -0.00613     -0.27597 -0.27494 -0.28086
                                              0.00916  0.00306  0.00216
 H3           -0.01139 -0.03080  0.04995     -0.28330 -0.28151 -0.26695
                                              0.00134  0.00115 -0.00495
 B12          -0.11936 -0.13440 -0.01142     -0.13855 -0.13258 -0.14390
                                              0.02013  0.00222 -0.00189
 B13           0.01406  0.07391 -0.16365     -0.15009 -0.14293 -0.12200
                                              0.00781 -0.00079 -0.01309
 O1            0.11332 -0.28918  0.30532     -4.26244 -3.86441 -4.10113
                                              0.26904  0.32519  0.09754
 H2           -0.02097 -0.05556 -0.00680     -0.28322 -0.26658 -0.28196
                                              0.00334  0.00090 -0.00319
 H3            0.03485  0.02015  0.04419     -0.27884 -0.28175 -0.27118
                                              0.00072  0.00881 -0.00029
 B12           0.04804  0.17350 -0.00547     -0.14953 -0.11852 -0.14697
                                              0.01063  0.00596 -0.00107
 B13          -0.10348 -0.03203 -0.14390     -0.14263 -0.14241 -0.12998
                                              0.00650  0.01841  0.00350
 O1           -0.15287  0.19155  0.36003     -3.80426 -4.20530 -4.21843
                                              0.34645 -0.07029  0.21758
 H2            0.03617  0.03945  0.02663     -0.28025 -0.27592 -0.27559
                                              0.00458  0.00284  0.00849
 H3           -0.05489 -0.01599  0.01746     -0.27061 -0.28328 -0.27788
                                              0.00148 -0.00803  0.00097
 B12          -0.08619 -0.12211 -0.10050     -0.13745 -0.13771 -0.13986
                                              0.01379  0.00475  0.01521
 B13           0.16098  0.02840 -0.07563     -0.12227 -0.14930 -0.14346
                                              0.00890 -0.01237  0.00336
 O1            0.02978 -0.35985 -0.24353     -4.03091 -4.11905 -4.07803
                                             -0.26317  0.39398  0.03612
 H2           -0.03773 -0.00414 -0.04618     -0.27957 -0.28006 -0.27213
                                              0.00175  0.00730  0.00564
 H3            0.04137 -0.03992  0.01636     -0.27794 -0.27114 -0.28268
                                             -0.00848  0.00127  0.00087
 B12           0.10008  0.03946  0.14446     -0.13960 -0.14523 -0.13020
                                             -0.00138  0.01829  0.00719
 B13          -0.11465  0.13658 -0.02531     -0.13703 -0.13118 -0.14682
                                             -0.01749  0.00880 -0.00034
 O1            0.14518 -0.03333 -0.40926     -3.69886 -4.48826 -4.04087
                                              0.21379  0.11525  0.10967
 H2            0.05794  0.01178 -0.00878     -0.26936 -0.28432 -0.27809
                                              0.00243 -0.00674 -0.00045
 H3           -0.04016 -0.01586 -0.04134     -0.27923 -0.28368 -0.26886
                                              0.00217  0.00553  0.00385
 B12          -0.16867 -0.02937  0.05593     -0.11847 -0.15474 -0.14181
                                              0.00753 -0.00712  0.00078
 B13           0.09764  0.04567  0.14429     -0.13401 -0.15374 -0.12727
                                              0.00713  0.01221  0.00754
 O1           -0.12649  0.11860 -0.39952     -3.73267 -4.37392 -4.12140
                                              0.29865 -0.01904 -0.18393
 H2            0.04066  0.02812 -0.03360     -0.27909 -0.28055 -0.27212
                                              0.00402 -0.00488 -0.00691
 H3           -0.05615 -0.01360 -0.01533     -0.27060 -0.28398 -0.27718
                                              0.00187  0.00772 -0.00039
 B12          -0.10047 -0.08564  0.12252     -0.13423 -0.14724 -0.13356
                                              0.01173 -0.00933 -0.01272
 B13           0.16235  0.02762  0.07293     -0.12087 -0.15264 -0.14152
                                              0.00834  0.01051 -0.00244
 O1           -0.04890 -0.37530  0.21552     -3.99529 -4.13948 -4.09323
                                              0.22492  0.40926 -0.06504
 H2           -0.04373 -0.03610 -0.01890     -0.27692 -0.27206 -0.28279
                                              0.00870  0.00186 -0.00018
 H3            0.03774 -0.00986  0.04529     -0.27968 -0.27888 -0.27320
                                             -0.00234  0.00685 -0.00656
 B12           0.12255  0.12743  0.03441     -0.13486 -0.13326 -0.14690
                                              0.01698  0.01007  0.00076
 B13          -0.09863  0.05617 -0.13985     -0.13921 -0.14401 -0.13181
                                             -0.00040  0.01793 -0.00929
 O1           -0.40377  0.15980  0.03349     -4.03201 -3.70674 -4.48924
                                              0.12763 -0.11685 -0.20799
 H2           -0.04277 -0.03868  0.01576     -0.26847 -0.27960 -0.28369
                                              0.00515 -0.00391 -0.00202
 H3           -0.00668  0.05825 -0.01166     -0.27856 -0.26887 -0.28433
                                             -0.00641  0.00035 -0.00241
 B12           0.14774  0.09247 -0.04541     -0.12639 -0.13486 -0.15377
                                              0.01195 -0.00776 -0.00680
 B13           0.04979 -0.17064  0.02903     -0.14229 -0.11796 -0.15478
                                             -0.00625 -0.00106 -0.00742
 O1            0.18485  0.35031  0.18110     -3.95975 -4.24200 -4.02623
                                              0.14227 -0.39061  0.18203
 H2            0.05036  0.01974 -0.02545     -0.27186 -0.27765 -0.28225
                                              0.00836 -0.00329 -0.00039
 H3           -0.02772  0.02316  0.04763     -0.28186 -0.27682 -0.27309
                                             -0.00090 -0.00351  0.00869
 B12          -0.15119 -0.08105  0.05489     -0.12714 -0.14331 -0.14458
                                              0.01385 -0.01261  0.00076
 B13           0.06076 -0.09033 -0.14349     -0.14288 -0.14200 -0.13014
                                             -0.00073 -0.01295  0.01506
 O1            0.13284 -0.36686  0.19352     -3.88372 -3.99764 -4.34663
                                              0.24325  0.33134 -0.02445
 H2            0.05147  0.00294  0.03026     -0.27254 -0.28050 -0.27873
                                             -0.00313  0.00839 -0.00322
 H3           -0.03520 -0.04787 -0.00656     -0.28051 -0.26759 -0.28367
                                              0.00555  0.00089 -0.00195
 B12          -0.15013  0.02078 -0.09731     -0.12649 -0.14401 -0.14452
                                              0.00044  0.01809 -0.00361
 B13           0.08514  0.15869  0.00264     -0.13905 -0.12368 -0.15229
                                              0.01410  0.00627 -0.00160
 O1            0.24412  0.33392 -0.13633     -4.35316 -4.02622 -3.84861
                                              0.09616 -0.26644  0.28634
 H2            0.02722 -0.00667 -0.05280     -0.27848 -0.28139 -0.27189
                                              0.00287 -0.00848 -0.00205
 H3            0.00268  0.04757  0.03610     -0.28263 -0.26884 -0.28029
                                              0.00462  0.00020  0.00567
 B12          -0.09302 -0.00806  0.15402     -0.14482 -0.14529 -0.12491
                                              0.00399 -0.01694  0.00277
 B13          -0.02641 -0.15530 -0.08732     -0.15136 -0.12553 -0.13813
                                              0.00674 -0.00327  0.01493
 O1           -0.30430  0.29200  0.10874     -4.28528 -4.31272 -3.62999
                                             -0.25527  0.09094 -0.07014
 H2           -0.00850  0.00915  0.05846     -0.28084 -0.28102 -0.26990
                                             -0.00387 -0.00511  0.00513
 H3           -0.02876  0.02661 -0.04514     -0.27657 -0.27749 -0.27770
                                             -0.00776  0.00505 -0.00469
 B12           0.04693 -0.04772 -0.16721     -0.14827 -0.14883 -0.11793
                                             -0.00803 -0.00565  0.00607
 B13           0.10194 -0.09513  0.11402     -0.14154 -0.14326 -0.13022
                                             -0.01415  0.01035 -0.00939
 O1           -0.22178 -0.01116  0.37467     -3.79811 -4.46172 -3.96816
                                              0.24835  0.17001  0.13541
 H2           -0.05710 -0.01736 -0.00332     -0.26783 -0.28360 -0.28033
                                              0.00438 -0.00437 -0.00064
 H3            0.02994  0.01599  0.04920     -0.28121 -0.28386 -0.26670
                                              0.00148  0.00289  0.00348
 B12           0.17240  0.04800 -0.02036     -0.11847 -0.15314 -0.14341
                                              0.01100 -0.00185  0.00137
 B13          -0.06390 -0.04254 -0.16293     -0.13954 -0.15354 -0.12194
                                              0.00643  0.00959  0.00786
 O1           -0.11295 -0.10724 -0.40673     -4.13646 -3.95775 -4.13377
                                             -0.43733  0.13298  0.09110
 H2            0.02710 -0.04783 -0.02347     -0.28225 -0.27451 -0.27501
                                             -0.00428 -0.00183  0.00822
 H3           -0.04093  0.03470 -0.02634     -0.27692 -0.28064 -0.27420
                                             -0.00498  0.00786 -0.00330
 B12          -0.06472  0.13825  0.09560     -0.14589 -0.13067 -0.13846
                                             -0.01439 -0.00187  0.01332
 B13           0.11997 -0.08578  0.10338     -0.13750 -0.14033 -0.13719
                                             -0.01549  0.01340 -0.00482
 O1           -0.00919  0.43536  0.00808     -4.50584 -4.07271 -3.64944
                                             -0.00524 -0.21022 -0.01229
 H2            0.01153  0.02788 -0.05161     -0.28431 -0.27275 -0.27470
                                              0.00163 -0.00222 -0.00788
 H3           -0.01265  0.02544  0.05259     -0.28416 -0.27349 -0.27411
                                             -0.00201 -0.00262  0.00783
 B12          -0.03057 -0.10981  0.13946     -0.15500 -0.13452 -0.12550
                                              0.00258 -0.00701 -0.01271
 B13           0.03506 -0.10318 -0.14341     -0.15476 -0.13568 -0.12458
                                             -0.00315 -0.00764  0.01203
 O1           -0.15568  0.18656  0.36144     -4.43603 -3.83306 -3.95890
                                             -0.26408 -0.02013 -0.23751
 H2           -0.02263  0.05500 -0.00600     -0.28124 -0.26975 -0.28077
                                             -0.00717 -0.00218  0.00310
 H3            0.00356 -0.03215  0.05027     -0.28406 -0.28102 -0.26668
                                             -0.00078 -0.00193 -0.00418
 B12           0.07363 -0.16393 -0.01204     -0.14963 -0.12171 -0.14369
                                             -0.01495 -0.00228 -0.00088
 B13           0.00254  0.07266 -0.16478     -0.15407 -0.13945 -0.12150
                                             -0.00489 -0.00190 -0.01234
 O1            0.42786 -0.06373  0.05059     -4.05693 -4.10381 -4.06726
                                              0.05079 -0.07046 -0.46859
 H2            0.01629 -0.04025  0.04108     -0.27609 -0.27789 -0.27779
                                             -0.00547  0.00535 -0.00696
 H3            0.03610  0.03245 -0.03488     -0.27021 -0.28110 -0.28045
                                              0.00487 -0.00556 -0.00401
 B12          -0.07777  0.11427 -0.11548     -0.13934 -0.13824 -0.13744
                                             -0.00704  0.00667 -0.01873
 B13          -0.13155 -0.08309  0.09073     -0.13009 -0.14330 -0.14163
                                              0.00924 -0.01051 -0.01408
 O1            0.39767 -0.09072 -0.15268     -4.11587 -4.26878 -3.84334
                                             -0.19084  0.00128 -0.38062
 H2            0.03490 -0.03375  0.03488     -0.27173 -0.27948 -0.28056
                                             -0.00758  0.00358 -0.00382
 H3            0.01380  0.02264 -0.05357     -0.27754 -0.28302 -0.27120
                                              0.00085 -0.00749 -0.00402
 B12          -0.12591  0.09873 -0.08271     -0.13281 -0.14363 -0.13859
                                             -0.01418  0.00726 -0.01276
 B13          -0.06864 -0.05435  0.15740     -0.14196 -0.14921 -0.12385
                                             -0.00090 -0.01017 -0.01308

                  THE THIRD MOMENT TENSOR

               XXX/XYY  YYY/YYZ  ZZZ/XZZ  XXY/YZZ  XXZ/XYZ
 O1            0.22399  0.22823 -0.93938  0.07661 -0.28221
               0.09039 -0.30864  0.09476  0.07045 -0.01569
 H2            0.04729 -0.01749 -0.01121 -0.00279  0.00329
               0.02061 -0.00472  0.01623 -0.00534 -0.00122
 H3           -0.04558  0.02756 -0.02427  0.00623 -0.00607
              -0.01427 -0.00801 -0.01064  0.00434 -0.00401
 B12          -0.47722  0.09605  0.21192  0.03337  0.06981
              -0.15930  0.07096 -0.15967  0.03373  0.00127
 B13           0.33002 -0.23399  0.34626 -0.07934  0.11381
               0.10829  0.11609  0.10954 -0.07761  0.00035
 O1            0.53490  0.58068  0.54523  0.18182  0.21199
               0.16870  0.21176  0.18637  0.19606  0.01153
 H2           -0.01439 -0.00915  0.04131 -0.00306  0.02137
              -0.00489  0.02128 -0.00444 -0.00460 -0.00052
 H3            0.03439  0.03207 -0.03375  0.00510 -0.00880
               0.00645 -0.00912  0.01253  0.01157  0.00264
 B12           0.03761 -0.00507 -0.52921  0.00026 -0.17730
               0.01431 -0.17706  0.01293 -0.00122 -0.00075
 B13          -0.36299 -0.34578  0.17990 -0.11497  0.05774
              -0.12062  0.05774 -0.12146 -0.11508  0.00061
 O1           -0.39690  0.38735 -0.79648  0.12472 -0.25404
              -0.15580 -0.26523 -0.16913  0.11849  0.01156
 H2            0.04172  0.02394 -0.03138  0.00650 -0.01087
               0.01296 -0.01081  0.00894  0.00167  0.00335
 H3           -0.04469 -0.00600  0.00295 -0.00281  0.00546
              -0.02228  0.00081 -0.02069 -0.00230 -0.00062
 B12          -0.26564 -0.22795  0.40235 -0.07598  0.13337
              -0.08600  0.13428 -0.08676 -0.07532  0.00041
 B13           0.52516 -0.00406  0.07745 -0.00040  0.02522
               0.17525  0.02600  0.17616  0.00095 -0.00093
 O1            0.62950  0.74081  0.05192  0.25874 -0.00415
               0.22428  0.04278  0.19936  0.23840 -0.00201
 H2           -0.01387  0.03422 -0.04050  0.01574 -0.01459
              -0.00550 -0.00575 -0.00432  0.01030  0.00004
 H3            0.03537 -0.01002  0.04179 -0.00522  0.00677
               0.01482  0.01531  0.00858 -0.00377 -0.00110
 B12           0.02268 -0.43215  0.30769 -0.14357  0.10487
               0.00726  0.10192  0.00881 -0.14452  0.00004
 B13          -0.40674 -0.01858 -0.34059 -0.00699 -0.11294
              -0.13516 -0.11591 -0.13611 -0.00563  0.00041
 O1           -0.26279 -0.19653 -0.92636 -0.06019 -0.28130
              -0.10227 -0.31325 -0.12075 -0.06052 -0.00637
 H2            0.04663 -0.01203 -0.02825 -0.00240 -0.00777
               0.01676 -0.01305  0.00915 -0.00057 -0.00219
 H3           -0.04738  0.00214 -0.00441  0.00125  0.00498
              -0.02245 -0.00218 -0.01889  0.00103  0.00043
 B12          -0.33427  0.10872  0.40102  0.03619  0.13245
              -0.10895  0.13440 -0.11018  0.03576 -0.00018
 B13           0.50860  0.00837  0.15290  0.00206  0.04999
               0.16891  0.05245  0.17078  0.00148  0.00061
 O1           -0.81831  0.08297 -0.57218  0.02797 -0.18994
              -0.23741 -0.16888 -0.27065  0.04329  0.00693
 H2           -0.01930  0.04932 -0.00037  0.01526  0.00162
               0.00060  0.00228 -0.00718  0.02034 -0.00206
[...]
          (OFF-DIAGONAL ELEMENTS NEED TO BE MULTIPLIED BY 2)

             1           2           3           4           5

    1    4.4502610
    2    0.2530936   8.4031812
    3   -0.0206950   0.2740515   0.1819075
    4    0.4651746  -0.1137369   0.0007457   8.4768328
    5    0.2493289  -0.1242002   0.0046076  -0.1085120   5.1654012
    6   -0.0698090   0.0021046  -0.0019307   0.0030940   0.4270426
    7   -0.0343850   0.0001442   0.0002250   0.0022599   0.3931745
    8   -0.0585206   0.0008560  -0.0001327   0.0169343   0.1705478
    9    0.0086198  -0.0010551  -0.0002267  -0.0004545  -0.0480303
   10   -0.0113354  -0.0005966  -0.0002702  -0.0000315  -0.0337459

             6           7           8           9          10

    6    0.6105701
    7   -0.0572095   0.5259499
    8   -0.0635662  -0.0188763   7.1460907
    9    0.0076002  -0.0086584   0.3353122   0.4248594
   10   -0.0034488   0.0057782   0.3570576  -0.0297834   0.2778625

          TOTAL MULLIKEN AND LOWDIN ATOMIC POPULATIONS
       ATOM         MULL.POP.    CHARGE          LOW.POP.     CHARGE
    1 C             5.231733    0.768267         5.641013    0.358987
    2 O             8.693842   -0.693842         8.374215   -0.374215
    3 H             0.438282    0.561718         0.643223    0.356777
    4 O             8.742306   -0.742306         8.500164   -0.500164
    5 C             6.095614   -0.095614         6.114243   -0.114243
    6 H             0.854447    0.145553         0.840773    0.159227
    7 H             0.808403    0.191597         0.822762    0.177238
    8 N             7.885703   -0.885703         7.544073   -0.544073
    9 H             0.688183    0.311817         0.780876    0.219124
   10 H             0.561487    0.438513         0.738657    0.261343

          -------------------------------
          BOND ORDER AND VALENCE ANALYSIS     BOND ORDER THRESHOLD=0.050
          -------------------------------

                   BOND                       BOND                       BOND
  ATOM PAIR DIST  ORDER      ATOM PAIR DIST  ORDER      ATOM PAIR DIST  ORDER
    1   2  1.306  1.038        1   4  1.202  1.613        1   5  1.512  0.999
    2   3  0.966  0.678        2   5  2.348 -0.087        4   5  2.405 -0.059
    5   6  1.086  0.980        5   7  1.082  0.951        5   8  1.442  0.908
    8   9  1.000  0.871        8  10  1.005  0.801

                       TOTAL       BONDED        FREE
      ATOM            VALENCE     VALENCE     VALENCE
    1 C                 3.610       3.610      -0.000
    2 O                 1.603       1.603       0.000
    3 H                 0.673       0.673       0.000
    4 O                 1.575       1.575       0.000
    5 C                 3.691       3.691      -0.000
    6 H                 0.913       0.913      -0.000
    7 H                 0.918       0.918       0.000
    8 N                 2.543       2.543       0.000
    9 H                 0.864       0.864       0.000
   10 H                 0.782       0.782       0.000

          ----------------------------
          SOLUTE ELECTROSTATIC MOMENTS
          ----------------------------

 POINT   1           X           Y           Z (BOHR)    CHARGE
                 1.286608    2.377268    0.770083       -0.00 (A.U.)
         DX          DY          DZ         /D/  (DEBYE)
     1.879698    0.704738    1.551830    2.537340

          ----------------------------------------
          EFFECTIVE FRAGMENT ELECTROSTATIC MOMENTS
          ----------------------------------------

 FRAGMENT DIPOLES HAVE BEEN PUNCHED


          ----------------------------
          SYSTEM ELECTROSTATIC MOMENTS
          ----------------------------

 POINT   1           X           Y           Z (BOHR)    CHARGE
                 1.286608    2.377268    0.770083       -0.00 (A.U.)
         DX          DY          DZ         /D/  (DEBYE)
     3.003795    8.671036   -6.523224   11.258867
 ...... END OF PROPERTY EVALUATION ......
 STEP CPU TIME =     0.02 TOTAL CPU TIME =       14.3 (    0.2 MIN)
 TOTAL WALL CLOCK TIME=       14.3 SECONDS, CPU UTILIZATION IS  99.86%

 BEGINNING ONE ELECTRON GRADIENT...
 TIME TO DO ORDINARY GRADIENT INTEGRALS=      0.05
 READY TO DO 1E- PART OF GRAD WRT FRAGMENT

                     -----------------------------
                     FRAGMENT GRADIENT INFORMATION
                     -----------------------------


      FRAGMENT NO.    1     E'X               E'Y               E'Z 
      TOTALS          -0.000159787       0.000246070       0.000505170
      TORQUE           0.002151954       0.000568189      -0.000892203

      FRAGMENT NO.    2     E'X               E'Y               E'Z 
      TOTALS          -0.000382781      -0.000546370       0.000574426
      TORQUE           0.000219418      -0.000465046       0.000416227

      FRAGMENT NO.    3     E'X               E'Y               E'Z 
      TOTALS          -0.001306609       0.001554643      -0.000329627
      TORQUE          -0.001049742       0.000239191       0.001213436

      FRAGMENT NO.    4     E'X               E'Y               E'Z 
      TOTALS          -0.000186706      -0.002071802      -0.000648448
      TORQUE          -0.003694037       0.001040542       0.002147200

      FRAGMENT NO.    5     E'X               E'Y               E'Z 
      TOTALS           0.002407138      -0.000541082       0.001979433
      TORQUE          -0.000018390      -0.001901256       0.002855198

      FRAGMENT NO.    6     E'X               E'Y               E'Z 
      TOTALS           0.000878614      -0.001068238      -0.000582038
      TORQUE          -0.000030426      -0.000749669       0.000711921

      FRAGMENT NO.    7     E'X               E'Y               E'Z 
      TOTALS          -0.000822323       0.000999235      -0.000928833
      TORQUE           0.000958213       0.000580713       0.000873597

      FRAGMENT NO.    8     E'X               E'Y               E'Z 
      TOTALS           0.000708986      -0.000485393       0.001682099
      TORQUE           0.000309565      -0.002252742       0.002903961

      FRAGMENT NO.    9     E'X               E'Y               E'Z 
      TOTALS          -0.003457780       0.000360551      -0.000417645
      TORQUE           0.003389457      -0.001739429      -0.003048875

      FRAGMENT NO.   10     E'X               E'Y               E'Z 
      TOTALS          -0.000966061       0.001378617       0.002689942
      TORQUE          -0.000580446       0.000281495       0.001876110

      FRAGMENT NO.   11     E'X               E'Y               E'Z 
      TOTALS           0.000353171       0.000668152      -0.001829575
      TORQUE          -0.002554704       0.006720467      -0.001228676

      FRAGMENT NO.   12     E'X               E'Y               E'Z 
      TOTALS          -0.000343537       0.000540909      -0.000012780
      TORQUE           0.000702297       0.000499641      -0.001705899

      FRAGMENT NO.   13     E'X               E'Y               E'Z 
      TOTALS           0.000378817       0.000286789      -0.000103877
      TORQUE          -0.000523995      -0.000131497       0.000930344

      FRAGMENT NO.   14     E'X               E'Y               E'Z 
      TOTALS           0.000323082       0.000568825      -0.001096508
      TORQUE          -0.000533688       0.001763304      -0.001148978

      FRAGMENT NO.   15     E'X               E'Y               E'Z 
      TOTALS           0.002402513      -0.000143841       0.000739196
      TORQUE          -0.002564984       0.001105976      -0.001293742

      FRAGMENT NO.   16     E'X               E'Y               E'Z 
      TOTALS           0.000250837       0.001958574       0.000366007
      TORQUE           0.000991156       0.000760924      -0.001868563

      FRAGMENT NO.   17     E'X               E'Y               E'Z 
      TOTALS           0.000679050      -0.000475078      -0.000177162
      TORQUE           0.000639269       0.000245018       0.000968963

      FRAGMENT NO.   18     E'X               E'Y               E'Z 
      TOTALS           0.002171844      -0.002988763       0.001107946
      TORQUE          -0.000372730       0.002827069      -0.000920421

      FRAGMENT NO.   19     E'X               E'Y               E'Z 
      TOTALS           0.000272589      -0.000115721      -0.000012806
      TORQUE           0.000478162      -0.000687418      -0.001485860

      FRAGMENT NO.   20     E'X               E'Y               E'Z 
      TOTALS           0.000416945       0.000418208       0.000798265
      TORQUE          -0.001178978      -0.001241993       0.000021391

      FRAGMENT NO.   21     E'X               E'Y               E'Z 
      TOTALS           0.000065595      -0.000244084       0.000487827
      TORQUE           0.006679079      -0.002509218       0.000674924

      FRAGMENT NO.   22     E'X               E'Y               E'Z 
      TOTALS           0.000365512       0.001847121      -0.000930484
      TORQUE           0.004918772      -0.002096701       0.003651361

      FRAGMENT NO.   23     E'X               E'Y               E'Z 
      TOTALS          -0.000167482      -0.000151948      -0.000290228
      TORQUE           0.000972876      -0.000799583       0.000664654

      FRAGMENT NO.   24     E'X               E'Y               E'Z 
      TOTALS          -0.000075681       0.000229487       0.000066358
      TORQUE           0.000094344      -0.000657532      -0.000326794

      FRAGMENT NO.   25     E'X               E'Y               E'Z 
      TOTALS          -0.000031306      -0.000038837      -0.000048773
      TORQUE           0.000023455       0.000199114      -0.000163578

      FRAGMENT NO.   26     E'X               E'Y               E'Z 
      TOTALS          -0.000031155       0.000209539       0.000630923
      TORQUE          -0.000244392       0.001158153       0.000633116

      FRAGMENT NO.   27     E'X               E'Y               E'Z 
      TOTALS          -0.000190494       0.000070013       0.000189568
      TORQUE          -0.000348613       0.000244007      -0.000329089

      FRAGMENT NO.   28     E'X               E'Y               E'Z 
      TOTALS          -0.000441176      -0.001223800      -0.002206280
      TORQUE           0.000211595      -0.001271811       0.000838548

      FRAGMENT NO.   29     E'X               E'Y               E'Z 
      TOTALS          -0.000416856      -0.001596926      -0.000931294
      TORQUE          -0.001043851       0.000318384       0.001137007

      FRAGMENT NO.   30     E'X               E'Y               E'Z 
      TOTALS          -0.002457202       0.000242519      -0.000124677
      TORQUE           0.001587422       0.000582837       0.000362119

      TOTAL FORCE ON ALL FRAGMENTS
      FORCE            0.000237758      -0.000112629       0.001146127
 TIME TO DO FRAGMENT GRADIENT INTEGRALS=     22.57
 ..... END OF 1-ELECTRON GRADIENT ......
 STEP CPU TIME =    22.62 TOTAL CPU TIME =       36.9 (    0.6 MIN)
 TOTAL WALL CLOCK TIME=       36.9 SECONDS, CPU UTILIZATION IS  99.95%

          ----------------------
          GRADIENT OF THE ENERGY
          ----------------------

 THE MINIMUM MEMORY REQUIRED FOR THIS RUN IS     141431 WORDS.
 USING    1116951 WORDS FOR 2E- DERIVATIVE INTEGRAL CONTRIBUTIONS.
 THE COARSE/FINE SCHWARZ SCREENINGS SKIPPED        54397/       67892 BLOCKS.
 THE NUMBER OF GRADIENT INTEGRAL BLOCKS COMPUTED WAS    409414
 ...... END OF 2-ELECTRON GRADIENT ......
 STEP CPU TIME =     3.14 TOTAL CPU TIME =       40.0 (    0.7 MIN)
 TOTAL WALL CLOCK TIME=       40.0 SECONDS, CPU UTILIZATION IS  99.95%

                         ----------------------
                         GRADIENT OF THE ENERGY
                         ----------------------

 UNITS ARE HARTREE/BOHR    E'X               E'Y               E'Z 
    1 C                0.002024422       0.002075387       0.000745592
    2 O               -0.001774132      -0.001039027      -0.001180960
    3 H                0.000536201       0.000719305      -0.000106670
    4 O               -0.000936472      -0.001747410       0.000083196
    5 C                0.000015990       0.000234637       0.000142264
    6 H                0.000100055       0.000035725      -0.000062142
    7 H               -0.000116377       0.000093805      -0.000094479
    8 N               -0.000739994      -0.000280159      -0.000356727
    9 H                0.000085460       0.000190513      -0.000578874
   10 H                0.000567089      -0.000170146       0.000262674
      TOTAL QM TRANS. -0.000237758       0.000112629      -0.001146127
      TOTAL QM TORQUE -0.014773308       0.006932840       0.006302306
  EFP           TRANS GRADIENT                           TORQUE
    1  -0.0001598  0.0002461  0.0005052     0.0021520  0.0005682 -0.0008922
    2  -0.0003828 -0.0005464  0.0005744     0.0002194 -0.0004650  0.0004162
    3  -0.0013066  0.0015546 -0.0003296    -0.0010497  0.0002392  0.0012134
    4  -0.0001867 -0.0020718 -0.0006484    -0.0036940  0.0010405  0.0021472
    5   0.0024071 -0.0005411  0.0019794    -0.0000184 -0.0019013  0.0028552
    6   0.0008786 -0.0010682 -0.0005820    -0.0000304 -0.0007497  0.0007119
    7  -0.0008223  0.0009992 -0.0009288     0.0009582  0.0005807  0.0008736
    8   0.0007090 -0.0004854  0.0016821     0.0003096 -0.0022527  0.0029040
    9  -0.0034578  0.0003606 -0.0004176     0.0033895 -0.0017394 -0.0030489
   10  -0.0009661  0.0013786  0.0026899    -0.0005804  0.0002815  0.0018761
   11   0.0003532  0.0006682 -0.0018296    -0.0025547  0.0067205 -0.0012287
   12  -0.0003435  0.0005409 -0.0000128     0.0007023  0.0004996 -0.0017059
   13   0.0003788  0.0002868 -0.0001039    -0.0005240 -0.0001315  0.0009303
   14   0.0003231  0.0005688 -0.0010965    -0.0005337  0.0017633 -0.0011490
   15   0.0024025 -0.0001438  0.0007392    -0.0025650  0.0011060 -0.0012937
   16   0.0002508  0.0019586  0.0003660     0.0009912  0.0007609 -0.0018686
   17   0.0006790 -0.0004751 -0.0001772     0.0006393  0.0002450  0.0009690
   18   0.0021718 -0.0029888  0.0011079    -0.0003727  0.0028271 -0.0009204
   19   0.0002726 -0.0001157 -0.0000128     0.0004782 -0.0006874 -0.0014859
   20   0.0004169  0.0004182  0.0007983    -0.0011790 -0.0012420  0.0000214
   21   0.0000656 -0.0002441  0.0004878     0.0066791 -0.0025092  0.0006749
   22   0.0003655  0.0018471 -0.0009305     0.0049188 -0.0020967  0.0036514
   23  -0.0001675 -0.0001519 -0.0002902     0.0009729 -0.0007996  0.0006647
   24  -0.0000757  0.0002295  0.0000664     0.0000943 -0.0006575 -0.0003268
   25  -0.0000313 -0.0000388 -0.0000488     0.0000235  0.0001991 -0.0001636
   26  -0.0000312  0.0002095  0.0006309    -0.0002444  0.0011582  0.0006331
   27  -0.0001905  0.0000700  0.0001896    -0.0003486  0.0002440 -0.0003291
   28  -0.0004412 -0.0012238 -0.0022063     0.0002116 -0.0012718  0.0008385
   29  -0.0004169 -0.0015969 -0.0009313    -0.0010439  0.0003184  0.0011370
   30  -0.0024572  0.0002425 -0.0001247     0.0015874  0.0005828  0.0003621

                   MAXIMUM GRADIENT =    0.006720467
                       RMS GRADIENT =    0.001398027
  $VIB   
          IVIB=   0 IATOM=   0 ICOORD=   0 E=     -283.2769765249
  2.024422287E-03 2.075386766E-03 7.455919994E-04-1.774131747E-03-1.039026680E-03
 -1.180960183E-03 5.362005790E-04 7.193045540E-04-1.066701894E-04-9.364716034E-04
 -1.747410336E-03 8.319607936E-05 1.598951524E-05 2.346374530E-04 1.422638178E-04
  1.000546465E-04 3.572508324E-05-6.214234509E-05-1.163772813E-04 9.380452136E-05
 -9.447875681E-05-7.399941109E-04-2.801591530E-04-3.567271287E-04 8.546012642E-05
  1.905130995E-04-5.788737915E-04 5.670893241E-04-1.701459553E-04 2.626735034E-04
-1.597870775E-04 2.460699591E-04 5.051700981E-04
 2.151954419E-03 5.681890029E-04-8.922027437E-04
-3.827806668E-04-5.463701386E-04 5.744264921E-04
 2.194181541E-04-4.650457160E-04 4.162267304E-04
-1.306608624E-03 1.554642781E-03-3.296267649E-04
-1.049741686E-03 2.391913881E-04 1.213436154E-03
-1.867063826E-04-2.071802107E-03-6.484479923E-04
-3.694036595E-03 1.040542024E-03 2.147200473E-03
 2.407137898E-03-5.410818316E-04 1.979433036E-03
-1.839032567E-05-1.901256209E-03 2.855197654E-03
 8.786137029E-04-1.068238463E-03-5.820382923E-04
-3.042594255E-05-7.496691445E-04 7.119214426E-04
-8.223225156E-04 9.992346298E-04-9.288326314E-04
 9.582133766E-04 5.807128154E-04 8.735966804E-04
 7.089863324E-04-4.853932133E-04 1.682098718E-03
 3.095648316E-04-2.252742071E-03 2.903960558E-03
-3.457779827E-03 3.605509072E-04-4.176445321E-04
 3.389457105E-03-1.739428908E-03-3.048875395E-03
-9.660607423E-04 1.378617241E-03 2.689941735E-03
-5.804456310E-04 2.814954483E-04 1.876110343E-03
 3.531707447E-04 6.681522544E-04-1.829574910E-03
-2.554704084E-03 6.720466593E-03-1.228675863E-03
-3.435370776E-04 5.409088302E-04-1.278020918E-05
 7.022973801E-04 4.996413651E-04-1.705898927E-03
 3.788167406E-04 2.867892089E-04-1.038765899E-04
-5.239947101E-04-1.314974252E-04 9.303440176E-04
 3.230821627E-04 5.688250710E-04-1.096507658E-03
-5.336884263E-04 1.763304032E-03-1.148977593E-03
 2.402512926E-03-1.438405819E-04 7.391958860E-04
-2.564983724E-03 1.105976279E-03-1.293742054E-03
 2.508372792E-04 1.958573744E-03 3.660072022E-04
 9.911555168E-04 7.609237998E-04-1.868563431E-03
 6.790497248E-04-4.750782096E-04-1.771615583E-04
 6.392685779E-04 2.450178330E-04 9.689629091E-04
 2.171844250E-03-2.988762604E-03 1.107946024E-03
-3.727300812E-04 2.827068771E-03-9.204209880E-04
 2.725893633E-04-1.157205702E-04-1.280587043E-05
 4.781621810E-04-6.874182531E-04-1.485860031E-03
 4.169450319E-04 4.182084583E-04 7.982654057E-04
-1.178978072E-03-1.241992533E-03 2.139148251E-05
 6.559472324E-05-2.440836883E-04 4.878270536E-04
 6.679078671E-03-2.509218002E-03 6.749236839E-04
 3.655116671E-04 1.847121322E-03-9.304841385E-04
 4.918771699E-03-2.096701279E-03 3.651361016E-03
-1.674823961E-04-1.519475976E-04-2.902278217E-04
 9.728758862E-04-7.995827266E-04 6.646542127E-04
-7.568055455E-05 2.294872600E-04 6.635776345E-05
 9.434435500E-05-6.575315097E-04-3.267937335E-04
-3.130563107E-05-3.883686215E-05-4.877257184E-05
 2.345498271E-05 1.991138690E-04-1.635783522E-04
-3.115521407E-05 2.095390683E-04 6.309229515E-04
-2.443921398E-04 1.158153393E-03 6.331162545E-04
-1.904937009E-04 7.001320777E-05 1.895677747E-04
-3.486132308E-04 2.440069450E-04-3.290890051E-04
-4.411758724E-04-1.223800083E-03-2.206280190E-03
 2.115949842E-04-1.271811332E-03 8.385483206E-04
-4.168561834E-04-1.596925937E-03-9.312940529E-04
-1.043851037E-03 3.183835700E-04 1.137006571E-03
-2.457201819E-03 2.425185926E-04-1.246773582E-04
 1.587421590E-03 5.828365166E-04 3.621191622E-04
  3.003794592E+00 8.671035841E+00-6.523223539E+00

..... END OF SINGLE POINT GRADIENT .....
 STEP CPU TIME =     0.00 TOTAL CPU TIME =       40.0 (    0.7 MIN)
 TOTAL WALL CLOCK TIME=       40.0 SECONDS, CPU UTILIZATION IS  99.95%
              1116951  WORDS OF DYNAMIC MEMORY USED
 EXECUTION OF GAMESS TERMINATED NORMALLY Fri Jun  2 04:29:37 2017
 DDI: 263640 bytes (0.3 MB / 0 MWords) used by master data server.

 ----------------------------------------
 CPU timing information for all processes
 ========================================
 0: 39.912 + 0.103 = 40.16
 ----------------------------------------
 ddikick.x: exited gracefully.
unset echo
----- accounting info -----
Files used on the master node compute-0-1.local were:
-rw-rw-r-- 1 sarom sarom     7084 Jun  2 04:28 /scratch/efp1-glycine.F05
-rw-rw-r-- 1 sarom sarom  2715760 Jun  2 04:29 /scratch/efp1-glycine.F10
-rw-rw-r-- 1 sarom sarom 28353600 Jun  2 04:29 /scratch/efp1-glycine.F25
rm: cannot remove `/scratch/sarom': Is a directory
rm: cannot remove `/scratch/tmp': Is a directory
ls: No match.
ls: No match.
ls: No match.
Fri Jun  2 04:29:40 CDT 2017
0.256u 0.193s 0:43.54 1.0%	0+0k 16+360io 0pf+0w
/opt/gridengine/default/spool/compute-0-1/active_jobs/23954.1/pe_hostfile compute-0-1.local
