----- GAMESS execution script 'rungms' -----
This job is running on host compute-3-0
under operating system Linux at Mon Nov 28 23:32:38 CST 2016
Available scratch disk space (Kbyte units) at beginning of the job is
Filesystem            1K-blocks       Used  Available Use% Mounted on
bolt.local:/export/home/sarom
                     9590469632 1553938432 7549363200  18% /home/sarom
Copying input file h2co-4wat-rmp2.inp to your run's scratch directory...
cp h2co-4wat-rmp2.inp .//h2co-4wat-rmp2.F05
unset echo
/home/sarom/gamessGH/ddikick.x /home/sarom/gamessGH/gamess.00.x h2co-4wat-rmp2 -ddi 1 1 localhost -scr ./

 Distributed Data Interface kickoff program.
 Initiating 1 compute processes on 1 nodes to run the following command:
 /home/sarom/gamessGH/gamess.00.x h2co-4wat-rmp2 

          ******************************************************
          *         GAMESS VERSION = 18 AUG 2016 (R1)          *
          *             FROM IOWA STATE UNIVERSITY             *
          * M.W.SCHMIDT, K.K.BALDRIDGE, J.A.BOATZ, S.T.ELBERT, *
          *   M.S.GORDON, J.H.JENSEN, S.KOSEKI, N.MATSUNAGA,   *
          *          K.A.NGUYEN, S.J.SU, T.L.WINDUS,           *
          *       TOGETHER WITH M.DUPUIS, J.A.MONTGOMERY       *
          *         J.COMPUT.CHEM.  14, 1347-1363(1993)        *
          **************** 64 BIT LINUX VERSION ****************

  SINCE 1993, STUDENTS AND POSTDOCS WORKING AT IOWA STATE UNIVERSITY
  AND ALSO IN THEIR VARIOUS JOBS AFTER LEAVING ISU HAVE MADE IMPORTANT
  CONTRIBUTIONS TO THE CODE:
     IVANA ADAMOVIC, CHRISTINE AIKENS, YURI ALEXEEV, POOJA ARORA,
     ANDREY ASADCHEV, ROB BELL, PRADIPTA BANDYOPADHYAY, JONATHAN BENTZ,
     BRETT BODE, KURT BRORSEN, CALEB CARLIN, GALINA CHABAN, WEI CHEN,
     CHEOL HO CHOI, PAUL DAY, ALBERT DEFUSCO, NUWAN DESILVA, TIM DUDLEY,
     DMITRI FEDOROV, GRAHAM FLETCHER, MARK FREITAG, KURT GLAESEMANN,
     DAN KEMP, GRANT MERRILL, NORIYUKI MINEZAWA, JONATHAN MULLIN,
     TAKESHI NAGATA, SEAN NEDD, HEATHER NETZLOFF, BOSILJKA NJEGIC, RYAN OLSON,
     MIKE PAK, SPENCER PRUITT, LUKE ROSKOP, JIM SHOEMAKER, LYUDMILA SLIPCHENKO,
     TONY SMITH, SAROM SOK LEANG, JIE SONG, TETSUYA TAKETSUGU, SIMON WEBB,
     PENG XU, SOOHAENG YOO, FEDERICO ZAHARIEV

  ADDITIONAL CODE HAS BEEN PROVIDED BY COLLABORATORS IN OTHER GROUPS:
     IOWA STATE UNIVERSITY:
          JOE IVANIC, AARON WEST, LAIMUTIS BYTAUTAS, KLAUS RUEDENBERG
     UNIVERSITY OF TOKYO: KIMIHIKO HIRAO, TAKAHITO NAKAJIMA,
          TAKAO TSUNEDA, MUNEAKI KAMIYA, SUSUMU YANAGISAWA,
          KIYOSHI YAGI, MAHITO CHIBA, SEIKEN TOKURA, NAOAKI KAWAKAMI
     UNIVERSITY OF AARHUS: FRANK JENSEN
     UNIVERSITY OF IOWA: VISVALDAS KAIRYS, HUI LI
     NATIONAL INST. OF STANDARDS AND TECHNOLOGY: WALT STEVENS, DAVID GARMER
     UNIVERSITY OF PISA: BENEDETTA MENNUCCI, JACOPO TOMASI
     UNIVERSITY OF MEMPHIS: HENRY KURTZ, PRAKASHAN KORAMBATH
     UNIVERSITY OF ALBERTA: TOBY ZENG, MARIUSZ KLOBUKOWSKI
     UNIVERSITY OF NEW ENGLAND: MARK SPACKMAN
     MIE UNIVERSITY: HIROAKI UMEDA
     NAT. INST. OF ADVANCED INDUSTRIAL SCIENCE AND TECHNOLOGY: KAZUO KITAURA
     MICHIGAN STATE UNIVERSITY:
          KAROL KOWALSKI, MARTA WLOCH, JEFFREY GOUR, JESSE LUTZ,
          WEI LI, PIOTR PIECUCH
     UNIVERSITY OF SILESIA: MONIKA MUSIAL, STANISLAW KUCHARSKI
     FACULTES UNIVERSITAIRES NOTRE-DAME DE LA PAIX:
          OLIVIER QUINET, BENOIT CHAMPAGNE
     UNIVERSITY OF CALIFORNIA - SANTA BARBARA: BERNARD KIRTMAN
     INSTITUTE FOR MOLECULAR SCIENCE:
          KAZUYA ISHIMURA, MICHIO KATOUDA, AND SHIGERU NAGASE
     UNIVERSITY OF NOTRE DAME: ANNA POMOGAEVA, DAN CHIPMAN
     KYUSHU UNIVERSITY:
          HARUYUKI NAKANO,
          FENG LONG GU, JACEK KORCHOWIEC, MARCIN MAKOWSKI, AND YURIKO AOKI,
          HIROTOSHI MORI AND EISAKU MIYOSHI
     PENNSYLVANIA STATE UNIVERSITY:
          TZVETELIN IORDANOV, CHET SWALINA, JONATHAN SKONE,
          SHARON HAMMES-SCHIFFER
     WASEDA UNIVERSITY:
          MASATO KOBAYASHI, TOMOKO AKAMA, TSUGUKI TOUMA,
          TAKESHI YOSHIKAWA, YASUHIRO IKABATA, JUNJI SEINO,
          YUYA NAKAJIMA, HIROMI NAKAI
     NANJING UNIVERSITY: SHUHUA LI
     UNIVERSITY OF NEBRASKA:
          PEIFENG SU, DEJUN SI, NANDUN THELLAMUREGE, YALI WANG, HUI LI
     UNIVERSITY OF ZURICH: ROBERTO PEVERATI, KIM BALDRIDGE
     N. COPERNICUS UNIVERSITY AND JACKSON STATE UNIVERSITY:
          MARIA BARYSZ
     UNIVERSITY OF COPENHAGEN: Jimmy Kromann, CASPER STEINMANN
     TOKYO INSTITUTE OF TECHNOLOGY: HIROYA NAKATA
     NAGOYA UNIVERSITY: YOSHIO NISHIMOTO, STEPHAN IRLE
     MOSCOW STATE UNIVERSITY: VLADIMIR MIRONOV

 EXECUTION OF GAMESS BEGUN Mon Nov 28 23:32:38 2016

            ECHO OF THE FIRST FEW INPUT CARDS -
 INPUT CARD>!  H2CO(H2O)4...MP2 + EFP gradient test (October 2010)...40 AOs                 
 INPUT CARD>!  starting geometry was fully optimized at SCF level with EFP1=H2Orhf,         
 INPUT CARD>!  taking 61 steps to go from Noriyuki's geometry (see TDDFT test)              
 INPUT CARD>!  to the geometry here, converging crisply at the end (to 1d-5).               
 INPUT CARD>!                                                                               
 INPUT CARD>!  The MP2 optimization goes like this:                                         
 INPUT CARD>!       NSERCH:   0  E=     -114.2462483286  R.M.S.=  0.0127572                 
 INPUT CARD>!       NSERCH:   1  E=     -114.2507281730  R.M.S.=  0.0054639                 
 INPUT CARD>!       NSERCH:   2  E=     -114.2488768236  R.M.S.=  0.0083639                 
 INPUT CARD>!       NSERCH:   3  E=     -114.2527411506  R.M.S.=  0.0027513                 
 INPUT CARD>!       NSERCH:   4  E=     -114.2502239021  R.M.S.=  0.0055172                 
 INPUT CARD>!       NSERCH:   5  E=     -114.2527933877  R.M.S.=  0.0014300                 
 INPUT CARD>!            ...snip...                                                         
 INPUT CARD>!       NSERCH:  26  E=     -114.2533870428  R.M.S.=  0.0000383                 
 INPUT CARD>!       NSERCH:  27  E=     -114.2533873179  R.M.S.=  0.0000305                 
 INPUT CARD>!       NSERCH:  28  E=     -114.2533873855  R.M.S.=  0.0000243                 
 INPUT CARD>!       NSERCH:  29  E=     -114.2533874234  R.M.S.=  0.0000357                 
 INPUT CARD>!       NSERCH:  30  E=     -114.2533874759  R.M.S.=  0.0000134                 
 INPUT CARD>!                                                                               
 INPUT CARD>!  This run takes 106 seconds on 2.66 GHz Cloverton (26 Oct 2015)               
 INPUT CARD>!                                                                               
 INPUT CARD> $CONTRL SCFTYP=RHF mplevl=2 RUNTYP=optimize ispher=1 $END                      
 INPUT CARD> $SYSTEM MWORDS=5 memddi=5 $END                                                 
 INPUT CARD> $mp2    code=ims $end                                                          
 INPUT CARD> $GUESS  GUESS=HUCKEL $END                                                      
 INPUT CARD> $BASIS  GBASIS=ccd $END                                                        
 INPUT CARD> $STATPT OPTTOL=5.0E-05 nstep=100 $END                                          
 INPUT CARD>                                                                                
 INPUT CARD> $data                                                                          
 INPUT CARD>H2CO+4EFP...MP2/cc-pVDZ geometry search                                         
 INPUT CARD>C1                                                                              
 INPUT CARD>O  8.0   2.0135521826  -1.2246628086  -1.1649715519                             
 INPUT CARD>C  6.0   1.7991544587  -1.0155130064  -0.0149773800                             
 INPUT CARD>H  1.0   0.8093469817  -1.1647256484   0.4336855893                             
 INPUT CARD>H  1.0   2.5889154879  -0.6630554233   0.6632383528                             
 INPUT CARD> $END                                                                           
 INPUT CARD> $efrag                                                                         
 INPUT CARD>                                                                                
 INPUT CARD>fragname=H2Odft                                                                 
 INPUT CARD>O1              -0.2643367574  -1.1267275101  -3.0326716318                     
 INPUT CARD>H2               0.5336854024  -1.3072046018  -2.5620687142                     
 INPUT CARD>H3              -0.0255033453  -1.0151523196  -3.9389762341                     
 INPUT CARD>fragname=H2Odft                                                                 
 INPUT CARD>O1              -1.4859045857   0.8371332265  -1.2586872987                     
 INPUT CARD>H2              -1.9059210520   0.3199625550  -0.5901073718                     
 INPUT CARD>H3              -1.2353132605   0.2404791471  -1.9457727020                     
 INPUT CARD>fragname=H2Odft                                                                 
 INPUT CARD>O1              -1.5439651677  -0.1128993593   1.5907313090                     
 INPUT CARD>H2              -2.0896782978  -0.0085801635   2.3537471274                     
 INPUT CARD>H3              -0.9114990598   0.5874029067   1.6117506498                     
    5000000 WORDS OF MEMORY AVAILABLE

     BASIS OPTIONS
     -------------
     GBASIS=CCD          IGAUSS=       0      POLAR=NONE    
     NDFUNC=       0     NFFUNC=       0     DIFFSP=       F
     NPFUNC=       0      DIFFS=       F     BASNAM=        


     RUN TITLE
     ---------
 H2CO+4EFP...MP2/cc-pVDZ geometry search                                         

 THE POINT GROUP OF THE MOLECULE IS C1      
 THE ORDER OF THE PRINCIPAL AXIS IS     0

 ATOM      ATOMIC                      COORDINATES (BOHR)
           CHARGE         X                   Y                   Z
 O           8.0     3.8050618871       -2.3142771356       -2.2014770166
 C           6.0     3.3999089365       -1.9190413191       -0.0283031442
 H           1.0     1.5294440244       -2.2010123263        0.8195469286
 H           1.0     4.8923408775       -1.2529930647        1.2533387513

          INTERNUCLEAR DISTANCES (ANGS.)
          ------------------------------

                1 O          2 C          3 H          4 H     

   1 O       0.0000000    1.1883588 *  2.0023504 *  1.9971973 *
   2 C       1.1883588 *  0.0000000    1.0969420 *  1.0990566 *
   3 H       2.0023504 *  1.0969420 *  0.0000000    1.8631241 *
   4 H       1.9971973 *  1.0990566 *  1.8631241 *  0.0000000  

  * ... LESS THAN  3.000


     ATOMIC BASIS SET
     ----------------
 THE CONTRACTED PRIMITIVE FUNCTIONS HAVE BEEN UNNORMALIZED
 THE CONTRACTED BASIS FUNCTIONS ARE NOW NORMALIZED TO UNITY

  SHELL TYPE  PRIMITIVE        EXPONENT          CONTRACTION COEFFICIENT(S)

 O         

      1   S       1         11720.0000000    0.000709645947
      1   S       2          1759.0000000    0.005467272292
      1   S       3           400.8000000    0.027823118610
      1   S       4           113.7000000    0.104747739711
      1   S       5            37.0300000    0.282920846357
      1   S       6            13.2700000    0.448495238698
      1   S       7             5.0250000    0.270816885213
      1   S       8             1.0130000    0.015450291607

      2   S       9         11720.0000000   -0.000314443412
      2   S      10          1759.0000000   -0.002482137681
      2   S      11           400.8000000   -0.012316355382
      2   S      12           113.7000000   -0.050538917344
      2   S      13            37.0300000   -0.139384903316
      2   S      14            13.2700000   -0.325077494818
      2   S      15             5.0250000   -0.229848307588
      2   S      16             1.0130000    1.095379346788

      3   S      17             0.3023000    1.000000000000

      4   P      18            17.7000000    0.062679166282
      4   P      19             3.8540000    0.333536565879
      4   P      20             1.0460000    0.741239641640

      5   P      21             0.2753000    1.000000000000

      6   D      22             1.1850000    1.000000000000

 C         

      7   S      23          6665.0000000    0.000691583963
      7   S      24          1000.0000000    0.005325796153
      7   S      25           228.0000000    0.027060721042
      7   S      26            64.7100000    0.101656846141
      7   S      27            21.0600000    0.274574823617
      7   S      28             7.4950000    0.448294318924
      7   S      29             2.7970000    0.284902610715
      7   S      30             0.5215000    0.015194859206

      8   S      31          6665.0000000   -0.000293269653
      8   S      32          1000.0000000   -0.002318035474
      8   S      33           228.0000000   -0.011499786039
      8   S      34            64.7100000   -0.046826727010
      8   S      35            21.0600000   -0.128466168750
      8   S      36             7.4950000   -0.301266272463
      8   S      37             2.7970000   -0.255630702330
      8   S      38             0.5215000    1.093793361012

      9   S      39             0.1596000    1.000000000000

     10   P      40             9.4390000    0.056979251590
     10   P      41             2.0020000    0.313207211501
     10   P      42             0.5456000    0.760376741738

     11   P      43             0.1517000    1.000000000000

     12   D      44             0.5500000    1.000000000000

 H         

     13   S      45            13.0100000    0.033498726390
     13   S      46             1.9620000    0.234800801174
     13   S      47             0.4446000    0.813682957883

     14   S      48             0.1220000    1.000000000000

     15   P      49             0.7270000    1.000000000000

 H         

     16   S      50            13.0100000    0.033498726390
     16   S      51             1.9620000    0.234800801174
     16   S      52             0.4446000    0.813682957883

     17   S      53             0.1220000    1.000000000000

     18   P      54             0.7270000    1.000000000000

 TOTAL NUMBER OF BASIS SET SHELLS             =   18
 NUMBER OF CARTESIAN GAUSSIAN BASIS FUNCTIONS =   40
 NOTE: THIS RUN WILL RESTRICT THE MO VARIATION SPACE TO SPHERICAL HARMONICS.
 THE NUMBER OF ORBITALS KEPT IN THE VARIATIONAL SPACE WILL BE PRINTED LATER.
 NUMBER OF ELECTRONS                          =   16
 CHARGE OF MOLECULE                           =    0
 SPIN MULTIPLICITY                            =    1
 NUMBER OF OCCUPIED ORBITALS (ALPHA)          =    8
 NUMBER OF OCCUPIED ORBITALS (BETA )          =    8
 TOTAL NUMBER OF ATOMS                        =    4
 THE NUCLEAR REPULSION ENERGY IS       31.6757411038

     $CONTRL OPTIONS
     ---------------
 SCFTYP=RHF          RUNTYP=OPTIMIZE     EXETYP=RUN     
 MPLEVL=       2     CITYP =NONE         CCTYP =NONE         VBTYP =NONE    
 DFTTYP=NONE         TDDFT =NONE    
 MULT  =       1     ICHARG=       0     NZVAR =       0     COORD =UNIQUE  
 PP    =NONE         RELWFN=NONE         LOCAL =NONE         NUMGRD=       F
 ISPHER=       1     NOSYM =       0     MAXIT =      30     UNITS =ANGS    
 PLTORB=       F     MOLPLT=       F     AIMPAC=       F     FRIEND=        
 NPRINT=       7     IREST =       0     GEOM  =INPUT   
 NORMF =       0     NORMP =       0     ITOL  =      20     ICUT  =       9
 INTTYP=BEST         GRDTYP=BEST         QMTTOL= 1.0E-06

     $SYSTEM OPTIONS
     ---------------
  REPLICATED MEMORY=     5000000 WORDS (ON EVERY NODE).
 DISTRIBUTED MEMDDI=           5 MILLION WORDS IN AGGREGATE,
 MEMDDI DISTRIBUTED OVER   1 PROCESSORS IS     5000000 WORDS/PROCESSOR.
 TOTAL MEMORY REQUESTED ON EACH PROCESSOR=    10000000 WORDS.
 TIMLIM=      525600.00 MINUTES, OR     365.0 DAYS.
 PARALL= F  BALTYP=  DLB     KDIAG=    0  COREFL= F
 MXSEQ2=     300 MXSEQ3=     150  mem10=         0

 READING $EFRAG GROUP
 COORD=CART      POSITION=OPTIMIZE  POLMETHD=FRGSCF   NBUFFMO=0
 READING COORDINATES OF FRAGMENT   1 NAMED   H2ODFT
 READING COORDINATES OF FRAGMENT   2 NAMED   H2ODFT
 READING COORDINATES OF FRAGMENT   3 NAMED   H2ODFT
 READING COORDINATES OF FRAGMENT   4 NAMED   H2ODFT
 FINISHED READING $EFRAG GROUP,   4 FRAGMENTS WILL BE USED.



     SUMMARY OF THE EFFECTIVE FRAGMENT POTENTIAL MODEL CHOSEN
     --------------------------------------------------------
 TOTAL NUMBER OF MULTIPOLE POINTS   =        20  (EFP1/EFP2 ELECTROSTATICS)
 TOTAL NUMBER OF POLARIZABLE POINTS =        20  (EFP1/EFP2 INDUCTION)
 TOTAL NUMBER OF L-J POINTS         =         0  (REPULSION AND DISPERSION)
 TOTAL NUMBER OF REPULSIVE POINTS   =        12  (EFP1 REPULSION/ETC.)

 THIS IS A -EFP1- TYPE RUN, WITH PAULI REPULSION, CHARGE TRANSFER, AND
 HIGHER ORDER EFFECTS COLLECTED IN A FITTED REPULSIVE POTENTIAL.

 OPTIONS FOR EFP SCREENING:
     ELECTROSTATIC AB INITIO-EFP GAUSSIAN SCREENING IS ON
     ELECTROSTATIC EFP-EFP SCREENING CHOICE IS EXPONENTIAL, FOR CHARGE/CHARGE
     POLARIZATION EFP-EFP SCREENING IS OFF

     $EWALD OPTIONS
     -----------

     IFEWLD   =        F         TINFOIL        =        T
     BETA    =    0.200         ELECTRIC CONST =     1.00
     EPSILON =     1.00         CUT_OFF        = 0.10E+04
     CUTLIST =  1000.00         LEVEL          =    1
     KMAX    =       10         EWLDPL         =        F

            MULTIPOLE COORDINATES, ELECTRONIC AND NUCLEAR CHARGES

                  X              Y              Z           ELEC.   NUC.
 O1        -0.4995240400  -2.1292062569  -5.7309183948   -8.22458    8.0
 H2         1.0085191741  -2.4702585073  -4.8416078316   -0.57906    1.0
 H3        -0.0481943346  -1.9183597198  -7.4435857547   -0.57906    1.0
 B12        0.2544971070  -2.2997323515  -5.2862629199   -0.30866    0.0
 B13       -0.2738596474  -2.0237829578  -6.5872518814   -0.30866    0.0
 O1        -2.8079525109   1.5819524133  -2.3785740988   -8.22458    8.0
 H2        -3.6016685425   0.6046415553  -1.1151412360   -0.57906    1.0
 H3        -2.3344035714   0.4544396938  -3.6769772411   -0.57906    1.0
 B12       -3.2048104515   1.0932974785  -1.7468576592   -0.30866    0.0
 B13       -2.5711779659   1.0181965478  -3.0277756617   -0.30866    0.0
 O1        -2.9176711015  -0.2133488533   3.0060462941   -8.22458    8.0
 H2        -3.9489193853  -0.0162141579   4.4479371151   -0.57906    1.0
 H3        -1.7224834611   1.1100305380   3.0457670886   -0.57906    1.0
 B12       -3.4332952819  -0.1147818626   3.7269913567   -0.30866    0.0
 B13       -2.3200773198   0.4483404853   3.0259063435   -0.30866    0.0
 O1         0.7825450314   3.3314189465   1.0619249541   -8.22458    8.0
 H2         1.2273899706   5.0571609208   1.1348075250   -0.57906    1.0
 H3        -0.2047235707   3.1181472608  -0.4081771329   -0.57906    1.0
 B12        1.0049676283   4.1942895785   1.0983665676   -0.30866    0.0
 B13        0.2889108577   3.2247827485   0.3268742387   -0.30866    0.0

   CHARGE SCREENING PARAMETERS (COEF AND ZETA)
   ICHGP=   5 AI-FRAGMENT SCREENING= 1   FRAGMENT-FRAGMENT SCREENING= 2

             GAUSSIAN DAMPING    EXPONENTIAL DAMPING
 O1         0.18612   0.54910      1.00000   1.96018
 H2         0.11218   0.38954      1.00000   2.38351
 H3         0.11218   0.38954      1.00000   2.38351
 B12       -0.71758   0.96214      1.00000   9.99991
 B13       -0.71758   0.96214      1.00000   9.99991
 O1         0.18612   0.54910      1.00000   1.96018
 H2         0.11218   0.38954      1.00000   2.38351
 H3         0.11218   0.38954      1.00000   2.38351
 B12       -0.71758   0.96214      1.00000   9.99991
 B13       -0.71758   0.96214      1.00000   9.99991
 O1         0.18612   0.54910      1.00000   1.96018
 H2         0.11218   0.38954      1.00000   2.38351
 H3         0.11218   0.38954      1.00000   2.38351
 B12       -0.71758   0.96214      1.00000   9.99991
 B13       -0.71758   0.96214      1.00000   9.99991
 O1         0.18612   0.54910      1.00000   1.96018
 H2         0.11218   0.38954      1.00000   2.38351
 H3         0.11218   0.38954      1.00000   2.38351
 B12       -0.71758   0.96214      1.00000   9.99991
 B13       -0.71758   0.96214      1.00000   9.99991

   SCREENING FOR POLARIZATION WITH EXPONENTIAL FORMULA  OFF

   SCREENING FOR POLARIZATION WITH TANG-TOENNIS FORMULA  OFF

                  DIPOLE MOMENTS AND THE SECOND MOMENT TENSOR

                  X        Y        Z           XX/XY    YY/XZ    ZZ/YZ
 O1            0.40430 -0.02687 -0.16989     -3.96604 -4.49118 -3.64061
                                             -0.09859  0.14978 -0.16050
 H2            0.03479 -0.00989  0.03330     -0.30070 -0.31308 -0.30955
                                             -0.00220  0.00313 -0.00105
 H3            0.00154  0.00748 -0.04857     -0.30825 -0.31334 -0.30174
                                              0.00002 -0.00458 -0.00126
 B12          -0.16276  0.03626 -0.09253     -0.09789 -0.12903 -0.10696
                                             -0.00612  0.01113 -0.00523
 B13          -0.05110 -0.02205  0.18240     -0.11374 -0.12958 -0.09055
                                             -0.00145 -0.00506 -0.00567
 O1           -0.06606 -0.43431 -0.00722     -4.32530 -4.03132 -3.74121
                                              0.05253 -0.38870  0.05445
 H2           -0.02291 -0.01715  0.03998     -0.31104 -0.30487 -0.30741
                                              0.00361 -0.00379 -0.00440
 H3            0.01697 -0.02188 -0.04063     -0.31252 -0.30372 -0.30709
                                             -0.00117 -0.00238  0.00544
 B12           0.08442  0.10693 -0.13344     -0.12185 -0.10850 -0.10352
                                              0.00776 -0.01502 -0.00833
 B13          -0.04948  0.12280  0.13725     -0.12496 -0.10608 -0.10284
                                             -0.00227 -0.01205  0.01233
 O1            0.03383  0.31375  0.30572     -3.93125 -4.11866 -4.04793
                                              0.32908 -0.34781  0.06235
 H2           -0.03351 -0.00362  0.03580     -0.30940 -0.31063 -0.30330
                                             -0.00033 -0.00528  0.00360
 H3            0.03655  0.03182 -0.00832     -0.30807 -0.30439 -0.31087
                                              0.00617  0.00031  0.00275
 B12           0.10868 -0.02348 -0.15493     -0.11117 -0.11976 -0.10294
                                              0.00498 -0.01767  0.00611
 B13          -0.12657 -0.14248 -0.00678     -0.10837 -0.10665 -0.11885
                                              0.01864 -0.00592  0.00434
 O1           -0.11192  0.31209 -0.28830     -4.25040 -3.82214 -4.02529
                                              0.24176  0.35021  0.12295
 H2            0.01750  0.04453  0.01132     -0.31238 -0.29983 -0.31112
                                              0.00197  0.00111 -0.00188
 H3           -0.02756 -0.01648 -0.03723     -0.30954 -0.31052 -0.30326
                                             -0.00006  0.00628 -0.00119
 B12          -0.04606 -0.18498 -0.00527     -0.12351 -0.09167 -0.11869
                                              0.00945  0.00780  0.00070
 B13           0.10526  0.01990  0.15777     -0.11756 -0.11413 -0.10218
                                              0.00518  0.01867  0.00214

                  THE THIRD MOMENT TENSOR

               XXX/XYY  YYY/YYZ  ZZZ/XZZ  XXY/YZZ  XXZ/XYZ
 O1            0.97148 -0.06578 -0.37248 -0.01511 -0.16358
               0.32955 -0.13966  0.30703 -0.02597  0.00711
 H2            0.02358 -0.01147  0.03955 -0.00117  0.00816
               0.01165  0.01382  0.00829 -0.00288  0.00142
 H3           -0.00492  0.00936 -0.03971  0.00297 -0.01658
              -0.00121 -0.01855 -0.00573  0.00109  0.00042
 B12          -0.48177  0.10961 -0.29715  0.03660 -0.09746
              -0.16115 -0.09575 -0.15901  0.03790 -0.00008
 B13          -0.13531 -0.06799  0.55304 -0.02423  0.18644
              -0.04753  0.18363 -0.04505 -0.02347 -0.00085
 O1           -0.15836 -1.06131 -0.01590 -0.34725 -0.01137
              -0.05527 -0.00143 -0.04913 -0.31886 -0.01811
 H2           -0.02515 -0.00997  0.04150 -0.00294  0.01349
              -0.00598  0.01186 -0.00467 -0.00016 -0.00312
 H3            0.02097 -0.01393 -0.04156 -0.00612 -0.01527
               0.00532 -0.01059  0.00433 -0.00089 -0.00211
 B12           0.25538  0.30768 -0.41166  0.10377 -0.13634
               0.08581 -0.13864  0.08715  0.10090  0.00117
 B13          -0.15360  0.35695  0.42256  0.11920  0.14093
              -0.05268  0.14153 -0.05379  0.11779  0.00166
 O1            0.07665  0.75374  0.72622  0.23474  0.23365
               0.00633  0.25608  0.05157  0.25940  0.00321
 H2           -0.03711 -0.00896  0.02853 -0.00326  0.00806
              -0.01324  0.01212 -0.00666 -0.00501  0.00094
 H3            0.03798  0.02580 -0.01434  0.00525 -0.00469
               0.00756 -0.00574  0.01413  0.01075 -0.00039
 B12           0.33573 -0.05698 -0.46223 -0.01696 -0.15471
               0.11468 -0.15326  0.11124 -0.01975  0.00002
 B13          -0.38716 -0.42383 -0.00513 -0.14168 -0.00063
              -0.12849 -0.00275 -0.13216 -0.13997 -0.00021
 O1           -0.26627  0.71928 -0.68042  0.25539 -0.22195
              -0.10804 -0.24433 -0.07086  0.26661  0.00498
 H2            0.02224  0.03189  0.01758  0.01533  0.00565
               0.00349  0.00591  0.00742  0.01581 -0.00046
 H3           -0.02861 -0.02395 -0.03003 -0.00741 -0.00890
              -0.00998 -0.01278 -0.00332 -0.00723  0.00072
 B12          -0.14547 -0.55401 -0.03126 -0.18517 -0.01109
              -0.04875 -0.00956 -0.05221 -0.18495 -0.00054
 B13           0.31751  0.08050  0.47159  0.02428  0.15753
               0.10813  0.15715  0.10590  0.02442  0.00073

                  POLARIZABLE POINTS AND THE POLARIZABILITY TENSOR

              X       Y       Z       XX/YZ    YY/YX    ZZ/ZX    XY/ZY     XZ
 LMO1     -0.4991 -2.1292 -5.7311   0.00289  0.00449  0.00309  0.00020  0.00013
                                    0.00021  0.00020  0.00013  0.00021
 LMO2     -0.2182 -2.0187 -6.6664   0.85544  0.85873  2.78651  0.06420 -0.42304
                                   -0.25235  0.12297 -0.79465 -0.20296
 LMO3      0.3488 -2.3148 -5.2702   2.38326  0.91176  1.20565 -0.32677  0.76535
                                   -0.16030 -0.38554  1.13696 -0.20969
 LMO4     -0.8260 -2.5938 -5.6968   1.32555  0.71488  1.39831 -0.00687  0.07731
                                   -0.42332  0.62211  0.21072 -0.16787
 LMO5     -0.6979 -1.6298 -5.5444   1.11716  0.81908  1.50251 -0.15496  0.13053
                                    0.16981 -0.78394 -0.00288 -0.08563
 LMO1     -2.8080  1.5815 -2.3786   0.00423  0.00286  0.00339 -0.00022  0.00057
                                   -0.00010 -0.00022  0.00057 -0.00010
 LMO2     -2.5602  0.9349 -3.0760   0.95158  1.65981  1.88928 -0.49018 -0.38699
                                    0.89955 -0.32110 -0.33316  1.23497
 LMO3     -3.2403  1.0155 -1.7013   1.25097  1.42652  1.82318  0.64528 -0.61943
                                   -0.75644  0.47621 -0.67326 -1.09185
 LMO4     -3.2001  1.9337 -2.5932   0.78423  1.29699  1.35753 -0.63222 -0.32665
                                    0.00664 -0.01294 -0.36296 -0.29969
 LMO5     -2.3300  1.7941 -2.1546   1.01548  1.05300  1.37026  0.72866 -0.29204
                                    0.08146  0.10938 -0.25574  0.38780
 LMO1     -2.9176 -0.2131  3.0063   0.00366  0.00345  0.00337 -0.00054  0.00046
                                   -0.00058 -0.00054  0.00046 -0.00058
 LMO2     -2.2731  0.5271  3.0569   1.74517  2.03193  0.72357  1.18790  0.22901
                                    0.14544  0.98861  0.00930 -0.09121
 LMO3     -3.4678 -0.0772  3.8093   1.47583  0.76829  2.25655 -0.32854 -1.12295
                                    0.07975 -0.12925 -0.90325  0.31640
 LMO4     -2.6327 -0.7020  3.0661   1.17108  1.44504  0.82263 -0.07945 -0.61706
                                    0.35224  0.25950 -0.34481 -0.18596
 LMO5     -3.2466 -0.1321  2.5491   1.25462  0.72565  1.45847  0.60815  0.06789
                                   -0.21018  0.26920 -0.20436  0.32802
 LMO1      0.7824  3.3317  1.0617   0.00408  0.00301  0.00339 -0.00018 -0.00068
                                    0.00028 -0.00018 -0.00068  0.00028
 LMO2      0.2419  3.2472  0.2452   1.48759  0.70173  2.31136 -0.00425  1.02400
                                    0.35561  0.19611  0.95153  0.04161
 LMO3      1.0104  4.2876  1.0731   0.91437  2.86578  0.72052  0.60722 -0.09553
                                   -0.09693  0.40686 -0.02306  0.21706
 LMO4      1.2625  3.0348  0.9892   1.14469  1.43921  0.85485 -0.27865  0.69805
                                    0.01334  0.09434  0.22933  0.35953
 LMO5      0.4479  3.2228  1.5089   0.77792  1.20315  1.45768  0.64801 -0.12604
                                    0.14228  0.27502  0.34268 -0.20390

                    --------------                     ------------------
                      REP POINTS                         REP PARAMETERS  
                    --------------                     ------------------

                X         Y         Z               COEF       N          ZETA

  O1        -0.49952  -2.12921  -5.73092        -0.00125       0       0.07615
                                                17.16050       0       1.00000
  H2         1.00852  -2.47026  -4.84161        -0.00025       0       0.09500
                                                 0.10634       0       0.60000
  H3        -0.04819  -1.91836  -7.44359        -0.00025       0       0.09500
                                                 0.10634       0       0.60000
  O1        -2.80795   1.58195  -2.37857        -0.00125       0       0.07615
                                                17.16050       0       1.00000
  H2        -3.60167   0.60464  -1.11514        -0.00025       0       0.09500
                                                 0.10634       0       0.60000
  H3        -2.33440   0.45444  -3.67698        -0.00025       0       0.09500
                                                 0.10634       0       0.60000
  O1        -2.91767  -0.21335   3.00605        -0.00125       0       0.07615
                                                17.16050       0       1.00000
  H2        -3.94892  -0.01621   4.44794        -0.00025       0       0.09500
                                                 0.10634       0       0.60000
  H3        -1.72248   1.11003   3.04577        -0.00025       0       0.09500
                                                 0.10634       0       0.60000
  O1         0.78255   3.33142   1.06192        -0.00125       0       0.07615
                                                17.16050       0       1.00000
  H2         1.22739   5.05716   1.13481        -0.00025       0       0.09500
                                                 0.10634       0       0.60000
  H3        -0.20472   3.11815  -0.40818        -0.00025       0       0.09500
                                                 0.10634       0       0.60000

 THERE ARE   1 FRAGMENT TYPES, AND   1 FRAGMENT-FRAGMENT INTERACTIONS.

 REPULSIVE FIT FOR FRAGMENT PAIR H2ODFT-H2ODFT (COEF,EXPONENT)
 O1      -O1         -47.20425500    1.50233300
 O1      -H2          44.18476900    2.73135500
 O1      -H3          44.18476900    2.73135500
 O1      -CENTER      31.73261600    1.51840900
 H2      -O1          44.18476900    2.73135500
 H2      -H2           0.12069900    1.31532100
 H2      -H3           0.12069900    1.31532100
 H2      -CENTER      -0.06170800    0.80230100
 H3      -O1          44.18476900    2.73135500
 H3      -H2           0.12069900    1.31532100
 H3      -H3           0.12069900    1.31532100
 H3      -CENTER      -0.06170800    0.80230100
 CENTER  -O1          31.73261600    1.51840900
 CENTER  -H2          -0.06170800    0.80230100
 CENTER  -H3          -0.06170800    0.80230100
 CENTER  -CENTER     146.76346400    2.08394700

          ----------------
          PROPERTIES INPUT
          ----------------

     MOMENTS            FIELD           POTENTIAL          DENSITY
 IEMOM =       1   IEFLD =       0   IEPOT =       0   IEDEN =       0
 WHERE =COMASS     WHERE =NUCLEI     WHERE =NUCLEI     WHERE =NUCLEI  
 OUTPUT=BOTH       OUTPUT=BOTH       OUTPUT=BOTH       OUTPUT=BOTH    
 IEMINT=       0   IEFINT=       0                     IEDINT=       0
                                                       MORB  =       0
          EXTRAPOLATION IN EFFECT
          SOSCF IN EFFECT
 ORBITAL PRINTING OPTION: NPREO=     1    40     2     1

     -------------------------------
     INTEGRAL TRANSFORMATION OPTIONS
     -------------------------------
     NWORD  =            0
     CUTOFF = 1.0E-09     MPTRAN =       0
     DIRTRF =       F     AOINTS =DUP     

          ----------------------
          INTEGRAL INPUT OPTIONS
          ----------------------
 NOPK  =       1 NORDER=       0 SCHWRZ=       F

          -----------------------
          MP2 CONTROL INFORMATION
          -----------------------
          NACORE =        2  NBCORE =        2
          LMOMP2 =        F  AOINTS = DUP     
          METHOD =        2  NWORD  =               0
          MP2PRP =        F  OSPT   = NONE    
          CUTOFF = 1.00E-09  CPHFBS = BASISAO 
          CODE   = IMS     

          NUMBER OF CORE -A-  ORBITALS =     2
          NUMBER OF CORE -B-  ORBITALS =     2
          NUMBER OF OCC. -A-  ORBITALS =     8
          NUMBER OF OCC. -B-  ORBITALS =     8
          NUMBER OF MOLECULAR ORBITALS =    40
          NUMBER OF   BASIS  FUNCTIONS =    40


     ------------------------------------------
     THE POINT GROUP IS C1 , NAXIS= 0, ORDER= 1
     ------------------------------------------

 -- VARIATIONAL SPACE WILL BE RESTRICTED TO PURE SPHERICAL HARMONICS ONLY --
 AFTER EXCLUDING CONTAMINANT COMBINATIONS FROM THE CARTESIAN GAUSSIAN BASIS
 SET, THE NUMBER OF SPHERICAL HARMONICS KEPT IN THE VARIATION SPACE IS   38

     DIMENSIONS OF THE SYMMETRY SUBSPACES ARE
 A   =   38

 ..... DONE SETTING UP THE RUN .....
 STEP CPU TIME =     0.03 TOTAL CPU TIME =        0.0 (    0.0 MIN)
 TOTAL WALL CLOCK TIME=        0.0 SECONDS, CPU UTILIZATION IS 100.00%


          -----------------------------
          STATIONARY POINT LOCATION RUN
          -----------------------------

 OBTAINING INITIAL HESSIAN, HESS=GUESS   
 CARTESIAN COORDINATE OPTIMIZATION USING BADGER'S RULE FORCE CONSTANT GUESS
 DIAGONAL GUESS HESSIAN FOR FRAGMENTS(TRANS)=  0.0300
 DIAGONAL GUESS HESSIAN FOR FRAGMENTS(ROT)  =  0.0100

          PARAMETERS CONTROLLING GEOMETRY SEARCH ARE
          METHOD =QA                  UPHESS =BFGS    
          NNEG   =         0          NFRZ   =         0
          NSTEP  =       100          IFOLOW =         1
          HESS   =GUESS               RESTAR =         F
          IHREP  =         0          HSSEND =         F
          NPRT   =         0          NPUN   =         0
          OPTTOL = 5.000E-05          RMIN   = 1.500E-03
          RMAX   = 1.000E-01          RLIM   = 7.000E-02
          DXMAX  = 3.000E-01          PURIFY =         F
          MOVIE  =         F          TRUPD  =         T
          TRMAX  = 5.000E-01          TRMIN  = 5.000E-02
          ITBMAT =         5          STPT   =         F
          STSTEP = 1.000E-02          PROJCT=          T

 BEGINNING GEOMETRY SEARCH POINT NSERCH=   0 ...

 COORDINATES OF ALL ATOMS ARE (ANGS)
   ATOM   CHARGE       X              Y              Z
 ------------------------------------------------------------
 O           8.0   2.0135521826  -1.2246628086  -1.1649715519
 C           6.0   1.7991544587  -1.0155130064  -0.0149773800
 H           1.0   0.8093469817  -1.1647256484   0.4336855893
 H           1.0   2.5889154879  -0.6630554233   0.6632383528
 COORDINATES OF FRAGMENT MULTIPOLE CENTERS (ANGS)
 MULTIPOLE NAME        X              Y              Z
 ------------------------------------------------------------
 FRAGNAME=H2ODFT
 O1               -0.2643367574  -1.1267275101  -3.0326716318
 H2                0.5336854023  -1.3072046018  -2.5620687142
 H3               -0.0255033454  -1.0151523196  -3.9389762341
 FRAGNAME=H2ODFT
 O1               -1.4859045857   0.8371332265  -1.2586872987
 H2               -1.9059210520   0.3199625550  -0.5901073718
 H3               -1.2353132605   0.2404791471  -1.9457727020
 FRAGNAME=H2ODFT
 O1               -1.5439651677  -0.1128993593   1.5907313090
 H2               -2.0896782978  -0.0085801635   2.3537471274
 H3               -0.9114990598   0.5874029067   1.6117506498
 FRAGNAME=H2ODFT
 O1                0.4141050271   1.7629111142   0.5619465261
 H2                0.6495068484   2.6761345050   0.6005143245
 H3               -0.1083350560   1.6500525902  -0.2159980524

          ********************
          1 ELECTRON INTEGRALS
          ********************
 TIME TO DO ORDINARY INTEGRALS=      0.00
 TIME TO DO FRAGMENT INTEGRALS=      0.07
 ...... END OF ONE-ELECTRON INTEGRALS ......
 STEP CPU TIME =     0.07 TOTAL CPU TIME =        0.1 (    0.0 MIN)
 TOTAL WALL CLOCK TIME=        0.1 SECONDS, CPU UTILIZATION IS  90.91%

          -------------
          GUESS OPTIONS
          -------------
          GUESS =HUCKEL            NORB  =       0          NORDER=       0
          MIX   =       F          PRTMO =       F          PUNMO =       F
          TOLZ  = 1.0E-08          TOLE  = 1.0E-05
          SYMDEN=       F          PURIFY=       F

 INITIAL GUESS ORBITALS GENERATED BY HUCKEL   ROUTINE.
 HUCKEL GUESS REQUIRES     15348 WORDS.

 STATISTICS FOR GENERATION OF SYMMETRY ORBITAL -Q- MATRIX
 NUMBER OF CARTESIAN ATOMIC ORBITALS=         40
 NUMBER OF SPHERICAL CONTAMINANTS DROPPED=     2
 NUMBER OF LINEARLY DEPENDENT MOS DROPPED=     0
 TOTAL NUMBER OF MOS IN VARIATION SPACE=      38

 SYMMETRIES FOR INITIAL GUESS ORBITALS FOLLOW.   BOTH SET(S).
     8 ORBITALS ARE OCCUPIED (    2 CORE ORBITALS).
     3=A        4=A        5=A        6=A        7=A        8=A        9=A   
    10=A       11=A       12=A       13=A       14=A       15=A       16=A   
    17=A       18=A   
 ...... END OF INITIAL ORBITAL SELECTION ......
 STEP CPU TIME =     0.00 TOTAL CPU TIME =        0.1 (    0.0 MIN)
 TOTAL WALL CLOCK TIME=        0.1 SECONDS, CPU UTILIZATION IS  90.91%

                    ----------------------
                    AO INTEGRAL TECHNOLOGY
                    ----------------------
     S,P,L SHELL ROTATED AXIS INTEGRALS, REPROGRAMMED BY
        KAZUYA ISHIMURA (IMS) AND JOSE SIERRA (SYNSTAR).
     S,P,D,L SHELL ROTATED AXIS INTEGRALS PROGRAMMED BY
        KAZUYA ISHIMURA (INSTITUTE FOR MOLECULAR SCIENCE).
     S,P,D,F,G SHELL TO TOTAL QUARTET ANGULAR MOMENTUM SUM 5,
        ERIC PROGRAM BY GRAHAM FLETCHER (ELORET AND NASA ADVANCED
        SUPERCOMPUTING DIVISION, AMES RESEARCH CENTER).
     S,P,D,F,G,L SHELL GENERAL RYS QUADRATURE PROGRAMMED BY
        MICHEL DUPUIS (PACIFIC NORTHWEST NATIONAL LABORATORY).

          --------------------
          2 ELECTRON INTEGRALS
          --------------------

 THE -PK- OPTION IS OFF, THE INTEGRALS ARE NOT IN SUPERMATRIX FORM.
 STORING   15000 INTEGRALS/RECORD ON DISK, USING 12 BYTES/INTEGRAL.
 TWO ELECTRON INTEGRAL EVALUATION REQUIRES   90567 WORDS OF MEMORY.
 II,JST,KST,LST =  1  1  1  1 NREC =         1 INTLOC =    1
 II,JST,KST,LST =  2  1  1  1 NREC =         1 INTLOC =    2
 II,JST,KST,LST =  3  1  1  1 NREC =         1 INTLOC =    7
 II,JST,KST,LST =  4  1  1  1 NREC =         1 INTLOC =   22
 II,JST,KST,LST =  5  1  1  1 NREC =         1 INTLOC =   67
 II,JST,KST,LST =  6  1  1  1 NREC =         1 INTLOC =  214
 II,JST,KST,LST =  7  1  1  1 NREC =         1 INTLOC = 1189
 II,JST,KST,LST =  8  1  1  1 NREC =         1 INTLOC = 3245
 II,JST,KST,LST =  9  1  1  1 NREC =         1 INTLOC = 5710
 II,JST,KST,LST = 10  1  1  1 NREC =         1 INTLOC = 8635
 II,JST,KST,LST = 11  1  1  1 NREC =         2 INTLOC = 5560
 II,JST,KST,LST = 12  1  1  1 NREC =         3 INTLOC = 8257
 II,JST,KST,LST = 13  1  1  1 NREC =         7 INTLOC = 6202
 II,JST,KST,LST = 14  1  1  1 NREC =         8 INTLOC = 6113
 II,JST,KST,LST = 15  1  1  1 NREC =         9 INTLOC = 7513
 II,JST,KST,LST = 16  1  1  1 NREC =        13 INTLOC = 6530
 II,JST,KST,LST = 17  1  1  1 NREC =        14 INTLOC =14876
 II,JST,KST,LST = 18  1  1  1 NREC =        16 INTLOC =10221
 TOTAL NUMBER OF NONZERO TWO-ELECTRON INTEGRALS =              324280
         22 INTEGRAL RECORDS WERE STORED ON DISK FILE  8.
  ...... END OF TWO-ELECTRON INTEGRALS .....
 STEP CPU TIME =     0.09 TOTAL CPU TIME =        0.2 (    0.0 MIN)
 TOTAL WALL CLOCK TIME=        0.2 SECONDS, CPU UTILIZATION IS  86.36%

 EFP ADDITIVE CONTRIBUTIONS TO THE "NUCLEAR ENERGY":
   -- NUCLEAR CHARGE - NUCLEAR CHARGE   =       31.6757411038
   -- NUCLEAR CHARGE - EFP CHARGE       =        0.0079036645
   -- NUCLEAR CHARGE - EFP DIPOLE       =       -0.0189127957
   -- NUCLEAR CHARGE - EFP QUADRUPOLE   =        0.0258331381
   -- NUCLEAR CHARGE - EFP OCTUPOLE     =       -0.0007856266
   -- EFP CHARGE     - EFP CHARGE       =       -0.0231620203
   -- EFP CHARGE     - EFP DIPOLE       =       -0.0084948303
   -- EFP CHARGE     - EFP QUADRUPOLE   =       -0.0083983544
   -- EFP CHARGE     - EFP OCTUPOLE     =        0.0000002824
   -- EFP DIPOLE     - EFP DIPOLE       =       -0.0013189997
   -- EFP DIPOLE     - EFP QUADRUPOLE   =       -0.0011224131
   -- EFP QUADRUPOLE - EFP QUADRUPOLE   =       -0.0015517423
   -- EFP-EFP EXCHANGE REPULSION ENERGY =        0.0091895816
   -- EFP-EFP DISPERSION ENERGY (C6)    =        0.0000000000
   -- EFP-EFP DISPERSION ENERGY (C8)    =        0.0000000000
   -- TOTAL INTERFRAGMENT INTERACTION   =       -0.0348584961
 THE TOTAL NUCLEAR CHARGE/EFP ENERGY    =       31.6549209880

          --------------------------
                 RHF SCF CALCULATION
          --------------------------

     NUCLEAR ENERGY =        31.6549209880
     MAXIT =   30     NPUNCH=    2
     EXTRAP=T  DAMP=F  SHIFT=F  RSTRCT=F  DIIS=F  DEM=F  SOSCF=T
     DENSITY MATRIX CONV=  1.00E-06
     SOSCF WILL OPTIMIZE     240 ORBITAL ROTATIONS, SOGTOL=   0.250
     MEMORY REQUIRED FOR RHF ITERS=     45360 WORDS.

 ITER EX DEM     TOTAL ENERGY        E CHANGE  DENSITY CHANGE     ORB. GRAD
   1  0  0     -113.5845118015  -113.5845118015   0.188360554   0.000000000
          ---------------START SECOND ORDER SCF---------------
   2  1  0     -113.9088981126    -0.3243863111   0.122023387   0.057028998
   3  2  0     -113.9270071837    -0.0181090711   0.040197040   0.041497036
   4  3  0     -113.9346296666    -0.0076224829   0.009945838   0.004829445
   5  4  0     -113.9348979495    -0.0002682829   0.003414039   0.002029550
   6  5  0     -113.9349458688    -0.0000479193   0.001927231   0.000895772
   7  6  0     -113.9349541224    -0.0000082536   0.000355241   0.000180566
   8  7  0     -113.9349545494    -0.0000004270   0.000133294   0.000072459
   9  8  0     -113.9349545870    -0.0000000377   0.000018833   0.000009922
  10  9  0     -113.9349545880    -0.0000000009   0.000006219   0.000002203
  11 10  0     -113.9349545881    -0.0000000001   0.000001937   0.000001254
  12 11  0     -113.9349545881    -0.0000000000   0.000001855   0.000000633

          ----------------
          ENERGY CONVERGED
          ----------------
     TIME TO FORM FOCK OPERATORS=       0.1 SECONDS (       0.0 SEC/ITER)
     TIME TO SOLVE SCF EQUATIONS=       0.0 SECONDS (       0.0 SEC/ITER)

 FINAL RHF ENERGY IS     -113.9349545881 AFTER  12 ITERATIONS

          INDUCED DIPOLE     ATOMIC UNITS          DEBYE
                X(IND)            0.06460          0.16420
                Y(IND)           -0.09637         -0.24496
                Z(IND)           -0.16894         -0.42941

          ------------
          EIGENVECTORS
          ------------

                      1          2          3          4          5
                  -20.5703   -11.3374    -1.4138    -0.8575    -0.6890
                     A          A          A          A          A   
    1  O  1  S    1.001227  -0.000194  -0.012135   0.000040   0.000627
    2  O  1  S    0.001749   0.000532   0.407040  -0.192353  -0.000909
    3  O  1  S   -0.005241  -0.001676   0.379772  -0.249531  -0.005975
    4  O  1  X   -0.000376  -0.000080  -0.026884  -0.025003   0.335488
    5  O  1  Y    0.000303   0.000072   0.024079   0.028381   0.097541
    6  O  1  Z    0.001715   0.000416   0.134041   0.162080   0.064362
    7  O  1  X    0.000293   0.000219  -0.009593  -0.012600   0.206436
    8  O  1  Y   -0.000263  -0.000219   0.005255   0.020523   0.059157
    9  O  1  Z   -0.001468  -0.001186   0.029076   0.106161   0.042617
   10  O  1 XX    0.000038  -0.000173  -0.007406  -0.005036  -0.007448
   11  O  1 YY   -0.000228   0.000007  -0.008289  -0.003104   0.001655
   12  O  1 ZZ    0.000190   0.000166   0.015695   0.008140   0.005793
   13  O  1 XY    0.000075  -0.000071  -0.000853  -0.001037   0.002128
   14  O  1 XZ   -0.000055  -0.000068  -0.005015  -0.003118   0.017713
   15  O  1 YZ    0.000104   0.000021   0.005127   0.002289   0.005986
   16  C  2  S    0.000173   1.001784  -0.016254  -0.006984   0.001109
   17  C  2  S    0.000176   0.003551   0.213210   0.345485  -0.000680
   18  C  2  S    0.002243  -0.004523   0.076623   0.228640  -0.016736
   19  C  2  X   -0.000032   0.000181   0.034300  -0.026323   0.381169
   20  C  2  Y    0.000032  -0.000123  -0.033920   0.026485   0.102726
   21  C  2  Z    0.000171  -0.000661  -0.184759   0.157285   0.031584
   22  C  2  X    0.000230   0.000228   0.004175  -0.018367   0.123241
   23  C  2  Y   -0.000233  -0.000229  -0.003335   0.007048   0.035345
   24  C  2  Z   -0.001271  -0.001277  -0.014869   0.077243   0.016027
   25  C  2 XX    0.000528   0.000080  -0.025281   0.008220   0.002848
   26  C  2 YY    0.000141  -0.000835  -0.012232  -0.001765  -0.001076
   27  C  2 ZZ   -0.000669   0.000755   0.037513  -0.006455  -0.001773
   28  C  2 XY    0.000168   0.000260  -0.006803   0.003934  -0.002387
   29  C  2 XZ    0.000234  -0.000206  -0.013447   0.003367  -0.010609
   30  C  2 YZ   -0.000153   0.000397   0.010041  -0.001087  -0.003300
   31  H  3  S   -0.000323  -0.000269   0.040010   0.233448  -0.243098
   32  H  3  S    0.000011   0.001319  -0.000699   0.019487  -0.057380
   33  H  3  X   -0.000015  -0.000360   0.008395   0.026451  -0.017201
   34  H  3  Y    0.000071  -0.000050   0.000167   0.004443  -0.001926
   35  H  3  Z    0.000327   0.000184  -0.008508  -0.008518   0.008090
   36  H  4  S   -0.000321  -0.000303   0.040326   0.236431   0.230234
   37  H  4  S    0.000012   0.001320  -0.001590   0.032630   0.061165
   38  H  4  X   -0.000099   0.000303  -0.005347  -0.021696  -0.011710
   39  H  4  Y    0.000046   0.000142  -0.003651  -0.009063  -0.006286
   40  H  4  Z    0.000312   0.000293  -0.010161  -0.014621  -0.011878

                      6          7          8          9         10
                   -0.6521    -0.5371    -0.4316     0.1508     0.2144
                     A          A          A          A          A   
    1  O  1  S    0.000220  -0.000371   0.000992  -0.000075  -0.003965
    2  O  1  S   -0.137837  -0.002850   0.007362   0.000840  -0.000365
    3  O  1  S   -0.271918  -0.002254   0.007724   0.002154   0.073254
    4  O  1  X   -0.098594  -0.120655   0.505334   0.086804  -0.020306
    5  O  1  Y    0.081627   0.468301   0.144691  -0.346892   0.003424
    6  O  1  Z    0.478730  -0.104256   0.058984   0.073369  -0.057809
    7  O  1  X   -0.052114  -0.087432   0.406706   0.125060  -0.069890
    8  O  1  Y    0.048567   0.332773   0.116047  -0.488361  -0.017728
    9  O  1  Z    0.293902  -0.075497   0.053489   0.108458  -0.103702
   10  O  1 XX   -0.012114   0.002536  -0.003727   0.000177  -0.003866
   11  O  1 YY   -0.010839   0.008247   0.001641   0.002195   0.001408
   12  O  1 ZZ    0.022953  -0.010783   0.002086  -0.002372   0.002459
   13  O  1 XY   -0.002124  -0.007264   0.000593  -0.000678  -0.001175
   14  O  1 XZ   -0.009709  -0.005500   0.007450  -0.001489   0.001620
   15  O  1 YZ    0.006968   0.026271   0.002569   0.005541  -0.000600
   16  C  2  S    0.010093   0.001126  -0.001359   0.000585  -0.051507
   17  C  2  S    0.047412   0.005392  -0.001303   0.015039   0.115601
   18  C  2  S   -0.088294  -0.000395   0.017816   0.086390   1.831753
   19  C  2  X    0.050449  -0.075938  -0.206104  -0.104759   0.054552
   20  C  2  Y   -0.072754   0.312612  -0.053117   0.399123   0.019731
   21  C  2  Z   -0.375363  -0.070599  -0.022294  -0.075363   0.193486
   22  C  2  X   -0.002273  -0.044810  -0.070326  -0.179293   0.277633
   23  C  2  Y   -0.004882   0.180002  -0.015851   0.670766   0.190743
   24  C  2  Z   -0.039164  -0.041966   0.000166  -0.134184   0.639711
   25  C  2 XX   -0.021683  -0.003653   0.020720   0.004338   0.008072
   26  C  2 YY   -0.004447  -0.016956  -0.005848   0.007676  -0.012715
   27  C  2 ZZ    0.026130   0.020609  -0.014872  -0.012014   0.004644
   28  C  2 XY   -0.006934   0.012082  -0.007666  -0.005848   0.009759
   29  C  2 XZ   -0.007955   0.010617  -0.063111  -0.006548   0.010974
   30  C  2 YZ    0.006570  -0.048527  -0.020458   0.032312   0.004422
   31  H  3  S   -0.117808   0.000491   0.258945   0.010236  -0.061930
   32  H  3  S   -0.044997  -0.003981   0.140498  -0.084224  -0.826328
   33  H  3  X   -0.010340  -0.002434   0.007486  -0.007036  -0.005050
   34  H  3  Y   -0.003733   0.008522  -0.000601   0.023364  -0.003306
   35  H  3  Z   -0.005380  -0.001743  -0.008239  -0.004357   0.002687
   36  H  4  S   -0.142903   0.005448  -0.260023   0.009114  -0.030509
   37  H  4  S   -0.056973   0.000759  -0.167441  -0.062605  -1.822867
   38  H  4  X    0.013820  -0.002457   0.004512  -0.005418   0.014716
   39  H  4  Y    0.003345   0.008577   0.004217   0.024264   0.005310
   40  H  4  Z   -0.001252  -0.002142   0.009504  -0.004526   0.018249

                     11         12         13         14         15
                    0.2968     0.3687     0.6793     0.6945     0.7487
                     A          A          A          A          A   
    1  O  1  S    0.004388  -0.072899  -0.013980  -0.019404   0.001171
    2  O  1  S   -0.001045   0.060589  -0.060576  -0.076530  -0.001085
    3  O  1  S   -0.094581   1.752683  -0.060056  -0.051036  -0.032597
    4  O  1  X   -0.084497  -0.031387   0.005919   0.004098  -0.303860
    5  O  1  Y   -0.029489   0.015032  -0.010343  -0.008740  -0.084477
    6  O  1  Z    0.003525   0.107289  -0.020604  -0.022495  -0.036986
    7  O  1  X   -0.268848  -0.114487   0.003857   0.019216  -0.351466
    8  O  1  Y   -0.083916   0.106508   0.029719  -0.050682  -0.104586
    9  O  1  Z   -0.043917   0.597948  -0.095557  -0.080019  -0.066261
   10  O  1 XX   -0.001309  -0.013807  -0.001460  -0.006679  -0.001149
   11  O  1 YY    0.001211  -0.014246   0.015844   0.000693   0.000540
   12  O  1 ZZ    0.000098   0.028053  -0.014384   0.005986   0.000608
   13  O  1 XY    0.001778  -0.001475  -0.009916   0.001557   0.000641
   14  O  1 XZ    0.010286  -0.008991  -0.005625   0.006733   0.004816
   15  O  1 YZ    0.003256   0.009554   0.026076  -0.025819   0.001285
   16  C  2  S    0.000174   0.040652  -0.090750  -0.101414  -0.005601
   17  C  2  S   -0.057334  -0.011103  -0.104793  -0.111850  -0.013942
   18  C  2  S   -0.347922  -1.376652   0.558908   0.561424   0.046766
   19  C  2  X    0.356511   0.001459  -0.186543   0.178322  -0.306083
   20  C  2  Y    0.106939   0.017764   0.766229  -0.590421  -0.088445
   21  C  2  Z   -0.013322   0.035400  -0.160433   0.170816  -0.052700
   22  C  2  X    1.274927  -0.269034   0.145806  -0.237714   2.100644
   23  C  2  Y    0.315634   0.310121  -0.752265   0.665550   0.589759
   24  C  2  Z   -0.033949   1.673201   0.381615   0.080193   0.263004
   25  C  2 XX   -0.001216   0.009817  -0.126680  -0.158367   0.019612
   26  C  2 YY   -0.002965   0.015972   0.108896   0.156573  -0.006768
   27  C  2 ZZ    0.004181  -0.025789   0.017784   0.001794  -0.012844
   28  C  2 XY    0.002407   0.000875  -0.075122  -0.111873  -0.008643
   29  C  2 XZ    0.009664   0.012506  -0.009641  -0.032748  -0.061217
   30  C  2 YZ    0.006648  -0.009424  -0.063956  -0.031134  -0.018747
   31  H  3  S   -0.028573   0.003304  -0.503509  -0.608691   0.680941
   32  H  3  S    2.094220  -0.025385   0.118957   0.193788   0.747459
   33  H  3  X    0.001245   0.011208   0.060148   0.092323   0.033108
   34  H  3  Y    0.000161   0.006448   0.053824  -0.000403   0.020645
   35  H  3  Z   -0.004895   0.013749  -0.003391   0.016359   0.054425
   36  H  4  S    0.066366  -0.001742  -0.507797  -0.634325  -0.684206
   37  H  4  S   -1.464638  -0.124529   0.146968   0.254620  -0.751549
   38  H  4  X    0.008226  -0.013870  -0.079938  -0.091940   0.057938
   39  H  4  Y    0.006022  -0.000397   0.012745  -0.054227   0.005155
   40  H  4  Z    0.006881   0.011150  -0.024091  -0.019630  -0.041897

                     16         17         18         19         20
                    0.8380     0.9228     0.9948     1.0935     1.1674
                     A          A          A          A          A   
    1  O  1  S   -0.000440  -0.026749   0.025395   0.023575   0.000146
    2  O  1  S    0.008173  -0.178866   0.053756   0.179791   0.000422
    3  O  1  S    0.035593   0.077232  -0.810229   0.810333  -0.000243
    4  O  1  X   -0.054310   0.051680  -0.051305   0.062910  -0.000526
    5  O  1  Y   -0.011994  -0.047408   0.070735  -0.090838   0.002171
    6  O  1  Z    0.002561  -0.244889   0.383187  -0.519056  -0.000879
    7  O  1  X   -0.063485   0.083888   0.065433  -0.216134   0.001180
    8  O  1  Y   -0.006515  -0.093489  -0.092690   0.257942  -0.000944
    9  O  1  Z    0.040541  -0.515065  -0.486814   1.436574   0.001286
   10  O  1 XX   -0.006813  -0.043346   0.027019   0.007527  -0.016714
   11  O  1 YY    0.002781  -0.035746   0.039566   0.012861   0.018811
   12  O  1 ZZ    0.004032   0.079091  -0.066584  -0.020387  -0.002097
   13  O  1 XY    0.004402  -0.006405   0.000148  -0.000669   0.035596
   14  O  1 XZ    0.028846  -0.023489   0.022848   0.006232  -0.010201
   15  O  1 YZ    0.008951   0.024771  -0.023703  -0.007251   0.002614
   16  C  2  S    0.051586  -0.085998  -0.625849  -0.498095  -0.000365
   17  C  2  S    0.112082  -0.111002  -1.502839  -1.040168  -0.000740
   18  C  2  S   -0.326253   1.679079   3.520726   0.285861   0.000756
   19  C  2  X    0.739220   0.240821   0.044398  -0.043404  -0.001090
   20  C  2  Y    0.242854  -0.167272  -0.002585   0.066651  -0.000650
   21  C  2  Z    0.174652  -0.957698  -0.044640   0.351474   0.000306
   22  C  2  X   -1.399055  -0.338636  -0.114539  -0.171324   0.001099
   23  C  2  Y   -0.436435   0.168761   0.006672   0.088886  -0.001474
   24  C  2  Z   -0.283777   1.068278   0.138531   0.539592   0.000327
   25  C  2 XX    0.100564   0.193218  -0.065539   0.154276  -0.260867
   26  C  2 YY   -0.034468   0.081960  -0.190153   0.172162   0.292497
   27  C  2 ZZ   -0.066096  -0.275177   0.255692  -0.326438  -0.031630
   28  C  2 XY   -0.045212   0.044750   0.018539   0.016015   0.553250
   29  C  2 XZ   -0.340118   0.061087  -0.107844   0.116702  -0.155168
   30  C  2 YZ   -0.103085  -0.078854   0.095084  -0.111287   0.042107
   31  H  3  S    0.413973  -0.015865   0.049113  -0.011800  -0.002569
   32  H  3  S   -1.357214  -0.878307  -1.149021  -0.358435   0.001025
   33  H  3  X   -0.173156  -0.155302  -0.149502  -0.054304   0.080438
   34  H  3  Y   -0.016826  -0.040272  -0.005489  -0.025527  -0.314415
   35  H  3  Z    0.125913  -0.001894   0.147295  -0.053968   0.071188
   36  H  4  S   -0.353896  -0.071472   0.018820  -0.031598   0.002475
   37  H  4  S    1.530498  -0.594908  -0.945102  -0.256052  -0.001476
   38  H  4  X   -0.152245   0.125112   0.074264   0.071680  -0.080092
   39  H  4  Y   -0.079166   0.034184   0.055780   0.008001   0.321322
   40  H  4  Z   -0.186199   0.012377   0.167071  -0.044900  -0.072471

                     21         22         23         24         25
                    1.2880     1.3156     1.4289     1.6892     1.7064
                     A          A          A          A          A   
    1  O  1  S   -0.000979   0.005529  -0.000731  -0.084276  -0.000238
    2  O  1  S    0.000269   0.007570  -0.001255  -0.178920  -0.000850
    3  O  1  S    0.024447  -0.073330   0.004598   0.357613   0.004645
    4  O  1  X    0.292939  -0.762329  -0.052949  -0.010497   0.206545
    5  O  1  Y   -0.877166  -0.293977   0.186208   0.022001   0.057662
    6  O  1  Z    0.208012  -0.070400  -0.041275   0.108008   0.020615
    7  O  1  X   -0.428632   1.401247  -0.092415   0.000120  -0.535159
    8  O  1  Y    1.176790   0.487975   0.407830  -0.033908  -0.147478
    9  O  1  Z   -0.265340   0.098939  -0.091013  -0.110309  -0.049822
   10  O  1 XX   -0.002752   0.012132  -0.005456   0.092229  -0.010937
   11  O  1 YY   -0.008901  -0.004047  -0.024761  -0.068023   0.005683
   12  O  1 ZZ    0.011654  -0.008085   0.030218  -0.024206   0.005254
   13  O  1 XY    0.007144  -0.005160   0.017745   0.054687   0.000816
   14  O  1 XZ    0.009717  -0.040723   0.016418   0.015552   0.022509
   15  O  1 YZ   -0.027063  -0.014854  -0.074421   0.021292   0.005944
   16  C  2  S   -0.004419   0.001903  -0.003755  -0.263602   0.011708
   17  C  2  S   -0.008564   0.000955  -0.007622  -0.508509   0.022868
   18  C  2  S   -0.016664   0.096741   0.019189   1.249834  -0.087205
   19  C  2  X   -0.040116   0.238260   0.011664  -0.008939  -0.079036
   20  C  2  Y    0.067064   0.068253  -0.038518  -0.002372  -0.020695
   21  C  2  Z   -0.007879   0.006026   0.011875   0.022332  -0.005573
   22  C  2  X    0.211680  -1.238201   0.090551  -0.087897   1.348158
   23  C  2  Y   -0.394802  -0.390786  -0.409298   0.164955   0.371661
   24  C  2  Z    0.121240  -0.178446   0.101124   0.786936   0.136812
   25  C  2 XX    0.033809  -0.140260   0.068482   0.637404  -0.066815
   26  C  2 YY    0.062078   0.031585   0.239475  -0.682454   0.043109
   27  C  2 ZZ   -0.095888   0.108676  -0.307958   0.045050   0.023706
   28  C  2 XY   -0.048746   0.048991  -0.176234   0.440114   0.002339
   29  C  2 XZ   -0.074857   0.392254  -0.160915   0.053695   0.137192
   30  C  2 YZ    0.184041   0.143695   0.748718   0.230011   0.031845
   31  H  3  S   -0.004880   0.073299  -0.002623  -0.669519   0.490786
   32  H  3  S    0.051333  -0.684586  -0.015762  -0.223976   0.488201
   33  H  3  X    0.020321  -0.014905  -0.077108   0.042698  -0.397815
   34  H  3  Y   -0.076472  -0.019086   0.299114  -0.052590  -0.217536
   35  H  3  Z    0.016788  -0.024562  -0.071240  -0.285280  -0.518011
   36  H  4  S    0.004748  -0.063469  -0.004233  -0.713040  -0.429065
   37  H  4  S   -0.056611   0.642661  -0.001013  -0.252487  -0.448325
   38  H  4  X    0.021489  -0.025225  -0.073416   0.010142  -0.570267
   39  H  4  Y   -0.073925  -0.009344   0.296298  -0.054046  -0.049038
   40  H  4  Z    0.012703   0.028100  -0.068819  -0.255275   0.424525

                     26         27         28         29         30
                    1.8697     1.9664     1.9826     1.9836     2.0159
                     A          A          A          A          A   
    1  O  1  S    0.337564   0.011451  -0.284304  -0.540015  -0.004736
    2  O  1  S    0.816484   0.024505  -0.615569  -1.162081  -0.010175
    3  O  1  S   -0.649747  -0.069555   1.649776   3.245123   0.028171
    4  O  1  X   -0.101104   0.060621  -0.372748   0.073678   0.010878
    5  O  1  Y    0.085389  -0.245796  -0.055758   0.125481  -0.012130
    6  O  1  Z    0.486111   0.043986   0.167898   0.484749   0.008230
    7  O  1  X    0.098440  -0.025282   0.057184  -0.172329  -0.004475
    8  O  1  Y   -0.100561   0.110026   0.100812   0.113924   0.007027
    9  O  1  Z   -0.540802  -0.038093   0.384276   0.686027   0.004656
   10  O  1 XX   -0.049559   0.007401  -0.034037   0.056875  -0.068717
   11  O  1 YY    0.024826   0.016280   0.041856   0.048963   0.081176
   12  O  1 ZZ    0.024733  -0.023681  -0.007819  -0.105839  -0.012459
   13  O  1 XY   -0.024246  -0.023282   0.022296  -0.017740   0.148450
   14  O  1 XZ   -0.005056  -0.011092   0.168317  -0.050343  -0.047690
   15  O  1 YZ   -0.002175   0.063895   0.033135  -0.056575   0.014620
   16  C  2  S    0.058580   0.002012  -0.011298  -0.017896  -0.000221
   17  C  2  S    0.011559   0.005007  -0.041185  -0.084762  -0.000910
   18  C  2  S    0.378642   0.029265  -0.891350  -1.761978  -0.015777
   19  C  2  X   -0.034979   0.057935   0.115845  -0.177946  -0.000600
   20  C  2  Y    0.039684  -0.214621   0.093441   0.071799  -0.013590
   21  C  2  Z    0.218156   0.037275   0.283309   0.526286   0.007156
   22  C  2  X   -0.051677   0.085694  -0.280550  -0.146707   0.003466
   23  C  2  Y    0.050832  -0.327861   0.050143   0.213833  -0.014766
   24  C  2  Z    0.270500   0.043832   0.526618   1.126933   0.013013
   25  C  2 XX   -0.248996  -0.036973   0.367003   0.183445  -0.372397
   26  C  2 YY    0.366318  -0.228516   0.134544   0.434817   0.403702
   27  C  2 ZZ   -0.117322   0.265489  -0.501547  -0.618262  -0.031305
   28  C  2 XY   -0.203677   0.097588  -0.060907   0.032154   0.788859
   29  C  2 XZ   -0.016621   0.135136  -0.539131   0.562450  -0.193409
   30  C  2 YZ   -0.155026  -0.606124  -0.324412  -0.160922   0.023590
   31  H  3  S   -0.002854   0.001531  -0.371733   0.252167   0.009363
   32  H  3  S   -0.092725   0.001273   0.207648  -0.127296  -0.005937
   33  H  3  X   -0.198170  -0.171879   0.125323  -0.131409  -0.194010
   34  H  3  Y   -0.177017   0.685261  -0.042409   0.017175   0.753129
   35  H  3  Z   -0.567862  -0.157632  -0.389206   0.214981  -0.159023
   36  H  4  S    0.032667   0.006212   0.408720  -0.130619  -0.007228
   37  H  4  S   -0.111116  -0.000697  -0.202697   0.107963   0.005874
   38  H  4  X    0.376407  -0.193051   0.009720   0.054867   0.170429
   39  H  4  Y   -0.007371   0.762151   0.097421  -0.003541  -0.674207
   40  H  4  Z   -0.452862  -0.166747   0.466813  -0.206813   0.141188

                     31         32         33         34         35
                    2.6001     2.7029     2.7634     3.0500     3.1934
                     A          A          A          A          A   
    1  O  1  S   -0.199488   0.011700  -0.489165  -0.000365   0.270900
    2  O  1  S   -0.455912   0.026651  -1.054377  -0.000650   0.569534
    3  O  1  S    0.131471   0.000692   1.094029   0.002612  -0.710907
    4  O  1  X    0.067347   0.201167   0.082947  -0.000136  -0.042733
    5  O  1  Y   -0.049785   0.061565  -0.082713   0.001128   0.038971
    6  O  1  Z   -0.289900   0.046304  -0.451769   0.000152   0.216979
    7  O  1  X   -0.016010  -0.206777  -0.075888  -0.002143   0.051140
    8  O  1  Y    0.002845  -0.058077   0.075800   0.001310  -0.050918
    9  O  1  Z    0.029532  -0.024944   0.415536   0.000058  -0.275037
   10  O  1 XX    0.137789   0.046983  -0.345481  -0.392863  -0.659623
   11  O  1 YY   -0.112186  -0.004954   0.414818   0.440779   0.559718
   12  O  1 ZZ   -0.025603  -0.042029  -0.069337  -0.047917   0.099904
   13  O  1 XY    0.081724  -0.034534  -0.248555   0.831195  -0.412216
   14  O  1 XZ    0.009010  -0.184529  -0.007839  -0.237112  -0.082052
   15  O  1 YZ    0.032095  -0.061645  -0.152550   0.062662  -0.176705
   16  C  2  S    0.291311  -0.022748  -0.209185  -0.000046   0.175560
   17  C  2  S    0.818105  -0.060787  -0.423438  -0.000026   0.430819
   18  C  2  S    1.356695  -0.109194  -0.859691   0.000208   1.220963
   19  C  2  X   -0.014121   1.302108   0.055976   0.001859  -0.077186
   20  C  2  Y    0.125002   0.357974  -0.068502   0.000944   0.071882
   21  C  2  Z    0.573745   0.128055  -0.366957   0.001524   0.406072
   22  C  2  X   -0.016736   1.078409  -0.062074   0.003049  -0.001887
   23  C  2  Y    0.099105   0.297791   0.044396   0.000475   0.002987
   24  C  2  Z    0.457277   0.109328   0.261294   0.001562   0.014685
   25  C  2 XX    0.028458  -0.327754  -0.825685   0.144430   0.858735
   26  C  2 YY   -0.583318   0.130288  -0.042687  -0.160208  -0.391950
   27  C  2 ZZ    0.554859   0.197466   0.868373   0.015778  -0.466784
   28  C  2 XY    0.188947   0.120221  -0.315345  -0.303727   0.443842
   29  C  2 XZ   -0.083643   1.016518  -0.331388   0.086270   0.204606
   30  C  2 YZ    0.304229   0.296609   0.146466  -0.020358   0.059260
   31  H  3  S   -0.657787   1.205731   0.470141   0.001168  -0.716128
   32  H  3  S   -0.469131   0.714204   0.089552   0.001206  -0.222033
   33  H  3  X   -0.931300   1.070821   0.198908   0.044875  -0.389295
   34  H  3  Y   -0.226356   0.168387  -0.097068  -0.173481   0.016591
   35  H  3  Z    0.045024  -0.454389  -0.648200   0.038870   0.508784
   36  H  4  S   -0.808134  -1.098830   0.500281  -0.003103  -0.717054
   37  H  4  S   -0.543704  -0.633594   0.100916  -0.001859  -0.216244
   38  H  4  X    0.977786   0.740784   0.018507  -0.042118   0.193981
   39  H  4  Y    0.328921   0.332583  -0.148625   0.173479   0.178530
   40  H  4  Z    0.368317   0.647235  -0.673713  -0.037069   0.575861

                     36         37         38
                    3.4406     3.7437     3.8582
                     A          A          A   
    1  O  1  S    0.000603  -0.001396  -0.291201
    2  O  1  S    0.001312  -0.002784  -0.543093
    3  O  1  S   -0.002648   0.015509   2.031721
    4  O  1  X   -0.000950   0.095495  -0.034100
    5  O  1  Y    0.001923   0.027763   0.033057
    6  O  1  Z   -0.000767   0.016898   0.182183
    7  O  1  X   -0.094450   0.421532  -0.199646
    8  O  1  Y    0.372492   0.121935   0.193456
    9  O  1  Z   -0.086505   0.062738   1.062013
   10  O  1 XX    0.083312  -0.335681  -0.522472
   11  O  1 YY    0.319834   0.091095  -0.560195
   12  O  1 ZZ   -0.403145   0.244586   1.082668
   13  O  1 XY   -0.236604   0.134433  -0.055581
   14  O  1 XZ   -0.214043   1.008713  -0.363473
   15  O  1 YZ    0.969728   0.322427   0.359295
   16  C  2  S    0.000382  -0.004649  -0.446156
   17  C  2  S    0.000787  -0.011723  -0.994090
   18  C  2  S    0.000872  -0.024104  -0.992890
   19  C  2  X    0.051388   0.270623  -0.162513
   20  C  2  Y   -0.206567   0.075158   0.159664
   21  C  2  Z    0.045984   0.031986   0.876393
   22  C  2  X    0.036146  -0.023918  -0.070648
   23  C  2  Y   -0.145137  -0.007436   0.070045
   24  C  2  Z    0.032000  -0.004057   0.385069
   25  C  2 XX    0.050170  -0.378871   0.130897
   26  C  2 YY    0.184292   0.112857   0.252407
   27  C  2 ZZ   -0.234462   0.266014  -0.383304
   28  C  2 XY   -0.138613   0.147193  -0.017099
   29  C  2 XZ   -0.125657   1.144475   0.121312
   30  C  2 YZ    0.563886   0.357803  -0.145042
   31  H  3  S   -0.000932   0.635096   0.108140
   32  H  3  S   -0.000795  -0.040228   0.055993
   33  H  3  X    0.020896   0.434708   0.085722
   34  H  3  Y   -0.084400   0.122541   0.016659
   35  H  3  Z    0.020179   0.051270  -0.022883
   36  H  4  S    0.002136  -0.608480   0.107113
   37  H  4  S    0.000117   0.047603   0.054946
   38  H  4  X    0.018028   0.425731  -0.074370
   39  H  4  Y   -0.080075   0.116651  -0.028179
   40  H  4  Z    0.018624   0.046128  -0.041751
 ...... END OF RHF CALCULATION ......
 STEP CPU TIME =     0.09 TOTAL CPU TIME =        0.3 (    0.0 MIN)
 TOTAL WALL CLOCK TIME=        0.8 SECONDS, CPU UTILIZATION IS  33.33%

     ----------------------------------------------------------------
     PROPERTY VALUES FOR THE RHF   SELF-CONSISTENT FIELD WAVEFUNCTION
     ----------------------------------------------------------------

          -----------------
          ENERGY COMPONENTS
          -----------------

         WAVEFUNCTION NORMALIZATION =       1.0000000000

                ONE ELECTRON ENERGY =    -218.2651970372
                TWO ELECTRON ENERGY =      72.6437798367
           NUCLEAR REPULSION ENERGY =      31.6757411038
          EFFECTIVE FRAGMENT ENERGY =       0.0107215086
                                      ------------------
                       TOTAL ENERGY =    -113.9349545881

 ELECTRON-ELECTRON POTENTIAL ENERGY =      72.6437798367
  NUCLEUS-ELECTRON POTENTIAL ENERGY =    -332.0162542636
   NUCLEUS-NUCLEUS POTENTIAL ENERGY =      31.6757411038
 ELECTRON-FRAGMENT MULTIPOLE ENERGY =      -0.0317968261
 ELECTRON-FRAGMENT REMAINDER ENERGY =       0.0000795594
        STATIC INTERFRAGMENT ENERGY =      -0.0348584961
            FRAGMENT-NUCLEAR ENERGY =       0.0140383803
    TOTAL FRAGMENT INDUCTION ENERGY =      -0.0070786350
 ELECTRON-FRAGMENT EXCHANGE REPULSION =      0.0000000000
                                      ------------------
             TOTAL POTENTIAL ENERGY =    -227.7563493406
                                      ------------------
            SOLUTE POTENTIAL ENERGY =    -227.6967333231
              SOLUTE KINETIC ENERGY =     113.8213947525
                 VIRIAL RATIO (V/T) =       2.0004739339

          ---------------------------------------
          MULLIKEN AND LOWDIN POPULATION ANALYSES
          ---------------------------------------

     ATOMIC MULLIKEN POPULATION IN EACH MOLECULAR ORBITAL

                      1          2          3          4          5

                  2.000000   2.000000   2.000000   2.000000   2.000000

    1             1.999680  -0.000586   1.422462   0.435690   0.667234
    2             0.000320   2.000323   0.553019   0.965955   0.806698
    3            -0.000000   0.000137   0.012447   0.288963   0.276511
    4            -0.000000   0.000126   0.012072   0.309393   0.249557

                      6          7          8

                  2.000000   2.000000   2.000000

    1             1.305947   1.325817   1.204097
    2             0.495512   0.669031   0.247402
    3             0.081427   0.002515   0.267792
    4             0.117114   0.002637   0.280709

               ----- POPULATIONS IN EACH AO -----
                             MULLIKEN      LOWDIN
              1  O  1  S      2.00241     1.90162
              2  O  1  S      0.84302     0.61437
              3  O  1  S      0.91515     0.51281
              4  O  1  X      1.10729     1.06009
              5  O  1  Y      0.77239     0.72311
              6  O  1  Z      0.91210     0.86544
              7  O  1  X      0.71130     0.69716
              8  O  1  Y      0.58645     0.59623
              9  O  1  Z      0.48862     0.57915
             10  O  1 XX      0.00940     0.18386
             11  O  1 YY      0.00034     0.18256
             12  O  1 ZZ      0.00049     0.20714
             13  O  1 XY      0.00462     0.00058
             14  O  1 XZ      0.00676     0.00857
             15  O  1 YZ      0.00000     0.00798
             16  C  2  S      2.00352     1.87101
             17  C  2  S      0.69549     0.50275
             18  C  2  S      0.42038     0.30497
             19  C  2  X      0.71414     0.62854
             20  C  2  Y      0.42414     0.38311
             21  C  2  Z      0.72926     0.64588
             22  C  2  X      0.24028     0.38680
             23  C  2  Y      0.23828     0.29159
             24  C  2  Z      0.12380     0.26806
             25  C  2 XX      0.03343     0.17022
             26  C  2 YY      0.00675     0.09397
             27  C  2 ZZ      0.00402     0.21145
             28  C  2 XY      0.06873     0.00940
             29  C  2 XZ      0.03606     0.17307
             30  C  2 YZ      0.00000     0.06859
             31  H  3  S      0.76299     0.60911
             32  H  3  S      0.13660     0.24453
             33  H  3  X      0.02134     0.04201
             34  H  3  Y      0.00296     0.00920
             35  H  3  Z      0.00590     0.01459
             36  H  4  S      0.76995     0.60965
             37  H  4  S      0.17197     0.25761
             38  H  4  X      0.01473     0.02975
             39  H  4  Y      0.00492     0.01222
             40  H  4  Z      0.01003     0.02124

          ----- MULLIKEN ATOMIC OVERLAP POPULATIONS -----
          (OFF-DIAGONAL ELEMENTS NEED TO BE MULTIPLIED BY 2)

             1           2           3           4

    1    7.7955961
    2    0.6476055   4.2710804
    3   -0.0379608   0.4166804   0.6112542
    4   -0.0448996   0.4028953  -0.0601831   0.6737937

          TOTAL MULLIKEN AND LOWDIN ATOMIC POPULATIONS
       ATOM         MULL.POP.    CHARGE          LOW.POP.     CHARGE
    1 O             8.360341   -0.360341         8.140687   -0.140687
    2 C             5.738262    0.261738         6.009403   -0.009403
    3 H             0.929791    0.070209         0.919438    0.080562
    4 H             0.971606    0.028394         0.930471    0.069529

          MULLIKEN SPHERICAL HARMONIC POPULATIONS
       ATOM           S       P       D      F      G      H      I    TOTAL
    1 O             3.76    4.58    0.02   0.00   0.00   0.00   0.00    8.36
    2 C             3.12    2.47    0.15   0.00   0.00   0.00   0.00    5.74
    3 H             0.90    0.03    0.00   0.00   0.00   0.00   0.00    0.93
    4 H             0.94    0.03    0.00   0.00   0.00   0.00   0.00    0.97

          -------------------------------
          BOND ORDER AND VALENCE ANALYSIS     BOND ORDER THRESHOLD=0.050
          -------------------------------

                   BOND                       BOND                       BOND
  ATOM PAIR DIST  ORDER      ATOM PAIR DIST  ORDER      ATOM PAIR DIST  ORDER
    1   2  1.188  2.084        2   3  1.097  0.962        2   4  1.099  0.961

                       TOTAL       BONDED        FREE
      ATOM            VALENCE     VALENCE     VALENCE
    1 O                 2.111       2.111       0.000
    2 C                 4.007       4.007       0.000
    3 H                 0.965       0.965       0.000
    4 H                 0.964       0.964       0.000

          ----------------------------
          SOLUTE ELECTROSTATIC MOMENTS
          ----------------------------

 POINT   1           X           Y           Z (BOHR)    CHARGE
                 3.603151   -2.116794   -1.115039        0.00 (A.U.)
         DX          DY          DZ         /D/  (DEBYE)
    -0.626539    0.600514    3.038484    3.159993

          ----------------------------------------
          EFFECTIVE FRAGMENT ELECTROSTATIC MOMENTS
          ----------------------------------------

 FRAGMENT   1  H2ODFT
          X           Y           Z (BOHR)    CHARGE
    -0.389883   -2.136492   -5.776991       -0.00 (A.U.)
         DX          DY          DZ         /D/  (DEBYE)
     2.192215   -0.255133   -0.795085    2.345860

 FRAGMENT   2  H2ODFT
          X           Y           Z (BOHR)    CHARGE
    -2.825868    1.464172   -2.380531       -0.00 (A.U.)
         DX          DY          DZ         /D/  (DEBYE)
    -0.427226   -2.415594   -0.196481    2.460939

 FRAGMENT   3  H2ODFT
          X           Y           Z (BOHR)    CHARGE
    -2.908497   -0.128265    3.088954       -0.00 (A.U.)
         DX          DY          DZ         /D/  (DEBYE)
     0.295226    1.646668    1.530083    2.267119

 FRAGMENT   4  H2ODFT
          X           Y           Z (BOHR)    CHARGE
     0.752192    3.416053    0.983740       -0.00 (A.U.)
         DX          DY          DZ         /D/  (DEBYE)
    -0.670768    1.554605   -1.720086    2.413592


          ----------------------------
          SYSTEM ELECTROSTATIC MOMENTS
          ----------------------------

 POINT   1           X           Y           Z (BOHR)    CHARGE
                 3.603151   -2.116794   -1.115039        0.00 (A.U.)
         DX          DY          DZ         /D/  (DEBYE)
     0.762908    1.131061    1.856915    2.304227
 ...... END OF PROPERTY EVALUATION ......
 STEP CPU TIME =     0.01 TOTAL CPU TIME =        0.3 (    0.0 MIN)
 TOTAL WALL CLOCK TIME=        0.8 SECONDS, CPU UTILIZATION IS  34.12%

 -------------------------------   -----------------------------
 MP2 ENERGY GRADIENT CALCULATION   PROGRAM WRITTEN BY K.ISHIMURA
 -------------------------------   -----------------------------
 NUMBER OF OCCUPIED ORBITALS            =    8
 NUMBER OF VIRTUAL ORBITALS             =   30
 NUMBER OF ACTIVE OCCUPIED ORBITALS     =    6
 NUMBER OF ACTIVE VIRTUAL ORBITALS      =   30
 NUMBER OF BASIS FUNCTIONS              =   40
 NUMBER OF BASIS SHELLS                 =   18
 AO INTEGRAL THRESHOLD                  = 1.00E-09
 HALF-TRANSFORMED INTEGRAL THRESHOLD    = 8.07E-11

 ---------------------------------------------
 QM/MM(POL) STYLE MP2 GRADIENT CODED BY HUI LI
       UNIVERSITY OF NEBRASKA-LINCOLN
 ---------------------------------------------

   REQUIRED DISK =         1 MBYTES/PROCESSOR

 MAXIMUM MEMORY USED DURING MP2 GRADIENT=      188406 WORDS, OR       1 MWORDS.
 BEGINNING    1ST SHELL LOOP...
 .... DONE WITH 1ST THREE INDEX TRANSFORMATIONS ....
 STEP CPU TIME =     0.28 TOTAL CPU TIME =        0.6 (    0.0 MIN)
 TOTAL WALL CLOCK TIME=        1.1 SECONDS, CPU UTILIZATION IS  50.44%

 RESULTS OF MOLLER-PLESSET 2ND ORDER CORRECTION ARE
               E(0)=      -113.9349545881
               E(1)=         0.0
               E(2)=        -0.3112937405
             E(MP2)=      -114.2462483286
 .... DONE WITH 4TH INDEX TRANSFORMATION AND ENERGY ....
 STEP CPU TIME =     0.01 TOTAL CPU TIME =        0.6 (    0.0 MIN)
 TOTAL WALL CLOCK TIME=        1.2 SECONDS, CPU UTILIZATION IS  50.00%
 .... DONE WITH 1ST THREE INDEX TRANSFORMATIONS FOR GRADIENT ....
 STEP CPU TIME =     0.22 TOTAL CPU TIME =        0.8 (    0.0 MIN)
 TOTAL WALL CLOCK TIME=        1.4 SECONDS, CPU UTILIZATION IS  57.55%
 .... DONE WITH 4TH INDEX TRANSFORMATION FOR GRADIENT ....
 STEP CPU TIME =     0.01 TOTAL CPU TIME =        0.8 (    0.0 MIN)
 TOTAL WALL CLOCK TIME=        1.4 SECONDS, CPU UTILIZATION IS  57.86%
 CYCLE  1  Z-VECTOR ERROR= -0.119255E-01
 CYCLE  2  Z-VECTOR ERROR=  0.220323E-02
 CYCLE  3  Z-VECTOR ERROR= -0.907696E-03
 CYCLE  4  Z-VECTOR ERROR=  0.222235E-03
 CYCLE  5  Z-VECTOR ERROR= -0.374324E-04
 CYCLE  6  Z-VECTOR ERROR=  0.102587E-04
 CYCLE  7  Z-VECTOR ERROR= -0.476593E-05
 CYCLE  8  Z-VECTOR ERROR=  0.123395E-05
 CYCLE  9  Z-VECTOR ERROR= -0.143661E-06
 CYCLE 10  Z-VECTOR ERROR=  0.195477E-07
 CYCLE 11  Z-VECTOR ERROR= -0.368582E-08
 CYCLE 12  Z-VECTOR ERROR=  0.849343E-09
 CYCLE 13  Z-VECTOR ERROR= -0.195369E-09
 CYCLE 14  Z-VECTOR ERROR=  0.493351E-10
 
 ---------------------------------
 THE P(2) CORRECTED MP2-POL ENERGY
  (CURRENTLY NO ANALYTIC GRADIENT)
 EMP2        =     -114.2462483286
 EPOL(2)     =        0.0003496745
 EMP2+EPOL(2)=     -114.2458986541
 ---------------------------------
 
 .... DONE WITH RESPONSE EQUATIONS AND DENSITY ....
 STEP CPU TIME =     0.03 TOTAL CPU TIME =        0.8 (    0.0 MIN)
 TOTAL WALL CLOCK TIME=        1.4 SECONDS, CPU UTILIZATION IS  58.74%

 MP2 NATURAL ORBITAL OCCUPATION NUMBERS ARE
  2.0000 2.0000 1.9874 1.9775 1.9749 1.9689 1.9653 1.9440 0.0492 0.0246
  0.0243 0.0133 0.0104 0.0097 0.0067 0.0063 0.0063 0.0048 0.0048 0.0034
  0.0031 0.0026 0.0023 0.0020 0.0018 0.0012 0.0010 0.0009 0.0007 0.0005
  0.0005 0.0005 0.0003 0.0003 0.0003 0.0001 0.0001-0.0000
 THERE ARE    15.8180 ELECTRONS IN PRINCIPAL MP2 NATURAL ORBITALS.
 THERE ARE     0.1820 ELECTRONS IN SECONDARY MP2 NATURAL ORBITALS.
 THE MP2 NATURAL ORBITALS HAVE BEEN PUNCHED.

 BEGINNING ONE ELECTRON GRADIENT...
 TIME TO DO ORDINARY GRADIENT INTEGRALS=      0.01
 READY TO DO 1E- PART OF GRAD WRT FRAGMENT

                     -----------------------------
                     FRAGMENT GRADIENT INFORMATION
                     -----------------------------


      FRAGMENT NO.    1     E'X               E'Y               E'Z 
[...]
   11  O  1 YY    0.000201   0.000045   0.008236   0.003413   0.000925
   12  O  1 ZZ   -0.000135   0.000064  -0.014332  -0.008197   0.008381
   13  O  1 XY   -0.000086  -0.000063   0.000463   0.001100  -0.000042
   14  O  1 XZ    0.000036  -0.000052   0.006017   0.004423   0.015194
   15  O  1 YZ   -0.000063  -0.000014  -0.002941  -0.001241   0.005869
   16  C  2  S   -0.000181   1.001686   0.014316   0.005313   0.001912
   17  C  2  S   -0.000211   0.003245  -0.207495  -0.352603   0.001399
   18  C  2  S   -0.002196  -0.004534  -0.078416  -0.240816  -0.022718
   19  C  2  X    0.000018   0.000202  -0.042953   0.034723   0.377567
   20  C  2  Y   -0.000009  -0.000067   0.020070  -0.014922   0.110917
   21  C  2  Z   -0.000069  -0.000569   0.174700  -0.149833   0.049343
   22  C  2  X   -0.000311   0.000289  -0.005904   0.024131   0.130345
   23  C  2  Y    0.000147  -0.000136   0.002501   0.001643   0.040969
   24  C  2  Z    0.001289  -0.001210   0.015469  -0.074174   0.024034
   25  C  2 XX   -0.000445   0.000103   0.022498  -0.007282   0.002174
   26  C  2 YY   -0.000125  -0.000824   0.013330   0.002429  -0.000780
   27  C  2 ZZ    0.000570   0.000721  -0.035828   0.004853  -0.001394
   28  C  2 XY   -0.000161   0.000285   0.006314  -0.004193  -0.001801
   29  C  2 XZ   -0.000285  -0.000227   0.017621  -0.004071  -0.008301
   30  C  2 YZ    0.000061   0.000278  -0.005392   0.000094  -0.002769
   31  H  3  S    0.000307  -0.000238  -0.039220  -0.230885  -0.249119
   32  H  3  S   -0.000021   0.001287   0.000220  -0.014679  -0.053561
   33  H  3  X    0.000040  -0.000354  -0.008478  -0.026361  -0.017794
   34  H  3  Y   -0.000048  -0.000068  -0.000839  -0.005504  -0.002672
   35  H  3  Z   -0.000326   0.000157   0.007986   0.007053   0.007354
   36  H  4  S    0.000306  -0.000271  -0.039289  -0.232673   0.230286
   37  H  4  S   -0.000021   0.001288   0.001498  -0.031703   0.060553
   38  H  4  X    0.000109   0.000271   0.004461   0.020015  -0.010559
   39  H  4  Y   -0.000026   0.000130   0.003099   0.008773  -0.006223
   40  H  4  Z   -0.000306   0.000311   0.010418   0.016398  -0.013385

                      6          7          8          9         10
                   -0.6434    -0.5245    -0.4360     0.1435     0.2175
                     A          A          A          A          A   
    1  O  1  S   -0.000720   0.000410   0.001727  -0.000087   0.003833
    2  O  1  S    0.133385   0.001829   0.011318   0.000387   0.002608
    3  O  1  S    0.262664  -0.001244   0.008420  -0.000350  -0.065082
    4  O  1  X    0.131711   0.131458   0.500685   0.093756   0.024252
    5  O  1  Y   -0.046780  -0.472832   0.156416  -0.344910  -0.008862
    6  O  1  Z   -0.469425   0.083725   0.093962   0.055489   0.061632
    7  O  1  X    0.072569   0.096893   0.405473   0.129373   0.085044
    8  O  1  Y   -0.029310  -0.344502   0.126966  -0.471047   0.017012
    9  O  1  Z   -0.297122   0.060940   0.082856   0.079265   0.111304
   10  O  1 XX    0.010262  -0.003681  -0.004828   0.000269   0.004113
   11  O  1 YY    0.010981  -0.004353   0.001698   0.001928  -0.001086
   12  O  1 ZZ   -0.021244   0.008034   0.003130  -0.002197  -0.003027
   13  O  1 XY    0.001847   0.008541  -0.000690  -0.000933   0.001174
   14  O  1 XZ    0.012609   0.005720   0.006604  -0.001769  -0.001946
   15  O  1 YZ   -0.003452  -0.025798   0.002497   0.006457   0.000745
   16  C  2  S   -0.010192  -0.001474  -0.001706   0.001538   0.048209
   17  C  2  S   -0.047091  -0.006135  -0.002341   0.020677  -0.120991
   18  C  2  S    0.085674   0.001383   0.023258   0.106787  -1.741046
   19  C  2  X   -0.063568   0.081315  -0.203874  -0.118435  -0.076123
   20  C  2  Y    0.050370  -0.305814  -0.058438   0.415227  -0.003554
   21  C  2  Z    0.379958   0.052721  -0.035861  -0.055356  -0.199017
   22  C  2  X    0.003384   0.049481  -0.076252  -0.183297  -0.349224
   23  C  2  Y    0.002948  -0.181494  -0.020252   0.648156  -0.191829
   24  C  2  Z    0.047563   0.031279  -0.004641  -0.096308  -0.657124
   25  C  2 XX    0.021107   0.005029   0.025907   0.005737  -0.003192
   26  C  2 YY    0.005441   0.010707  -0.003794   0.002821   0.009916
   27  C  2 ZZ   -0.026548  -0.015735  -0.022113  -0.008558  -0.006724
   28  C  2 XY    0.007412  -0.014038  -0.001459  -0.006930  -0.007995
   29  C  2 XZ    0.011643  -0.011501  -0.057713  -0.006966  -0.013618
   30  C  2 YZ   -0.003948   0.048216  -0.020613   0.032443  -0.003379
   31  H  3  S    0.112299  -0.002776   0.251234   0.015875   0.075102
   32  H  3  S    0.040631   0.006785   0.121737  -0.100321   0.614399
   33  H  3  X    0.009244   0.002512   0.007210  -0.007852  -0.000455
   34  H  3  Y    0.003596  -0.008445  -0.000223   0.024304   0.003665
   35  H  3  Z    0.006685   0.001350  -0.007258  -0.003271  -0.000493
   36  H  4  S    0.150714  -0.006386  -0.252254   0.014247   0.036195
   37  H  4  S    0.058166   0.000925  -0.155433  -0.087159   1.907634
   38  H  4  X   -0.014269   0.002555   0.003837  -0.006175  -0.012809
   39  H  4  Y   -0.004109  -0.008491   0.003884   0.025092  -0.003357
   40  H  4  Z    0.000189   0.001710   0.009335  -0.003115  -0.019255

                     11         12         13         14         15
                    0.3112     0.3693     0.6780     0.7037     0.7435
                     A          A          A          A          A   
    1  O  1  S   -0.004950   0.069794  -0.020211   0.016249  -0.002109
    2  O  1  S    0.000474  -0.068285  -0.081161   0.058809  -0.001848
    3  O  1  S    0.104834  -1.682484  -0.039398   0.009038   0.036862
    4  O  1  X    0.081816   0.042434   0.011196   0.001097   0.299342
    5  O  1  Y    0.033441  -0.005871  -0.009020   0.017970   0.090548
    6  O  1  Z   -0.004100  -0.124442  -0.034975   0.021339   0.054980
    7  O  1  X    0.237990   0.155130   0.011828  -0.014071   0.323130
    8  O  1  Y    0.081572  -0.069040   0.029759   0.061221   0.102300
    9  O  1  Z    0.057498  -0.621360  -0.103701   0.041583   0.088103
   10  O  1 XX    0.001882   0.011761  -0.002717   0.007171   0.002567
   11  O  1 YY   -0.000981   0.014122   0.011504   0.000054  -0.000734
   12  O  1 ZZ   -0.000901  -0.025883  -0.008787  -0.007225  -0.001833
   13  O  1 XY   -0.000973   0.001133  -0.009925  -0.004903  -0.000241
   14  O  1 XZ   -0.010451   0.011309  -0.004225  -0.008516  -0.008366
   15  O  1 YZ   -0.004145  -0.005608   0.018590   0.029546  -0.003466
   16  C  2  S    0.004172  -0.046420  -0.106546   0.063205  -0.001252
   17  C  2  S    0.088802   0.009418  -0.113530   0.060727   0.000614
   18  C  2  S    0.445627   1.309995   0.608141  -0.289790  -0.011020
   19  C  2  X   -0.361515   0.003121  -0.134222  -0.250871   0.236166
   20  C  2  Y   -0.130895  -0.018991   0.585462   0.770350   0.049216
   21  C  2  Z    0.007232  -0.049831  -0.085984  -0.174465   0.056975
   22  C  2  X   -1.178091   0.373128   0.052224   0.281346  -1.844596
   23  C  2  Y   -0.314671  -0.188193  -0.571456  -0.843890  -0.538074
   24  C  2  Z    0.001870  -1.642229   0.364769  -0.004547  -0.353821
   25  C  2 XX   -0.003734  -0.007973  -0.151184   0.105295  -0.041798
   26  C  2 YY    0.007459  -0.012239   0.147237  -0.119370   0.011700
   27  C  2 ZZ   -0.003726   0.020211   0.003947   0.014074   0.030098
   28  C  2 XY   -0.003387  -0.000870  -0.105762   0.095378   0.004923
   29  C  2 XZ   -0.002896  -0.012159  -0.033106   0.049357   0.093787
   30  C  2 YZ   -0.005766   0.003939  -0.069924   0.008753   0.032643
   31  H  3  S   -0.003256  -0.008807  -0.651828   0.424550  -0.726244
   32  H  3  S   -2.057126   0.052460   0.185355  -0.187125  -0.531918
   33  H  3  X    0.010192  -0.007991   0.076397  -0.064820  -0.013705
   34  H  3  Y    0.000867  -0.005922   0.051448   0.008787  -0.016638
   35  H  3  Z   -0.000434  -0.018162   0.010544  -0.024421  -0.066698
   36  H  4  S   -0.063559  -0.005011  -0.663804   0.497648   0.704944
   37  H  4  S    1.258838   0.135211   0.250518  -0.257993   0.526078
   38  H  4  X   -0.007970   0.014168  -0.098470   0.067330  -0.049378
   39  H  4  Y   -0.006452   0.000908  -0.005075   0.052216  -0.003813
   40  H  4  Z   -0.002925  -0.013302  -0.034237   0.024488   0.054335

                     16         17         18
                    0.8376     0.8912     0.9926
                     A          A          A   
    1  O  1  S    0.001751  -0.037370  -0.013490
    2  O  1  S    0.020779  -0.187948  -0.000109
    3  O  1  S    0.034772   0.298508   0.681173
    4  O  1  X   -0.018319   0.083681   0.045417
    5  O  1  Y    0.003579  -0.040946  -0.037483
    6  O  1  Z    0.022345  -0.326372  -0.299866
    7  O  1  X   -0.012912   0.081617  -0.099676
    8  O  1  Y    0.010155  -0.038547   0.067711
    9  O  1  Z    0.083567  -0.358285   0.533094
   10  O  1 XX   -0.006651  -0.044328  -0.014109
   11  O  1 YY    0.003646  -0.045635  -0.031497
   12  O  1 ZZ    0.003005   0.089963   0.045606
   13  O  1 XY    0.002095  -0.005219   0.002209
   14  O  1 XZ    0.027884  -0.035178  -0.021884
   15  O  1 YZ    0.008990   0.018409   0.010830
   16  C  2  S    0.073412   0.068472   0.664227
   17  C  2  S    0.154805   0.258040   1.553109
   18  C  2  S   -0.481276   0.711315  -3.772730
   19  C  2  X    0.722853   0.330946  -0.129148
   20  C  2  Y    0.281364  -0.084398   0.013295
   21  C  2  Z    0.303540  -0.916576   0.227076
   22  C  2  X   -1.561427  -0.470121   0.277326
   23  C  2  Y   -0.551384   0.059606  -0.005875
   24  C  2  Z   -0.513281   0.973642  -0.378357
   25  C  2 XX    0.119150   0.185831   0.008246
   26  C  2 YY   -0.030854   0.111357   0.144834
   27  C  2 ZZ   -0.088296  -0.297189  -0.153080
   28  C  2 XY   -0.013462   0.038442  -0.027459
   29  C  2 XZ   -0.309812   0.086864   0.106787
   30  C  2 YZ   -0.103317  -0.058501  -0.033971
   31  H  3  S    0.362831   0.017436  -0.055392
   32  H  3  S   -1.390044  -0.678192   1.386957
   33  H  3  X   -0.164748  -0.121731   0.185479
   34  H  3  Y   -0.028577  -0.037870   0.028330
   35  H  3  Z    0.099563  -0.026870  -0.126094
   36  H  4  S   -0.268063  -0.075060   0.008280
   37  H  4  S    1.652522  -0.236054   0.989971
   38  H  4  X   -0.150886   0.088339  -0.082379
   39  H  4  Y   -0.074314   0.020589  -0.050862
   40  H  4  Z   -0.191077  -0.021472  -0.161479

     -------------------------------------------------
     MP2 PROPERTIES...FOR THE FIRST ORDER WAVEFUNCTION
          USING THE RESPONSE (OR RELAXED) DENSITY
     -------------------------------------------------

          -----------------
          ENERGY COMPONENTS
          -----------------

         WAVEFUNCTION NORMALIZATION =       1.0000000000

                ONE ELECTRON ENERGY =    -216.7285720826
                TWO ELECTRON ENERGY =      71.4749499478
           NUCLEAR REPULSION ENERGY =      30.9557128491
          EFFECTIVE FRAGMENT ENERGY =       0.0445218098
                                      ------------------
                       TOTAL ENERGY =    -114.2533874759

 ELECTRON-ELECTRON POTENTIAL ENERGY =      71.4749499478
  NUCLEUS-ELECTRON POTENTIAL ENERGY =    -330.6044427910
   NUCLEUS-NUCLEUS POTENTIAL ENERGY =      30.9557128491
 ELECTRON-FRAGMENT MULTIPOLE ENERGY =      -0.0487202768
 ELECTRON-FRAGMENT REMAINDER ENERGY =       0.0043785407
        STATIC INTERFRAGMENT ENERGY =      -0.0333585826
            FRAGMENT-NUCLEAR ENERGY =       0.0266349213
    TOTAL FRAGMENT INDUCTION ENERGY =      -0.0121316555
 ELECTRON-FRAGMENT EXCHANGE REPULSION =      0.0000000000
                                      ------------------
             TOTAL POTENTIAL ENERGY =    -228.2369770471
                                      ------------------
            SOLUTE POTENTIAL ENERGY =    -228.1737799942
              SOLUTE KINETIC ENERGY =     113.9835895711
                 VIRIAL RATIO (V/T) =       2.0018125491

          ---------------------------------------
          MULLIKEN AND LOWDIN POPULATION ANALYSES
          ---------------------------------------

               ----- POPULATIONS IN EACH AO -----
                             MULLIKEN      LOWDIN
              1  O  1  S      2.00252     1.90406
              2  O  1  S      0.85738     0.62349
              3  O  1  S      0.90356     0.51745
              4  O  1  X      1.07857     1.03470
              5  O  1  Y      0.77783     0.72643
              6  O  1  Z      0.90748     0.85565
              7  O  1  X      0.69357     0.69616
              8  O  1  Y      0.52801     0.54947
              9  O  1  Z      0.49416     0.58057
             10  O  1 XX      0.01083     0.18756
             11  O  1 YY      0.00373     0.18688
             12  O  1 ZZ      0.00392     0.20493
             13  O  1 XY      0.00815     0.00400
             14  O  1 XZ      0.00846     0.01218
             15  O  1 YZ      0.00000     0.00976
             16  C  2  S      2.00374     1.87734
             17  C  2  S      0.70278     0.50581
             18  C  2  S      0.44364     0.31242
             19  C  2  X      0.71550     0.62820
             20  C  2  Y      0.46944     0.42352
             21  C  2  Z      0.71003     0.63040
             22  C  2  X      0.26716     0.39258
             23  C  2  Y      0.26053     0.30650
             24  C  2  Z      0.12944     0.27271
             25  C  2 XX      0.03498     0.17533
             26  C  2 YY      0.00890     0.09772
             27  C  2 ZZ      0.00589     0.21173
             28  C  2 XY      0.06309     0.00999
             29  C  2 XZ      0.03006     0.15321
             30  C  2 YZ      0.00000     0.05837
             31  H  3  S      0.74369     0.59836
             32  H  3  S      0.13402     0.24766
             33  H  3  X      0.01960     0.04332
             34  H  3  Y      0.00492     0.01231
             35  H  3  Z      0.00642     0.01539
             36  H  4  S      0.75021     0.59815
             37  H  4  S      0.18703     0.26734
             38  H  4  X      0.01274     0.02762
             39  H  4  Y      0.00623     0.01454
             40  H  4  Z      0.01178     0.02619

          ----- MULLIKEN ATOMIC OVERLAP POPULATIONS -----
          (OFF-DIAGONAL ELEMENTS NEED TO BE MULTIPLIED BY 2)

             1           2           3           4

    1    7.7472211
    2    0.6176029   4.4682632
    3   -0.0385672   0.3912577   0.6183919
    4   -0.0480921   0.3680661  -0.0624243   0.7104377

          TOTAL MULLIKEN AND LOWDIN ATOMIC POPULATIONS
       ATOM         MULL.POP.    CHARGE          LOW.POP.     CHARGE
    1 O             8.278165   -0.278165         8.093285   -0.093285
    2 C             5.845190    0.154810         6.055840   -0.055840
    3 H             0.908658    0.091342         0.917044    0.082956
    4 H             0.967987    0.032013         0.933830    0.066170

          MULLIKEN SPHERICAL HARMONIC POPULATIONS
       ATOM           S       P       D      F      G      H      I    TOTAL
    1 O             3.76    4.48    0.04   0.00   0.00   0.00   0.00    8.28
    2 C             3.15    2.55    0.14   0.00   0.00   0.00   0.00    5.85
    3 H             0.88    0.03    0.00   0.00   0.00   0.00   0.00    0.91
    4 H             0.94    0.03    0.00   0.00   0.00   0.00   0.00    0.97

          -------------------------------
          BOND ORDER AND VALENCE ANALYSIS     BOND ORDER THRESHOLD=0.050
          -------------------------------

                   BOND                       BOND                       BOND
  ATOM PAIR DIST  ORDER      ATOM PAIR DIST  ORDER      ATOM PAIR DIST  ORDER
    1   2  1.221  1.999        2   3  1.109  0.914        2   4  1.112  0.912

                       TOTAL       BONDED        FREE
      ATOM            VALENCE     VALENCE     VALENCE
    1 O                 2.413       2.045       0.368
    2 C                 4.101       3.825       0.276
    3 H                 0.971       0.927       0.044
    4 H                 0.973       0.927       0.046

          ----------------------------
          SOLUTE ELECTROSTATIC MOMENTS
          ----------------------------

 POINT   1           X           Y           Z (BOHR)    CHARGE
                 3.481309   -1.948767   -1.234842        0.00 (A.U.)
         DX          DY          DZ         /D/  (DEBYE)
    -0.754272    0.385994    2.679399    2.810177

          ----------------------------------------
          EFFECTIVE FRAGMENT ELECTROSTATIC MOMENTS
          ----------------------------------------

 FRAGMENT   1  H2ODFT
          X           Y           Z (BOHR)    CHARGE
    -0.316533   -2.173425   -5.445664       -0.00 (A.U.)
         DX          DY          DZ         /D/  (DEBYE)
     2.208235   -0.199221   -1.048158    2.452473

 FRAGMENT   2  H2ODFT
          X           Y           Z (BOHR)    CHARGE
    -2.391204    1.176000   -2.184779       -0.00 (A.U.)
         DX          DY          DZ         /D/  (DEBYE)
    -0.547771   -2.537002   -0.177094    2.601498

 FRAGMENT   3  H2ODFT
          X           Y           Z (BOHR)    CHARGE
    -2.681213   -0.020004    2.936003       -0.00 (A.U.)
         DX          DY          DZ         /D/  (DEBYE)
     0.362196    1.710120    1.580526    2.356642

 FRAGMENT   4  H2ODFT
          X           Y           Z (BOHR)    CHARGE
     0.785220    3.238986    1.009563       -0.00 (A.U.)
         DX          DY          DZ         /D/  (DEBYE)
    -0.596634    1.489380   -1.950727    2.525779


          ----------------------------
          SYSTEM ELECTROSTATIC MOMENTS
          ----------------------------

 POINT   1           X           Y           Z (BOHR)    CHARGE
                 3.481309   -1.948767   -1.234842        0.00 (A.U.)
         DX          DY          DZ         /D/  (DEBYE)
     0.649872    0.838498    1.093278    1.523374
 ...... END OF PROPERTY EVALUATION ......
 STEP CPU TIME =     0.01 TOTAL CPU TIME =       63.2 (    1.1 MIN)
 TOTAL WALL CLOCK TIME=      118.6 SECONDS, CPU UTILIZATION IS  53.27%
  $VIB   
          IVIB=   0 IATOM=   0 ICOORD=   0 E=     -114.2533874759
 -1.757102864E-05 4.054219446E-05 1.030170931E-05-1.296527861E-05 1.296244574E-05
 -3.920186399E-06 1.899540075E-05-1.099293887E-05 2.612284320E-05 2.370678181E-05
 -3.097294091E-05-5.712514937E-06
 2.375100079E-07-5.409395036E-06 4.028699985E-06
-3.617610831E-06 4.041817125E-06 1.103215840E-05
-9.203663619E-06 5.398767028E-06-1.186760109E-05
-5.438325276E-06 6.458687195E-06 3.515434085E-06
-1.439580959E-05 3.141683769E-06-1.072216342E-05
-7.951267507E-07-2.449891763E-06-1.288164635E-06
 1.119609049E-05-1.466981632E-05-8.230782464E-06
-7.368853765E-06 1.400130256E-06-3.424174944E-06
  6.498716701E-01 8.384977353E-01 1.093277878E+00
 ......END OF GEOMETRY SEARCH......
 STEP CPU TIME =     0.00 TOTAL CPU TIME =       63.2 (    1.1 MIN)
 TOTAL WALL CLOCK TIME=      118.7 SECONDS, CPU UTILIZATION IS  53.26%
               580000  WORDS OF DYNAMIC MEMORY USED
 EXECUTION OF GAMESS TERMINATED NORMALLY Mon Nov 28 23:34:37 2016
 DDI: 263640 bytes (0.3 MB / 0 MWords) used by master data server.

 ----------------------------------------
 CPU timing information for all processes
 ========================================
 0: 61.686 + 1.522 = 63.209
 ----------------------------------------
 ddikick.x: exited gracefully.
unset echo
----- accounting info -----
Files used on the master node compute-3-0 were:
-rw-rw-r-- 1 sarom sarom  340428 Nov 29  2016 .//h2co-4wat-rmp2.dat
-rw-rw-r-- 1 sarom sarom    2380 Nov 29  2016 .//h2co-4wat-rmp2.F05
-rw-rw-r-- 1 sarom sarom 3960352 Nov 29  2016 .//h2co-4wat-rmp2.F08
-rw-rw-r-- 1 sarom sarom 2028640 Nov 29  2016 .//h2co-4wat-rmp2.F10
-rw-rw-r-- 1 sarom sarom  394080 Nov 29  2016 .//h2co-4wat-rmp2.F25
-rw-rw-r-- 1 sarom sarom    2380 Nov 27 05:47 .//h2co-4wat-rmp2.inp
-rw-rw-r-- 1 sarom sarom  423224 Nov 29  2016 .//h2co-4wat-rmp2.log
Mon Nov 28 23:34:40 CST 2016
0.237u 0.076s 2:02.07 0.2%	0+0k 0+136io 0pf+0w
