----- GAMESS execution script 'rungms' -----
This job is running on host compute-3-0
under operating system Linux at Mon Nov 28 23:33:33 CST 2016
Available scratch disk space (Kbyte units) at beginning of the job is
Filesystem            1K-blocks       Used  Available Use% Mounted on
bolt.local:/export/home/sarom
                     9590469632 1553798144 7549503488  18% /home/sarom
Copying input file tip5p-md-prop.inp to your run's scratch directory...
cp tip5p-md-prop.inp .//tip5p-md-prop.F05
unset echo
/home/sarom/gamessGH/ddikick.x /home/sarom/gamessGH/gamess.00.x tip5p-md-prop -ddi 1 1 localhost -scr ./

 Distributed Data Interface kickoff program.
 Initiating 1 compute processes on 1 nodes to run the following command:
 /home/sarom/gamessGH/gamess.00.x tip5p-md-prop 

          ******************************************************
          *         GAMESS VERSION = 18 AUG 2016 (R1)          *
          *             FROM IOWA STATE UNIVERSITY             *
          * M.W.SCHMIDT, K.K.BALDRIDGE, J.A.BOATZ, S.T.ELBERT, *
          *   M.S.GORDON, J.H.JENSEN, S.KOSEKI, N.MATSUNAGA,   *
          *          K.A.NGUYEN, S.J.SU, T.L.WINDUS,           *
          *       TOGETHER WITH M.DUPUIS, J.A.MONTGOMERY       *
          *         J.COMPUT.CHEM.  14, 1347-1363(1993)        *
          **************** 64 BIT LINUX VERSION ****************

  SINCE 1993, STUDENTS AND POSTDOCS WORKING AT IOWA STATE UNIVERSITY
  AND ALSO IN THEIR VARIOUS JOBS AFTER LEAVING ISU HAVE MADE IMPORTANT
  CONTRIBUTIONS TO THE CODE:
     IVANA ADAMOVIC, CHRISTINE AIKENS, YURI ALEXEEV, POOJA ARORA,
     ANDREY ASADCHEV, ROB BELL, PRADIPTA BANDYOPADHYAY, JONATHAN BENTZ,
     BRETT BODE, KURT BRORSEN, CALEB CARLIN, GALINA CHABAN, WEI CHEN,
     CHEOL HO CHOI, PAUL DAY, ALBERT DEFUSCO, NUWAN DESILVA, TIM DUDLEY,
     DMITRI FEDOROV, GRAHAM FLETCHER, MARK FREITAG, KURT GLAESEMANN,
     DAN KEMP, GRANT MERRILL, NORIYUKI MINEZAWA, JONATHAN MULLIN,
     TAKESHI NAGATA, SEAN NEDD, HEATHER NETZLOFF, BOSILJKA NJEGIC, RYAN OLSON,
     MIKE PAK, SPENCER PRUITT, LUKE ROSKOP, JIM SHOEMAKER, LYUDMILA SLIPCHENKO,
     TONY SMITH, SAROM SOK LEANG, JIE SONG, TETSUYA TAKETSUGU, SIMON WEBB,
     PENG XU, SOOHAENG YOO, FEDERICO ZAHARIEV

  ADDITIONAL CODE HAS BEEN PROVIDED BY COLLABORATORS IN OTHER GROUPS:
     IOWA STATE UNIVERSITY:
          JOE IVANIC, AARON WEST, LAIMUTIS BYTAUTAS, KLAUS RUEDENBERG
     UNIVERSITY OF TOKYO: KIMIHIKO HIRAO, TAKAHITO NAKAJIMA,
          TAKAO TSUNEDA, MUNEAKI KAMIYA, SUSUMU YANAGISAWA,
          KIYOSHI YAGI, MAHITO CHIBA, SEIKEN TOKURA, NAOAKI KAWAKAMI
     UNIVERSITY OF AARHUS: FRANK JENSEN
     UNIVERSITY OF IOWA: VISVALDAS KAIRYS, HUI LI
     NATIONAL INST. OF STANDARDS AND TECHNOLOGY: WALT STEVENS, DAVID GARMER
     UNIVERSITY OF PISA: BENEDETTA MENNUCCI, JACOPO TOMASI
     UNIVERSITY OF MEMPHIS: HENRY KURTZ, PRAKASHAN KORAMBATH
     UNIVERSITY OF ALBERTA: TOBY ZENG, MARIUSZ KLOBUKOWSKI
     UNIVERSITY OF NEW ENGLAND: MARK SPACKMAN
     MIE UNIVERSITY: HIROAKI UMEDA
     NAT. INST. OF ADVANCED INDUSTRIAL SCIENCE AND TECHNOLOGY: KAZUO KITAURA
     MICHIGAN STATE UNIVERSITY:
          KAROL KOWALSKI, MARTA WLOCH, JEFFREY GOUR, JESSE LUTZ,
          WEI LI, PIOTR PIECUCH
     UNIVERSITY OF SILESIA: MONIKA MUSIAL, STANISLAW KUCHARSKI
     FACULTES UNIVERSITAIRES NOTRE-DAME DE LA PAIX:
          OLIVIER QUINET, BENOIT CHAMPAGNE
     UNIVERSITY OF CALIFORNIA - SANTA BARBARA: BERNARD KIRTMAN
     INSTITUTE FOR MOLECULAR SCIENCE:
          KAZUYA ISHIMURA, MICHIO KATOUDA, AND SHIGERU NAGASE
     UNIVERSITY OF NOTRE DAME: ANNA POMOGAEVA, DAN CHIPMAN
     KYUSHU UNIVERSITY:
          HARUYUKI NAKANO,
          FENG LONG GU, JACEK KORCHOWIEC, MARCIN MAKOWSKI, AND YURIKO AOKI,
          HIROTOSHI MORI AND EISAKU MIYOSHI
     PENNSYLVANIA STATE UNIVERSITY:
          TZVETELIN IORDANOV, CHET SWALINA, JONATHAN SKONE,
          SHARON HAMMES-SCHIFFER
     WASEDA UNIVERSITY:
          MASATO KOBAYASHI, TOMOKO AKAMA, TSUGUKI TOUMA,
          TAKESHI YOSHIKAWA, YASUHIRO IKABATA, JUNJI SEINO,
          YUYA NAKAJIMA, HIROMI NAKAI
     NANJING UNIVERSITY: SHUHUA LI
     UNIVERSITY OF NEBRASKA:
          PEIFENG SU, DEJUN SI, NANDUN THELLAMUREGE, YALI WANG, HUI LI
     UNIVERSITY OF ZURICH: ROBERTO PEVERATI, KIM BALDRIDGE
     N. COPERNICUS UNIVERSITY AND JACKSON STATE UNIVERSITY:
          MARIA BARYSZ
     UNIVERSITY OF COPENHAGEN: Jimmy Kromann, CASPER STEINMANN
     TOKYO INSTITUTE OF TECHNOLOGY: HIROYA NAKATA
     NAGOYA UNIVERSITY: YOSHIO NISHIMOTO, STEPHAN IRLE
     MOSCOW STATE UNIVERSITY: VLADIMIR MIRONOV

 EXECUTION OF GAMESS BEGUN Mon Nov 28 23:33:33 2016

            ECHO OF THE FIRST FEW INPUT CARDS -
 INPUT CARD>!    MD simulation testing pressures, from Hui Li in December 2010.             
 INPUT CARD>!    The run is on 512 water molecules.                                         
 INPUT CARD>!                                                                               
 INPUT CARD>!    The default test is run for 20 fsec, rather than Hui's 2000 fsec,          
 INPUT CARD>!    to lower the time demand by a factor of 100x.  This is too short           
 INPUT CARD>!    a trajectory to give properties!  See below for more information           
 INPUT CARD>!    about the use of longer trajectories.                                      
 INPUT CARD>!                                                                               
 INPUT CARD>!         *** AT T=         20.00 FSEC, THIS RUN'S STEP NO.=      20            
 INPUT CARD>!             ELEC ENERGY      =       -5968.73472113 KCAL/MOL                  
 INPUT CARD>!             POLZ ENERGY      =           0.00000000 KCAL/MOL                  
 INPUT CARD>!             DISP ENERGY      =           0.00000000 KCAL/MOL                  
 INPUT CARD>!             CH-TR ENRGY      =           0.00000000 KCAL/MOL                  
 INPUT CARD>!             REP  ENERGY      =         912.11304610 KCAL/MOL                  
 INPUT CARD>!             POT  ENERGY      =       -5056.62167502 KCAL/MOL                  
 INPUT CARD>!                                                                               
 INPUT CARD>!             TRANS    KE      =         453.79177512 KCAL/MOL                  
 INPUT CARD>!             ROT      KE      =         455.24341135 KCAL/MOL                  
 INPUT CARD>!             TOT      KE      =         909.03518647 KCAL/MOL                  
 INPUT CARD>!                                                                               
 INPUT CARD>!             TOTAL ENERGY     =       -4147.58648855 KCAL/MOL 35.13060451      
 INPUT CARD>!                                                                               
 INPUT CARD>!             TEMPERATURE      =         297.81351542 K                         
 INPUT CARD>!             PRESSURE(AVERAGE)=              51.5397 BAR    ( 207.7381 BAR)    
 INPUT CARD>!             HEAT OF VAP      =          10.50843925 KCAL/MOL*K                
 INPUT CARD>!               ROT.KE TEMP =     298.29                                        
 INPUT CARD>!             TRANS.KE TEMP =     297.34                                        
 INPUT CARD>!                                                                               
 INPUT CARD>!    This run takes 31 seconds on 2.66 GHz Cloverton (26 Oct 2015)              
 INPUT CARD>!                                                                               
 INPUT CARD>!    ---------------------------------------------------------------------      
 INPUT CARD>!                       Hui's comments follow:                                  
 INPUT CARD>!    So, E and P will fluctuate. You can see P is OK, the average               
 INPUT CARD>!    is ~70  bar, which is 'very accurate'.                                     
 INPUT CARD>!    The heat of vap = 10.4 kcal/mol, which is correct.                         
 INPUT CARD>!                                                                               
 INPUT CARD>!    Since TIP5P is so well parameterized, it is very close to experimental     
 INPUT CARD>!    results for some properties. But I have to mention that box sizes,         
 INPUT CARD>!    switching functions and Ewald sums may affect the accuracy of TIP5P        
 INPUT CARD>!    results.  These are well known. Of course, TIP5PE should be good when      
 INPUT CARD>!    Ewald sums are used.                                                       
 INPUT CARD>!                                                                               
 INPUT CARD>!    TIP5P is good, and maybe TIP5PE, SPC and SPCE are good.                    
 INPUT CARD>!    I do not think my POL5P and H2ORHF and H2ODFT will give satisfactory       
 INPUT CARD>!    results for P.                                                             
 INPUT CARD>!    ---------------------------------------------------------------------      
 INPUT CARD>!    Here, we show three different full 2,000 fs runs, one from Hui,            
 INPUT CARD>!    and then some results at shorter times to show the trajectories            
 INPUT CARD>!    all start off exactly the same.                                            
 INPUT CARD>!                                                                               
   50000000 WORDS OF MEMORY AVAILABLE

     $CONTRL OPTIONS
     ---------------
 SCFTYP=RHF          RUNTYP=MD           EXETYP=RUN     
 MPLEVL=       0     CITYP =NONE         CCTYP =NONE         VBTYP =NONE    
 DFTTYP=NONE         TDDFT =NONE    
 MULT  =       1     ICHARG=       0     NZVAR =       0     COORD =FRAGONLY
 PP    =NONE         RELWFN=NONE         LOCAL =NONE         NUMGRD=       F
 ISPHER=      -1     NOSYM =       0     MAXIT =      30     UNITS =ANGS    
 PLTORB=       F     MOLPLT=       F     AIMPAC=       F     FRIEND=        
 NPRINT=       7     IREST =       0     GEOM  =INPUT   
 NORMF =       0     NORMP =       0     ITOL  =      20     ICUT  =       9
 INTTYP=BEST         GRDTYP=BEST         QMTTOL= 1.0E-06

     $SYSTEM OPTIONS
     ---------------
  REPLICATED MEMORY=    50000000 WORDS (ON EVERY NODE).
 DISTRIBUTED MEMDDI=           0 MILLION WORDS IN AGGREGATE,
 MEMDDI DISTRIBUTED OVER   1 PROCESSORS IS           0 WORDS/PROCESSOR.
 TOTAL MEMORY REQUESTED ON EACH PROCESSOR=    50000000 WORDS.
 TIMLIM=      525600.00 MINUTES, OR     365.0 DAYS.
 PARALL= F  BALTYP=  DLB     KDIAG=    0  COREFL= F
 MXSEQ2=     300 MXSEQ3=     150  mem10=         0

 READING $EFRAG GROUP
 COORD=CART      POSITION=OPTIMIZE  POLMETHD=FRGSCF   NBUFFMO=0
 READING COORDINATES OF FRAGMENT   1 NAMED   TIP5P 
 READING COORDINATES OF FRAGMENT   2 NAMED   TIP5P 
 READING COORDINATES OF FRAGMENT   3 NAMED   TIP5P 
 READING COORDINATES OF FRAGMENT   4 NAMED   TIP5P 
 READING COORDINATES OF FRAGMENT   5 NAMED   TIP5P 
 READING COORDINATES OF FRAGMENT   6 NAMED   TIP5P 
 READING COORDINATES OF FRAGMENT   7 NAMED   TIP5P 
 READING COORDINATES OF FRAGMENT   8 NAMED   TIP5P 
 READING COORDINATES OF FRAGMENT   9 NAMED   TIP5P 
 READING COORDINATES OF FRAGMENT  10 NAMED   TIP5P 
 READING COORDINATES OF FRAGMENT  11 NAMED   TIP5P 
 READING COORDINATES OF FRAGMENT  12 NAMED   TIP5P 
 READING COORDINATES OF FRAGMENT  13 NAMED   TIP5P 
 READING COORDINATES OF FRAGMENT  14 NAMED   TIP5P 
 READING COORDINATES OF FRAGMENT  15 NAMED   TIP5P 
 READING COORDINATES OF FRAGMENT  16 NAMED   TIP5P 
 READING COORDINATES OF FRAGMENT  17 NAMED   TIP5P 
 READING COORDINATES OF FRAGMENT  18 NAMED   TIP5P 
 READING COORDINATES OF FRAGMENT  19 NAMED   TIP5P 
 READING COORDINATES OF FRAGMENT  20 NAMED   TIP5P 
 READING COORDINATES OF FRAGMENT  21 NAMED   TIP5P 
 READING COORDINATES OF FRAGMENT  22 NAMED   TIP5P 
 READING COORDINATES OF FRAGMENT  23 NAMED   TIP5P 
 READING COORDINATES OF FRAGMENT  24 NAMED   TIP5P 
 READING COORDINATES OF FRAGMENT  25 NAMED   TIP5P 
 READING COORDINATES OF FRAGMENT  26 NAMED   TIP5P 
 READING COORDINATES OF FRAGMENT  27 NAMED   TIP5P 
 READING COORDINATES OF FRAGMENT  28 NAMED   TIP5P 
 READING COORDINATES OF FRAGMENT  29 NAMED   TIP5P 
 READING COORDINATES OF FRAGMENT  30 NAMED   TIP5P 
 READING COORDINATES OF FRAGMENT  31 NAMED   TIP5P 
 READING COORDINATES OF FRAGMENT  32 NAMED   TIP5P 
 READING COORDINATES OF FRAGMENT  33 NAMED   TIP5P 
 READING COORDINATES OF FRAGMENT  34 NAMED   TIP5P 
 READING COORDINATES OF FRAGMENT  35 NAMED   TIP5P 
 READING COORDINATES OF FRAGMENT  36 NAMED   TIP5P 
 READING COORDINATES OF FRAGMENT  37 NAMED   TIP5P 
 READING COORDINATES OF FRAGMENT  38 NAMED   TIP5P 
 READING COORDINATES OF FRAGMENT  39 NAMED   TIP5P 
 READING COORDINATES OF FRAGMENT  40 NAMED   TIP5P 
 READING COORDINATES OF FRAGMENT  41 NAMED   TIP5P 
 READING COORDINATES OF FRAGMENT  42 NAMED   TIP5P 
 READING COORDINATES OF FRAGMENT  43 NAMED   TIP5P 
 READING COORDINATES OF FRAGMENT  44 NAMED   TIP5P 
 READING COORDINATES OF FRAGMENT  45 NAMED   TIP5P 
 READING COORDINATES OF FRAGMENT  46 NAMED   TIP5P 
 READING COORDINATES OF FRAGMENT  47 NAMED   TIP5P 
 READING COORDINATES OF FRAGMENT  48 NAMED   TIP5P 
 READING COORDINATES OF FRAGMENT  49 NAMED   TIP5P 
 READING COORDINATES OF FRAGMENT  50 NAMED   TIP5P 
 READING COORDINATES OF FRAGMENT  51 NAMED   TIP5P 
 READING COORDINATES OF FRAGMENT  52 NAMED   TIP5P 
 READING COORDINATES OF FRAGMENT  53 NAMED   TIP5P 
 READING COORDINATES OF FRAGMENT  54 NAMED   TIP5P 
 READING COORDINATES OF FRAGMENT  55 NAMED   TIP5P 
 READING COORDINATES OF FRAGMENT  56 NAMED   TIP5P 
 READING COORDINATES OF FRAGMENT  57 NAMED   TIP5P 
 READING COORDINATES OF FRAGMENT  58 NAMED   TIP5P 
 READING COORDINATES OF FRAGMENT  59 NAMED   TIP5P 
 READING COORDINATES OF FRAGMENT  60 NAMED   TIP5P 
 READING COORDINATES OF FRAGMENT  61 NAMED   TIP5P 
 READING COORDINATES OF FRAGMENT  62 NAMED   TIP5P 
 READING COORDINATES OF FRAGMENT  63 NAMED   TIP5P 
 READING COORDINATES OF FRAGMENT  64 NAMED   TIP5P 
 READING COORDINATES OF FRAGMENT  65 NAMED   TIP5P 
 READING COORDINATES OF FRAGMENT  66 NAMED   TIP5P 
 READING COORDINATES OF FRAGMENT  67 NAMED   TIP5P 
 READING COORDINATES OF FRAGMENT  68 NAMED   TIP5P 
 READING COORDINATES OF FRAGMENT  69 NAMED   TIP5P 
 READING COORDINATES OF FRAGMENT  70 NAMED   TIP5P 
 READING COORDINATES OF FRAGMENT  71 NAMED   TIP5P 
 READING COORDINATES OF FRAGMENT  72 NAMED   TIP5P 
 READING COORDINATES OF FRAGMENT  73 NAMED   TIP5P 
 READING COORDINATES OF FRAGMENT  74 NAMED   TIP5P 
 READING COORDINATES OF FRAGMENT  75 NAMED   TIP5P 
 READING COORDINATES OF FRAGMENT  76 NAMED   TIP5P 
 READING COORDINATES OF FRAGMENT  77 NAMED   TIP5P 
 READING COORDINATES OF FRAGMENT  78 NAMED   TIP5P 
 READING COORDINATES OF FRAGMENT  79 NAMED   TIP5P 
 READING COORDINATES OF FRAGMENT  80 NAMED   TIP5P 
 READING COORDINATES OF FRAGMENT  81 NAMED   TIP5P 
 READING COORDINATES OF FRAGMENT  82 NAMED   TIP5P 
 READING COORDINATES OF FRAGMENT  83 NAMED   TIP5P 
 READING COORDINATES OF FRAGMENT  84 NAMED   TIP5P 
 READING COORDINATES OF FRAGMENT  85 NAMED   TIP5P 
 READING COORDINATES OF FRAGMENT  86 NAMED   TIP5P 
 READING COORDINATES OF FRAGMENT  87 NAMED   TIP5P 
 READING COORDINATES OF FRAGMENT  88 NAMED   TIP5P 
 READING COORDINATES OF FRAGMENT  89 NAMED   TIP5P 
 READING COORDINATES OF FRAGMENT  90 NAMED   TIP5P 
 READING COORDINATES OF FRAGMENT  91 NAMED   TIP5P 
 READING COORDINATES OF FRAGMENT  92 NAMED   TIP5P 
 READING COORDINATES OF FRAGMENT  93 NAMED   TIP5P 
 READING COORDINATES OF FRAGMENT  94 NAMED   TIP5P 
 READING COORDINATES OF FRAGMENT  95 NAMED   TIP5P 
 READING COORDINATES OF FRAGMENT  96 NAMED   TIP5P 
 READING COORDINATES OF FRAGMENT  97 NAMED   TIP5P 
 READING COORDINATES OF FRAGMENT  98 NAMED   TIP5P 
 READING COORDINATES OF FRAGMENT  99 NAMED   TIP5P 
 READING COORDINATES OF FRAGMENT 100 NAMED   TIP5P 
 READING COORDINATES OF FRAGMENT 101 NAMED   TIP5P 
 READING COORDINATES OF FRAGMENT 102 NAMED   TIP5P 
 READING COORDINATES OF FRAGMENT 103 NAMED   TIP5P 
 READING COORDINATES OF FRAGMENT 104 NAMED   TIP5P 
 READING COORDINATES OF FRAGMENT 105 NAMED   TIP5P 
 READING COORDINATES OF FRAGMENT 106 NAMED   TIP5P 
 READING COORDINATES OF FRAGMENT 107 NAMED   TIP5P 
 READING COORDINATES OF FRAGMENT 108 NAMED   TIP5P 
 READING COORDINATES OF FRAGMENT 109 NAMED   TIP5P 
 READING COORDINATES OF FRAGMENT 110 NAMED   TIP5P 
 READING COORDINATES OF FRAGMENT 111 NAMED   TIP5P 
 READING COORDINATES OF FRAGMENT 112 NAMED   TIP5P 
 READING COORDINATES OF FRAGMENT 113 NAMED   TIP5P 
 READING COORDINATES OF FRAGMENT 114 NAMED   TIP5P 
 READING COORDINATES OF FRAGMENT 115 NAMED   TIP5P 
 READING COORDINATES OF FRAGMENT 116 NAMED   TIP5P 
 READING COORDINATES OF FRAGMENT 117 NAMED   TIP5P 
 READING COORDINATES OF FRAGMENT 118 NAMED   TIP5P 
 READING COORDINATES OF FRAGMENT 119 NAMED   TIP5P 
 READING COORDINATES OF FRAGMENT 120 NAMED   TIP5P 
 READING COORDINATES OF FRAGMENT 121 NAMED   TIP5P 
 READING COORDINATES OF FRAGMENT 122 NAMED   TIP5P 
 READING COORDINATES OF FRAGMENT 123 NAMED   TIP5P 
 READING COORDINATES OF FRAGMENT 124 NAMED   TIP5P 
 READING COORDINATES OF FRAGMENT 125 NAMED   TIP5P 
 READING COORDINATES OF FRAGMENT 126 NAMED   TIP5P 
 READING COORDINATES OF FRAGMENT 127 NAMED   TIP5P 
 READING COORDINATES OF FRAGMENT 128 NAMED   TIP5P 
 READING COORDINATES OF FRAGMENT 129 NAMED   TIP5P 
 READING COORDINATES OF FRAGMENT 130 NAMED   TIP5P 
 READING COORDINATES OF FRAGMENT 131 NAMED   TIP5P 
 READING COORDINATES OF FRAGMENT 132 NAMED   TIP5P 
 READING COORDINATES OF FRAGMENT 133 NAMED   TIP5P 
 READING COORDINATES OF FRAGMENT 134 NAMED   TIP5P 
 READING COORDINATES OF FRAGMENT 135 NAMED   TIP5P 
 READING COORDINATES OF FRAGMENT 136 NAMED   TIP5P 
 READING COORDINATES OF FRAGMENT 137 NAMED   TIP5P 
 READING COORDINATES OF FRAGMENT 138 NAMED   TIP5P 
 READING COORDINATES OF FRAGMENT 139 NAMED   TIP5P 
 READING COORDINATES OF FRAGMENT 140 NAMED   TIP5P 
 READING COORDINATES OF FRAGMENT 141 NAMED   TIP5P 
 READING COORDINATES OF FRAGMENT 142 NAMED   TIP5P 
 READING COORDINATES OF FRAGMENT 143 NAMED   TIP5P 
 READING COORDINATES OF FRAGMENT 144 NAMED   TIP5P 
 READING COORDINATES OF FRAGMENT 145 NAMED   TIP5P 
 READING COORDINATES OF FRAGMENT 146 NAMED   TIP5P 
 READING COORDINATES OF FRAGMENT 147 NAMED   TIP5P 
 READING COORDINATES OF FRAGMENT 148 NAMED   TIP5P 
 READING COORDINATES OF FRAGMENT 149 NAMED   TIP5P 
 READING COORDINATES OF FRAGMENT 150 NAMED   TIP5P 
 READING COORDINATES OF FRAGMENT 151 NAMED   TIP5P 
 READING COORDINATES OF FRAGMENT 152 NAMED   TIP5P 
 READING COORDINATES OF FRAGMENT 153 NAMED   TIP5P 
 READING COORDINATES OF FRAGMENT 154 NAMED   TIP5P 
 READING COORDINATES OF FRAGMENT 155 NAMED   TIP5P 
 READING COORDINATES OF FRAGMENT 156 NAMED   TIP5P 
 READING COORDINATES OF FRAGMENT 157 NAMED   TIP5P 
 READING COORDINATES OF FRAGMENT 158 NAMED   TIP5P 
 READING COORDINATES OF FRAGMENT 159 NAMED   TIP5P 
 READING COORDINATES OF FRAGMENT 160 NAMED   TIP5P 
 READING COORDINATES OF FRAGMENT 161 NAMED   TIP5P 
 READING COORDINATES OF FRAGMENT 162 NAMED   TIP5P 
 READING COORDINATES OF FRAGMENT 163 NAMED   TIP5P 
 READING COORDINATES OF FRAGMENT 164 NAMED   TIP5P 
 READING COORDINATES OF FRAGMENT 165 NAMED   TIP5P 
 READING COORDINATES OF FRAGMENT 166 NAMED   TIP5P 
 READING COORDINATES OF FRAGMENT 167 NAMED   TIP5P 
 READING COORDINATES OF FRAGMENT 168 NAMED   TIP5P 
 READING COORDINATES OF FRAGMENT 169 NAMED   TIP5P 
 READING COORDINATES OF FRAGMENT 170 NAMED   TIP5P 
 READING COORDINATES OF FRAGMENT 171 NAMED   TIP5P 
 READING COORDINATES OF FRAGMENT 172 NAMED   TIP5P 
 READING COORDINATES OF FRAGMENT 173 NAMED   TIP5P 
 READING COORDINATES OF FRAGMENT 174 NAMED   TIP5P 
 READING COORDINATES OF FRAGMENT 175 NAMED   TIP5P 
 READING COORDINATES OF FRAGMENT 176 NAMED   TIP5P 
 READING COORDINATES OF FRAGMENT 177 NAMED   TIP5P 
 READING COORDINATES OF FRAGMENT 178 NAMED   TIP5P 
 READING COORDINATES OF FRAGMENT 179 NAMED   TIP5P 
 READING COORDINATES OF FRAGMENT 180 NAMED   TIP5P 
 READING COORDINATES OF FRAGMENT 181 NAMED   TIP5P 
 READING COORDINATES OF FRAGMENT 182 NAMED   TIP5P 
 READING COORDINATES OF FRAGMENT 183 NAMED   TIP5P 
 READING COORDINATES OF FRAGMENT 184 NAMED   TIP5P 
 READING COORDINATES OF FRAGMENT 185 NAMED   TIP5P 
 READING COORDINATES OF FRAGMENT 186 NAMED   TIP5P 
 READING COORDINATES OF FRAGMENT 187 NAMED   TIP5P 
 READING COORDINATES OF FRAGMENT 188 NAMED   TIP5P 
 READING COORDINATES OF FRAGMENT 189 NAMED   TIP5P 
 READING COORDINATES OF FRAGMENT 190 NAMED   TIP5P 
 READING COORDINATES OF FRAGMENT 191 NAMED   TIP5P 
 READING COORDINATES OF FRAGMENT 192 NAMED   TIP5P 
 READING COORDINATES OF FRAGMENT 193 NAMED   TIP5P 
 READING COORDINATES OF FRAGMENT 194 NAMED   TIP5P 
 READING COORDINATES OF FRAGMENT 195 NAMED   TIP5P 
 READING COORDINATES OF FRAGMENT 196 NAMED   TIP5P 
 READING COORDINATES OF FRAGMENT 197 NAMED   TIP5P 
 READING COORDINATES OF FRAGMENT 198 NAMED   TIP5P 
 READING COORDINATES OF FRAGMENT 199 NAMED   TIP5P 
 READING COORDINATES OF FRAGMENT 200 NAMED   TIP5P 
 READING COORDINATES OF FRAGMENT 201 NAMED   TIP5P 
 READING COORDINATES OF FRAGMENT 202 NAMED   TIP5P 
 READING COORDINATES OF FRAGMENT 203 NAMED   TIP5P 
 READING COORDINATES OF FRAGMENT 204 NAMED   TIP5P 
 READING COORDINATES OF FRAGMENT 205 NAMED   TIP5P 
 READING COORDINATES OF FRAGMENT 206 NAMED   TIP5P 
 READING COORDINATES OF FRAGMENT 207 NAMED   TIP5P 
 READING COORDINATES OF FRAGMENT 208 NAMED   TIP5P 
 READING COORDINATES OF FRAGMENT 209 NAMED   TIP5P 
 READING COORDINATES OF FRAGMENT 210 NAMED   TIP5P 
 READING COORDINATES OF FRAGMENT 211 NAMED   TIP5P 
 READING COORDINATES OF FRAGMENT 212 NAMED   TIP5P 
 READING COORDINATES OF FRAGMENT 213 NAMED   TIP5P 
 READING COORDINATES OF FRAGMENT 214 NAMED   TIP5P 
 READING COORDINATES OF FRAGMENT 215 NAMED   TIP5P 
 READING COORDINATES OF FRAGMENT 216 NAMED   TIP5P 
 READING COORDINATES OF FRAGMENT 217 NAMED   TIP5P 
 READING COORDINATES OF FRAGMENT 218 NAMED   TIP5P 
 READING COORDINATES OF FRAGMENT 219 NAMED   TIP5P 
 READING COORDINATES OF FRAGMENT 220 NAMED   TIP5P 
 READING COORDINATES OF FRAGMENT 221 NAMED   TIP5P 
 READING COORDINATES OF FRAGMENT 222 NAMED   TIP5P 
 READING COORDINATES OF FRAGMENT 223 NAMED   TIP5P 
 READING COORDINATES OF FRAGMENT 224 NAMED   TIP5P 
 READING COORDINATES OF FRAGMENT 225 NAMED   TIP5P 
 READING COORDINATES OF FRAGMENT 226 NAMED   TIP5P 
 READING COORDINATES OF FRAGMENT 227 NAMED   TIP5P 
 READING COORDINATES OF FRAGMENT 228 NAMED   TIP5P 
 READING COORDINATES OF FRAGMENT 229 NAMED   TIP5P 
 READING COORDINATES OF FRAGMENT 230 NAMED   TIP5P 
 READING COORDINATES OF FRAGMENT 231 NAMED   TIP5P 
 READING COORDINATES OF FRAGMENT 232 NAMED   TIP5P 
 READING COORDINATES OF FRAGMENT 233 NAMED   TIP5P 
 READING COORDINATES OF FRAGMENT 234 NAMED   TIP5P 
 READING COORDINATES OF FRAGMENT 235 NAMED   TIP5P 
 READING COORDINATES OF FRAGMENT 236 NAMED   TIP5P 
 READING COORDINATES OF FRAGMENT 237 NAMED   TIP5P 
 READING COORDINATES OF FRAGMENT 238 NAMED   TIP5P 
 READING COORDINATES OF FRAGMENT 239 NAMED   TIP5P 
 READING COORDINATES OF FRAGMENT 240 NAMED   TIP5P 
 READING COORDINATES OF FRAGMENT 241 NAMED   TIP5P 
 READING COORDINATES OF FRAGMENT 242 NAMED   TIP5P 
 READING COORDINATES OF FRAGMENT 243 NAMED   TIP5P 
 READING COORDINATES OF FRAGMENT 244 NAMED   TIP5P 
 READING COORDINATES OF FRAGMENT 245 NAMED   TIP5P 
 READING COORDINATES OF FRAGMENT 246 NAMED   TIP5P 
 READING COORDINATES OF FRAGMENT 247 NAMED   TIP5P 
 READING COORDINATES OF FRAGMENT 248 NAMED   TIP5P 
 READING COORDINATES OF FRAGMENT 249 NAMED   TIP5P 
 READING COORDINATES OF FRAGMENT 250 NAMED   TIP5P 
 READING COORDINATES OF FRAGMENT 251 NAMED   TIP5P 
 READING COORDINATES OF FRAGMENT 252 NAMED   TIP5P 
 READING COORDINATES OF FRAGMENT 253 NAMED   TIP5P 
 READING COORDINATES OF FRAGMENT 254 NAMED   TIP5P 
 READING COORDINATES OF FRAGMENT 255 NAMED   TIP5P 
 READING COORDINATES OF FRAGMENT 256 NAMED   TIP5P 
 READING COORDINATES OF FRAGMENT 257 NAMED   TIP5P 
 READING COORDINATES OF FRAGMENT 258 NAMED   TIP5P 
 READING COORDINATES OF FRAGMENT 259 NAMED   TIP5P 
 READING COORDINATES OF FRAGMENT 260 NAMED   TIP5P 
 READING COORDINATES OF FRAGMENT 261 NAMED   TIP5P 
 READING COORDINATES OF FRAGMENT 262 NAMED   TIP5P 
 READING COORDINATES OF FRAGMENT 263 NAMED   TIP5P 
 READING COORDINATES OF FRAGMENT 264 NAMED   TIP5P 
 READING COORDINATES OF FRAGMENT 265 NAMED   TIP5P 
 READING COORDINATES OF FRAGMENT 266 NAMED   TIP5P 
 READING COORDINATES OF FRAGMENT 267 NAMED   TIP5P 
 READING COORDINATES OF FRAGMENT 268 NAMED   TIP5P 
 READING COORDINATES OF FRAGMENT 269 NAMED   TIP5P 
 READING COORDINATES OF FRAGMENT 270 NAMED   TIP5P 
 READING COORDINATES OF FRAGMENT 271 NAMED   TIP5P 
 READING COORDINATES OF FRAGMENT 272 NAMED   TIP5P 
 READING COORDINATES OF FRAGMENT 273 NAMED   TIP5P 
 READING COORDINATES OF FRAGMENT 274 NAMED   TIP5P 
 READING COORDINATES OF FRAGMENT 275 NAMED   TIP5P 
 READING COORDINATES OF FRAGMENT 276 NAMED   TIP5P 
 READING COORDINATES OF FRAGMENT 277 NAMED   TIP5P 
 READING COORDINATES OF FRAGMENT 278 NAMED   TIP5P 
 READING COORDINATES OF FRAGMENT 279 NAMED   TIP5P 
 READING COORDINATES OF FRAGMENT 280 NAMED   TIP5P 
 READING COORDINATES OF FRAGMENT 281 NAMED   TIP5P 
 READING COORDINATES OF FRAGMENT 282 NAMED   TIP5P 
 READING COORDINATES OF FRAGMENT 283 NAMED   TIP5P 
 READING COORDINATES OF FRAGMENT 284 NAMED   TIP5P 
 READING COORDINATES OF FRAGMENT 285 NAMED   TIP5P 
 READING COORDINATES OF FRAGMENT 286 NAMED   TIP5P 
 READING COORDINATES OF FRAGMENT 287 NAMED   TIP5P 
 READING COORDINATES OF FRAGMENT 288 NAMED   TIP5P 
 READING COORDINATES OF FRAGMENT 289 NAMED   TIP5P 
 READING COORDINATES OF FRAGMENT 290 NAMED   TIP5P 
 READING COORDINATES OF FRAGMENT 291 NAMED   TIP5P 
 READING COORDINATES OF FRAGMENT 292 NAMED   TIP5P 
 READING COORDINATES OF FRAGMENT 293 NAMED   TIP5P 
 READING COORDINATES OF FRAGMENT 294 NAMED   TIP5P 
 READING COORDINATES OF FRAGMENT 295 NAMED   TIP5P 
 READING COORDINATES OF FRAGMENT 296 NAMED   TIP5P 
 READING COORDINATES OF FRAGMENT 297 NAMED   TIP5P 
 READING COORDINATES OF FRAGMENT 298 NAMED   TIP5P 
 READING COORDINATES OF FRAGMENT 299 NAMED   TIP5P 
 READING COORDINATES OF FRAGMENT 300 NAMED   TIP5P 
 READING COORDINATES OF FRAGMENT 301 NAMED   TIP5P 
 READING COORDINATES OF FRAGMENT 302 NAMED   TIP5P 
 READING COORDINATES OF FRAGMENT 303 NAMED   TIP5P 
 READING COORDINATES OF FRAGMENT 304 NAMED   TIP5P 
 READING COORDINATES OF FRAGMENT 305 NAMED   TIP5P 
 READING COORDINATES OF FRAGMENT 306 NAMED   TIP5P 
 READING COORDINATES OF FRAGMENT 307 NAMED   TIP5P 
 READING COORDINATES OF FRAGMENT 308 NAMED   TIP5P 
 READING COORDINATES OF FRAGMENT 309 NAMED   TIP5P 
 READING COORDINATES OF FRAGMENT 310 NAMED   TIP5P 
 READING COORDINATES OF FRAGMENT 311 NAMED   TIP5P 
 READING COORDINATES OF FRAGMENT 312 NAMED   TIP5P 
 READING COORDINATES OF FRAGMENT 313 NAMED   TIP5P 
 READING COORDINATES OF FRAGMENT 314 NAMED   TIP5P 
 READING COORDINATES OF FRAGMENT 315 NAMED   TIP5P 
 READING COORDINATES OF FRAGMENT 316 NAMED   TIP5P 
 READING COORDINATES OF FRAGMENT 317 NAMED   TIP5P 
 READING COORDINATES OF FRAGMENT 318 NAMED   TIP5P 
 READING COORDINATES OF FRAGMENT 319 NAMED   TIP5P 
 READING COORDINATES OF FRAGMENT 320 NAMED   TIP5P 
 READING COORDINATES OF FRAGMENT 321 NAMED   TIP5P 
 READING COORDINATES OF FRAGMENT 322 NAMED   TIP5P 
 READING COORDINATES OF FRAGMENT 323 NAMED   TIP5P 
 READING COORDINATES OF FRAGMENT 324 NAMED   TIP5P 
 READING COORDINATES OF FRAGMENT 325 NAMED   TIP5P 
 READING COORDINATES OF FRAGMENT 326 NAMED   TIP5P 
 READING COORDINATES OF FRAGMENT 327 NAMED   TIP5P 
 READING COORDINATES OF FRAGMENT 328 NAMED   TIP5P 
 READING COORDINATES OF FRAGMENT 329 NAMED   TIP5P 
 READING COORDINATES OF FRAGMENT 330 NAMED   TIP5P 
 READING COORDINATES OF FRAGMENT 331 NAMED   TIP5P 
 READING COORDINATES OF FRAGMENT 332 NAMED   TIP5P 
 READING COORDINATES OF FRAGMENT 333 NAMED   TIP5P 
 READING COORDINATES OF FRAGMENT 334 NAMED   TIP5P 
 READING COORDINATES OF FRAGMENT 335 NAMED   TIP5P 
 READING COORDINATES OF FRAGMENT 336 NAMED   TIP5P 
 READING COORDINATES OF FRAGMENT 337 NAMED   TIP5P 
 READING COORDINATES OF FRAGMENT 338 NAMED   TIP5P 
 READING COORDINATES OF FRAGMENT 339 NAMED   TIP5P 
 READING COORDINATES OF FRAGMENT 340 NAMED   TIP5P 
 READING COORDINATES OF FRAGMENT 341 NAMED   TIP5P 
 READING COORDINATES OF FRAGMENT 342 NAMED   TIP5P 
 READING COORDINATES OF FRAGMENT 343 NAMED   TIP5P 
 READING COORDINATES OF FRAGMENT 344 NAMED   TIP5P 
 READING COORDINATES OF FRAGMENT 345 NAMED   TIP5P 
 READING COORDINATES OF FRAGMENT 346 NAMED   TIP5P 
 READING COORDINATES OF FRAGMENT 347 NAMED   TIP5P 
 READING COORDINATES OF FRAGMENT 348 NAMED   TIP5P 
 READING COORDINATES OF FRAGMENT 349 NAMED   TIP5P 
 READING COORDINATES OF FRAGMENT 350 NAMED   TIP5P 
 READING COORDINATES OF FRAGMENT 351 NAMED   TIP5P 
 READING COORDINATES OF FRAGMENT 352 NAMED   TIP5P 
 READING COORDINATES OF FRAGMENT 353 NAMED   TIP5P 
 READING COORDINATES OF FRAGMENT 354 NAMED   TIP5P 
 READING COORDINATES OF FRAGMENT 355 NAMED   TIP5P 
 READING COORDINATES OF FRAGMENT 356 NAMED   TIP5P 
 READING COORDINATES OF FRAGMENT 357 NAMED   TIP5P 
 READING COORDINATES OF FRAGMENT 358 NAMED   TIP5P 
 READING COORDINATES OF FRAGMENT 359 NAMED   TIP5P 
 READING COORDINATES OF FRAGMENT 360 NAMED   TIP5P 
 READING COORDINATES OF FRAGMENT 361 NAMED   TIP5P 
 READING COORDINATES OF FRAGMENT 362 NAMED   TIP5P 
 READING COORDINATES OF FRAGMENT 363 NAMED   TIP5P 
 READING COORDINATES OF FRAGMENT 364 NAMED   TIP5P 
 READING COORDINATES OF FRAGMENT 365 NAMED   TIP5P 
 READING COORDINATES OF FRAGMENT 366 NAMED   TIP5P 
 READING COORDINATES OF FRAGMENT 367 NAMED   TIP5P 
 READING COORDINATES OF FRAGMENT 368 NAMED   TIP5P 
 READING COORDINATES OF FRAGMENT 369 NAMED   TIP5P 
 READING COORDINATES OF FRAGMENT 370 NAMED   TIP5P 
 READING COORDINATES OF FRAGMENT 371 NAMED   TIP5P 
 READING COORDINATES OF FRAGMENT 372 NAMED   TIP5P 
 READING COORDINATES OF FRAGMENT 373 NAMED   TIP5P 
 READING COORDINATES OF FRAGMENT 374 NAMED   TIP5P 
 READING COORDINATES OF FRAGMENT 375 NAMED   TIP5P 
 READING COORDINATES OF FRAGMENT 376 NAMED   TIP5P 
 READING COORDINATES OF FRAGMENT 377 NAMED   TIP5P 
 READING COORDINATES OF FRAGMENT 378 NAMED   TIP5P 
 READING COORDINATES OF FRAGMENT 379 NAMED   TIP5P 
 READING COORDINATES OF FRAGMENT 380 NAMED   TIP5P 
 READING COORDINATES OF FRAGMENT 381 NAMED   TIP5P 
 READING COORDINATES OF FRAGMENT 382 NAMED   TIP5P 
 READING COORDINATES OF FRAGMENT 383 NAMED   TIP5P 
 READING COORDINATES OF FRAGMENT 384 NAMED   TIP5P 
 READING COORDINATES OF FRAGMENT 385 NAMED   TIP5P 
 READING COORDINATES OF FRAGMENT 386 NAMED   TIP5P 
 READING COORDINATES OF FRAGMENT 387 NAMED   TIP5P 
 READING COORDINATES OF FRAGMENT 388 NAMED   TIP5P 
 READING COORDINATES OF FRAGMENT 389 NAMED   TIP5P 
 READING COORDINATES OF FRAGMENT 390 NAMED   TIP5P 
 READING COORDINATES OF FRAGMENT 391 NAMED   TIP5P 
 READING COORDINATES OF FRAGMENT 392 NAMED   TIP5P 
 READING COORDINATES OF FRAGMENT 393 NAMED   TIP5P 
 READING COORDINATES OF FRAGMENT 394 NAMED   TIP5P 
 READING COORDINATES OF FRAGMENT 395 NAMED   TIP5P 
 READING COORDINATES OF FRAGMENT 396 NAMED   TIP5P 
 READING COORDINATES OF FRAGMENT 397 NAMED   TIP5P 
 READING COORDINATES OF FRAGMENT 398 NAMED   TIP5P 
 READING COORDINATES OF FRAGMENT 399 NAMED   TIP5P 
 READING COORDINATES OF FRAGMENT 400 NAMED   TIP5P 
 READING COORDINATES OF FRAGMENT 401 NAMED   TIP5P 
 READING COORDINATES OF FRAGMENT 402 NAMED   TIP5P 
 READING COORDINATES OF FRAGMENT 403 NAMED   TIP5P 
 READING COORDINATES OF FRAGMENT 404 NAMED   TIP5P 
 READING COORDINATES OF FRAGMENT 405 NAMED   TIP5P 
 READING COORDINATES OF FRAGMENT 406 NAMED   TIP5P 
 READING COORDINATES OF FRAGMENT 407 NAMED   TIP5P 
 READING COORDINATES OF FRAGMENT 408 NAMED   TIP5P 
 READING COORDINATES OF FRAGMENT 409 NAMED   TIP5P 
 READING COORDINATES OF FRAGMENT 410 NAMED   TIP5P 
 READING COORDINATES OF FRAGMENT 411 NAMED   TIP5P 
 READING COORDINATES OF FRAGMENT 412 NAMED   TIP5P 
 READING COORDINATES OF FRAGMENT 413 NAMED   TIP5P 
 READING COORDINATES OF FRAGMENT 414 NAMED   TIP5P 
 READING COORDINATES OF FRAGMENT 415 NAMED   TIP5P 
 READING COORDINATES OF FRAGMENT 416 NAMED   TIP5P 
 READING COORDINATES OF FRAGMENT 417 NAMED   TIP5P 
 READING COORDINATES OF FRAGMENT 418 NAMED   TIP5P 
 READING COORDINATES OF FRAGMENT 419 NAMED   TIP5P 
 READING COORDINATES OF FRAGMENT 420 NAMED   TIP5P 
 READING COORDINATES OF FRAGMENT 421 NAMED   TIP5P 
 READING COORDINATES OF FRAGMENT 422 NAMED   TIP5P 
 READING COORDINATES OF FRAGMENT 423 NAMED   TIP5P 
 READING COORDINATES OF FRAGMENT 424 NAMED   TIP5P 
 READING COORDINATES OF FRAGMENT 425 NAMED   TIP5P 
 READING COORDINATES OF FRAGMENT 426 NAMED   TIP5P 
 READING COORDINATES OF FRAGMENT 427 NAMED   TIP5P 
 READING COORDINATES OF FRAGMENT 428 NAMED   TIP5P 
 READING COORDINATES OF FRAGMENT 429 NAMED   TIP5P 
 READING COORDINATES OF FRAGMENT 430 NAMED   TIP5P 
 READING COORDINATES OF FRAGMENT 431 NAMED   TIP5P 
 READING COORDINATES OF FRAGMENT 432 NAMED   TIP5P 
 READING COORDINATES OF FRAGMENT 433 NAMED   TIP5P 
 READING COORDINATES OF FRAGMENT 434 NAMED   TIP5P 
 READING COORDINATES OF FRAGMENT 435 NAMED   TIP5P 
 READING COORDINATES OF FRAGMENT 436 NAMED   TIP5P 
 READING COORDINATES OF FRAGMENT 437 NAMED   TIP5P 
 READING COORDINATES OF FRAGMENT 438 NAMED   TIP5P 
 READING COORDINATES OF FRAGMENT 439 NAMED   TIP5P 
 READING COORDINATES OF FRAGMENT 440 NAMED   TIP5P 
 READING COORDINATES OF FRAGMENT 441 NAMED   TIP5P 
 READING COORDINATES OF FRAGMENT 442 NAMED   TIP5P 
 READING COORDINATES OF FRAGMENT 443 NAMED   TIP5P 
 READING COORDINATES OF FRAGMENT 444 NAMED   TIP5P 
 READING COORDINATES OF FRAGMENT 445 NAMED   TIP5P 
 READING COORDINATES OF FRAGMENT 446 NAMED   TIP5P 
 READING COORDINATES OF FRAGMENT 447 NAMED   TIP5P 
 READING COORDINATES OF FRAGMENT 448 NAMED   TIP5P 
 READING COORDINATES OF FRAGMENT 449 NAMED   TIP5P 
 READING COORDINATES OF FRAGMENT 450 NAMED   TIP5P 
 READING COORDINATES OF FRAGMENT 451 NAMED   TIP5P 
 READING COORDINATES OF FRAGMENT 452 NAMED   TIP5P 
 READING COORDINATES OF FRAGMENT 453 NAMED   TIP5P 
 READING COORDINATES OF FRAGMENT 454 NAMED   TIP5P 
 READING COORDINATES OF FRAGMENT 455 NAMED   TIP5P 
 READING COORDINATES OF FRAGMENT 456 NAMED   TIP5P 
 READING COORDINATES OF FRAGMENT 457 NAMED   TIP5P 
 READING COORDINATES OF FRAGMENT 458 NAMED   TIP5P 
 READING COORDINATES OF FRAGMENT 459 NAMED   TIP5P 
 READING COORDINATES OF FRAGMENT 460 NAMED   TIP5P 
 READING COORDINATES OF FRAGMENT 461 NAMED   TIP5P 
 READING COORDINATES OF FRAGMENT 462 NAMED   TIP5P 
 READING COORDINATES OF FRAGMENT 463 NAMED   TIP5P 
 READING COORDINATES OF FRAGMENT 464 NAMED   TIP5P 
 READING COORDINATES OF FRAGMENT 465 NAMED   TIP5P 
 READING COORDINATES OF FRAGMENT 466 NAMED   TIP5P 
 READING COORDINATES OF FRAGMENT 467 NAMED   TIP5P 
 READING COORDINATES OF FRAGMENT 468 NAMED   TIP5P 
 READING COORDINATES OF FRAGMENT 469 NAMED   TIP5P 
 READING COORDINATES OF FRAGMENT 470 NAMED   TIP5P 
 READING COORDINATES OF FRAGMENT 471 NAMED   TIP5P 
 READING COORDINATES OF FRAGMENT 472 NAMED   TIP5P 
 READING COORDINATES OF FRAGMENT 473 NAMED   TIP5P 
 READING COORDINATES OF FRAGMENT 474 NAMED   TIP5P 
 READING COORDINATES OF FRAGMENT 475 NAMED   TIP5P 
 READING COORDINATES OF FRAGMENT 476 NAMED   TIP5P 
 READING COORDINATES OF FRAGMENT 477 NAMED   TIP5P 
 READING COORDINATES OF FRAGMENT 478 NAMED   TIP5P 
 READING COORDINATES OF FRAGMENT 479 NAMED   TIP5P 
 READING COORDINATES OF FRAGMENT 480 NAMED   TIP5P 
 READING COORDINATES OF FRAGMENT 481 NAMED   TIP5P 
 READING COORDINATES OF FRAGMENT 482 NAMED   TIP5P 
 READING COORDINATES OF FRAGMENT 483 NAMED   TIP5P 
 READING COORDINATES OF FRAGMENT 484 NAMED   TIP5P 
 READING COORDINATES OF FRAGMENT 485 NAMED   TIP5P 
 READING COORDINATES OF FRAGMENT 486 NAMED   TIP5P 
 READING COORDINATES OF FRAGMENT 487 NAMED   TIP5P 
 READING COORDINATES OF FRAGMENT 488 NAMED   TIP5P 
 READING COORDINATES OF FRAGMENT 489 NAMED   TIP5P 
 READING COORDINATES OF FRAGMENT 490 NAMED   TIP5P 
 READING COORDINATES OF FRAGMENT 491 NAMED   TIP5P 
 READING COORDINATES OF FRAGMENT 492 NAMED   TIP5P 
 READING COORDINATES OF FRAGMENT 493 NAMED   TIP5P 
 READING COORDINATES OF FRAGMENT 494 NAMED   TIP5P 
 READING COORDINATES OF FRAGMENT 495 NAMED   TIP5P 
 READING COORDINATES OF FRAGMENT 496 NAMED   TIP5P 
 READING COORDINATES OF FRAGMENT 497 NAMED   TIP5P 
 READING COORDINATES OF FRAGMENT 498 NAMED   TIP5P 
 READING COORDINATES OF FRAGMENT 499 NAMED   TIP5P 
 READING COORDINATES OF FRAGMENT 500 NAMED   TIP5P 
 READING COORDINATES OF FRAGMENT 501 NAMED   TIP5P 
 READING COORDINATES OF FRAGMENT 502 NAMED   TIP5P 
 READING COORDINATES OF FRAGMENT 503 NAMED   TIP5P 
 READING COORDINATES OF FRAGMENT 504 NAMED   TIP5P 
 READING COORDINATES OF FRAGMENT 505 NAMED   TIP5P 
 READING COORDINATES OF FRAGMENT 506 NAMED   TIP5P 
 READING COORDINATES OF FRAGMENT 507 NAMED   TIP5P 
 READING COORDINATES OF FRAGMENT 508 NAMED   TIP5P 
 READING COORDINATES OF FRAGMENT 509 NAMED   TIP5P 
 READING COORDINATES OF FRAGMENT 510 NAMED   TIP5P 
 READING COORDINATES OF FRAGMENT 511 NAMED   TIP5P 
 READING COORDINATES OF FRAGMENT 512 NAMED   TIP5P 
 FINISHED READING $EFRAG GROUP, 512 FRAGMENTS WILL BE USED.



     SUMMARY OF THE EFFECTIVE FRAGMENT POTENTIAL MODEL CHOSEN
     --------------------------------------------------------
 TOTAL NUMBER OF MULTIPOLE POINTS   =      2560  (EFP1/EFP2 ELECTROSTATICS)
 TOTAL NUMBER OF POLARIZABLE POINTS =         0  (EFP1/EFP2 INDUCTION)
 TOTAL NUMBER OF L-J POINTS         =       512  (REPULSION AND DISPERSION)

 OPTIONS FOR EFP SCREENING:
     ELECTROSTATIC EFP-EFP SCREENING CHOICE IS NO ELECTROSTATIC SCREENING
     POLARIZATION EFP-EFP SCREENING IS OFF

     PERIODIC BOUNDARY CONDITIONS WILL BE APPLIED
     BOX SIZE IS =    24.8575   24.8575   24.8575 ANGSTROMS
     SWITCHING FUNCTIONS WILL BE APPLIED BETWEEN     9.0000 AND    12.4280 ANG.

     $EWALD OPTIONS
     -----------

     IFEWLD   =        F         TINFOIL        =        T
     BETA    =    0.200         ELECTRIC CONST =     1.00
     EPSILON =     1.00         CUT_OFF        = 0.10E+04
     CUTLIST =  1000.00         LEVEL          =    1
     KMAX    =       10         EWLDPL         =        F

            MULTIPOLE COORDINATES, ELECTRONIC AND NUCLEAR CHARGES

                  X              Y              Z           ELEC.   NUC.
 O1       -13.9226814711  20.7735228072   4.4351755397   -8.00000    8.0
 H2       -12.6509552015  21.2601675660   3.2444631352   -0.75900    1.0
 H3       -14.6148012946  22.3375136948   5.0240808883   -0.75900    1.0
 L4       -13.3899214855  20.0917946337   5.4357925665   -0.24100    0.0
 L5       -14.8553112245  20.0405199928   3.8497444542   -0.24100    0.0
 O1        12.5083230911  12.3051888328 -15.5966582552   -8.00000    8.0
 H2        11.0505873409  12.6375906505 -16.6147065696   -0.75900    1.0
 H3        12.3949922101  10.5431312709 -15.2039546564   -0.75900    1.0
 L4        12.4831169784  13.0328789463 -14.4922793848   -0.24100    0.0
 L5        13.6174061230  12.5638164430 -16.2696125823   -0.24100    0.0
 O1        -2.8664560892  13.2937904481   7.1282292364   -8.00000    8.0
 H2        -3.9101986288  14.3295834649   6.0748341569   -0.75900    1.0
 H3        -3.4825332928  11.6135576037   6.8652210161   -0.75900    1.0
 L4        -2.9902906393  13.6437693303   8.3978751418   -0.24100    0.0
 L5        -1.5975139579  13.3884098033   6.7667683341   -0.24100    0.0
 O1        -4.4386893243   5.1111285913  14.7223903423   -8.00000    8.0
 H2        -3.4803185318   4.0715148970  13.5942788021   -0.75900    1.0
 H3        -5.8216869448   5.7104160560  13.7223508567   -0.75900    1.0
 L4        -3.7072053492   6.1217818292  15.1620858799   -0.24100    0.0
 L5        -4.8772237778   4.4042558726  15.7509035565   -0.24100    0.0
 O1         7.0053081946   1.7676178063  12.6479553055   -8.00000    8.0
 H2         6.7075532084   3.1397731483  13.7883230277   -0.75900    1.0
 H3         8.7597828926   1.3789152778  12.8544395294   -0.75900    1.0
 L4         6.7505601735   2.1315353382  11.4019663751   -0.24100    0.0
 L5         6.2550670943   0.7252173988  12.9647527496   -0.24100    0.0
 O1         2.4931957339   0.3383771178  29.5716552963   -8.00000    8.0
 H2         1.5847449255  -1.2253556443  29.5347251773   -0.75900    1.0
 H3         3.5115982723   0.3066083346  28.0770804837   -0.75900    1.0
 L4         3.2517554489   0.4129686337  30.6527862798   -0.24100    0.0
 L5         1.6587804569   1.3645201381  29.5471076647   -0.24100    0.0
 O1         7.1992819787   9.8834484430   3.0555072003   -8.00000    8.0
 H2         6.4426786452  11.5032809184   2.7805508341   -0.75900    1.0
 H3         6.4210410287   9.2704283569   4.5689318777   -0.75900    1.0
 L4         8.5071410376   9.9995432357   3.2162791506   -0.24100    0.0
 L5         6.9503100864   9.0727550322   2.0403174992   -0.24100    0.0
 O1       -22.8378852860   1.6171922647 -19.4543354901   -8.00000    8.0
 H2       -23.5058980899   2.8961099255 -18.3634480682   -0.75900    1.0
 H3       -21.2952276340   1.1047789682 -18.6608956132   -0.75900    1.0
 L4       -22.6029981142   2.1073186276 -20.6603309726   -0.24100    0.0
 L5       -23.6761888533   0.5982554922 -19.5483350728   -0.24100    0.0
 O1       -13.8318164924   9.0003217671  11.8127188642   -8.00000    8.0
 H2       -15.5306895721   9.5357159270  12.1275048376   -0.75900    1.0
 H3       -13.3189683759   9.9492501320  10.3606759503   -0.75900    1.0
 L4       -13.7896246982   7.7022324515  11.5617110555   -0.24100    0.0
 L5       -13.0557711364   9.2743788148  12.8483188251   -0.24100    0.0
 O1        18.2518703285 -10.8174783311  19.5981361963   -8.00000    8.0
 H2        18.4230597902 -12.3967059409  18.7328956627   -0.75900    1.0
 H3        19.5003029926  -9.7486980018  18.8424700350   -0.75900    1.0
 L4        18.4843893602 -10.9656057011  20.8918958807   -0.24100    0.0
 L5        17.0399557539 -10.3171940157  19.4226380293   -0.24100    0.0
 O1        14.4446751401   4.0258304597  39.9116178517   -8.00000    8.0
 H2        16.2448175067   3.8588770735  39.8522808217   -0.75900    1.0
 H3        14.1629939496   5.6046374914  40.7482365940   -0.75900    1.0
 L4        13.9052000927   3.0309986370  40.5965246020   -0.24100    0.0
 L5        13.9365657064   4.0466262044  38.6904654127   -0.24100    0.0
 O1       -36.5933670114   2.7046697853 -16.6492913716   -8.00000    8.0
 H2       -35.0919372985   2.2066051484 -15.7720529256   -0.75900    1.0
 H3       -37.9149437637   1.7519595210 -15.8633620515   -0.75900    1.0
 L4       -36.5039104046   2.4074623924 -17.9351709227   -0.24100    0.0
 L5       -36.8069039525   4.0027649822 -16.5108291985   -0.24100    0.0
 O1         8.2529420712  37.1204688280 -13.5572179647   -8.00000    8.0
 H2         7.0692876195  36.6240013278 -14.8317331732   -0.75900    1.0
 H3         8.0595795104  35.8831238441 -12.2520378364   -0.75900    1.0
 L4         7.9692856890  38.3293356634 -13.1011467312   -0.24100    0.0
 L5         9.4866007815  37.1077570738 -14.0344448883   -0.24100    0.0
 O1        26.0014656385  -9.0680378196  -3.8816506472   -8.00000    8.0
 H2        26.2766626748 -10.5166034695  -2.8338763369   -0.75900    1.0
 H3        27.4390492377  -9.0220387842  -4.9785300118   -0.75900    1.0
 L4        25.9359780677  -7.9677073320  -3.1503469244   -0.24100    0.0
 L5        24.8853079743  -9.2007393403  -4.5790768540   -0.24100    0.0
 O1         2.7698764771  -1.1434435729  16.8617018995   -8.00000    8.0
 H2         4.1679395095  -1.7535497475  17.8338629301   -0.75900    1.0
 H3         3.0968099206   0.6237698671  16.6568164741   -0.75900    1.0
 L4         1.6316691345  -1.3365471475  17.5074696546   -0.24100    0.0
 L5         2.7180108917  -1.7486268647  15.6865916565   -0.24100    0.0
 O1        -9.7929930533  25.2765401919   7.3744972556   -8.00000    8.0
 H2        -9.6413688067  26.3853651482   5.9534328093   -0.75900    1.0
 H3       -11.5672709805  25.2256437502   7.7227130589   -0.75900    1.0
 L4        -9.1262688341  25.7533164187   8.4127574272   -0.24100    0.0
 L5        -9.3402505119  24.0699003957   7.0763940314   -0.24100    0.0
 O1        -7.2061885289  22.7900984443  11.7998569264   -8.00000    8.0
 H2        -7.9796770798  23.2352258084  10.2264898530   -0.75900    1.0
 H3        -8.3918542669  21.6747243872  12.5885547942   -0.75900    1.0
 L4        -7.0090413320  23.8653845020  12.5446480486   -0.24100    0.0
 L5        -6.0517176130  22.1772147485  11.5964081155   -0.24100    0.0
 O1        37.2912636021  18.1660741875 -20.1808808444   -8.00000    8.0
 H2        35.8318751487  18.4738158977 -19.1574614592   -0.75900    1.0
 H3        37.7012131723  19.7816270067 -20.8836164239   -0.75900    1.0
 L4        37.0157716526  17.2960020717 -21.1384296097   -0.24100    0.0
 L5        38.2907621349  17.7092677942 -19.4445714388   -0.24100    0.0
 O1         0.9596883210  -2.4804099351  12.2689215115   -8.00000    8.0
 H2         1.6781629330  -1.6475476472  13.7049025343   -0.75900    1.0
 H3         0.5302860159  -4.1314872927  12.8701403368   -0.75900    1.0
 L4         1.8391204133  -2.5556999889  11.2836542678   -0.24100    0.0
 L5        -0.1191743972  -1.8406343201  11.8487271082   -0.24100    0.0
 O1       -21.4061595691   7.5422665182 -28.5114174138   -8.00000    8.0
 H2       -22.6393956354   7.3957734600 -29.8265506560   -0.75900    1.0
 H3       -21.1644457974   5.8480620813 -27.9256251001   -0.75900    1.0
 L4       -21.8531127709   8.3151482809 -27.5353500210   -0.24100    0.0
 L5       -20.2751563666   8.0392796733 -28.9843134050   -0.24100    0.0
 O1        13.4317500720  19.9941625092 -32.3511825338   -8.00000    8.0
 H2        11.8374294077  20.1022654392 -33.1987450577   -0.75900    1.0
 H3        13.3853884061  21.3245089822 -31.1264639072   -0.75900    1.0
 L4        14.4273073787  20.1771455887 -33.2027715077   -0.24100    0.0
 L5        13.5680974691  18.8187949716 -31.7597930869   -0.24100    0.0
 O1        10.8669858577  14.8265439491 -11.2107836418   -8.00000    8.0
 H2         9.8586652977  15.7067517239 -12.4275131835   -0.75900    1.0
 H3        12.2355249691  14.1354528289 -12.1706797928   -0.75900    1.0
 L4        10.1679277301  13.8635243653 -10.6330882599   -0.24100    0.0
 L5        11.3175296539  15.6590921874 -10.2868276594   -0.24100    0.0
 O1         2.5411752391   8.3701643460  -1.3944738387   -8.00000    8.0
 H2         2.8600655116  10.1074271824  -1.0044306518   -0.75900    1.0
 H3         1.5314102903   8.4200966796  -2.8944032925   -0.75900    1.0
 L4         1.8843600261   7.7824711835  -0.4080502675   -0.24100    0.0
 L5         3.6746240338   7.7248737784  -1.6151882514   -0.24100    0.0
 O1        -4.9397307391   6.6413597329   2.0406470690   -8.00000    8.0
 H2        -6.0279197772   5.2721732335   1.5790413892   -0.75900    1.0
 H3        -5.5778051690   8.0592276401   1.1162994743   -0.75900    1.0
 L4        -3.6895596802   6.3820258650   1.6947580586   -0.24100    0.0
 L5        -4.9989547734   6.8671083579   3.3427035235   -0.24100    0.0
 O1       -19.6538418755   2.3027011153   7.5215286291   -8.00000    8.0
 H2       -21.4121103610   2.3215943717   7.9458419970   -0.75900    1.0
 H3       -18.8268780193   2.9699683495   8.9853565135   -0.75900    1.0
 L4       -19.4196980019   3.0632450134   6.4648496029   -0.24100    0.0
 L5       -19.2454798410   1.0687759463   7.2755813485   -0.24100    0.0
 O1        -5.4554429980 -25.6774860181  -6.7004912208   -8.00000    8.0
 H2        -5.0061798830 -27.3084468381  -6.0601504414   -0.75900    1.0
 H3        -4.0772016575 -24.6075657364  -6.2233871918   -0.75900    1.0
 L4        -6.5847651792 -25.2561193062  -6.1556036691   -0.24100    0.0
 L5        -5.5869138727 -25.7117915590  -8.0163025590   -0.24100    0.0
 O1       -10.1241223099  11.8365064168 -38.8513277284   -8.00000    8.0
 H2       -10.6441828494  13.5664979174 -38.7587356170   -0.75900    1.0
 H3        -8.3827424028  11.8596650043 -38.3624856728   -0.75900    1.0
 L4       -10.2577905623  11.3734198728 -40.0831980909   -0.24100    0.0
 L5       -10.8330407735  11.0900968904 -38.0205880762   -0.24100    0.0
 O1       -18.0573989975   7.4583100393   0.1854771414   -8.00000    8.0
 H2       -19.6386947264   7.2516959619  -0.6681746009   -0.75900    1.0
 H3       -17.8208687150   5.9062817065   1.0839026175   -0.75900    1.0
 L4       -18.1085654604   8.4805145246   1.0235111037   -0.24100    0.0
 L5       -17.0784805219   7.6493907703  -0.6834461643   -0.24100    0.0
 O1       -20.1571228412  23.3426534992   1.1054109121   -8.00000    8.0
 H2       -20.3852494834  22.0591003927   2.3593473196   -0.75900    1.0
 H3       -20.2317553162  22.4563090189  -0.4696225200   -0.75900    1.0
 L4       -18.9844056153  23.9367356850   1.2524537745   -0.24100    0.0
 L5       -21.1209669279  24.2455809659   1.1798924885   -0.24100    0.0
 O1         6.8904037222  -1.4597224313   7.3107225727   -8.00000    8.0
 H2         8.5085803214  -0.6515365893   7.2950065088   -0.75900    1.0
 H3         6.9133313953  -2.4917284350   8.7960995573   -0.75900    1.0
 L4         6.7280972928  -2.2021961967   6.2280359746   -0.24100    0.0
 L5         5.9205143505  -0.5628354140   7.3794919252   -0.24100    0.0
 O1        -9.3796814598   9.2373535454 -13.8824169036   -8.00000    8.0
 H2        -8.6299313316   9.1786259216 -15.5275104170   -0.75900    1.0
 H3        -8.4424228637  10.5095162762 -13.0020447284   -0.75900    1.0
 L4        -9.2656507851   8.0679841810 -13.2746396140   -0.24100    0.0
 L5       -10.6575773599   9.5695755353 -13.9626138908   -0.24100    0.0
 O1        31.4175375150  -3.3293657635  -5.2654363636   -8.00000    8.0
 H2        30.4360216062  -4.5051862819  -6.2277146423   -0.75900    1.0
 H3        31.6526720609  -4.1380899114  -3.6646291128   -0.75900    1.0
 L4        30.7678561478  -2.1862090109  -5.1207722734   -0.24100    0.0
 L5        32.5821464583  -3.1033876134  -5.8506207993   -0.24100    0.0
 O1       -19.8323943779   1.8819971582 -28.1792484528   -8.00000    8.0
 H2       -21.0145501800   1.9406295693 -26.8114119288   -0.75900    1.0
 H3       -18.5339786664   0.7592943290 -27.6086681746   -0.75900    1.0
 L4       -19.3374716173   3.0846078671 -28.4213225795   -0.24100    0.0
 L5       -20.4075247057   1.4134873102 -29.2744856724   -0.24100    0.0
 O1       -18.2979173926  21.6082146341 -27.6380653693   -8.00000    8.0
 H2       -16.5995712718  21.5518500497 -27.0181054159   -0.75900    1.0
 H3       -18.7104641633  19.8821592395 -27.9879864933   -0.75900    1.0
 L4       -18.3698605458  22.3384862466 -28.7386781503   -0.24100    0.0
 L5       -19.1130456155  22.1076323532 -26.7237520418   -0.24100    0.0
 O1        20.9072514949  14.3622074916   0.6163843623   -8.00000    8.0
 H2        21.6661189044  15.6536393038   1.6304016135   -0.75900    1.0
 H3        20.7825403746  15.0950906352  -1.0326263383   -0.75900    1.0
 L4        19.7089796623  14.0474862923   1.0799748290   -0.24100    0.0
 L5        21.6680196906  13.2803563150   0.5908750884   -0.24100    0.0
 O1        -8.8534353101   0.3172826169 -11.0767980862   -8.00000    8.0
 H2        -9.4740621711   1.9626770983 -10.6532344472   -0.75900    1.0
 H3        -7.3061869508   0.6297430593 -11.9601427771   -0.75900    1.0
 L4        -9.7137829787  -0.3215498124 -11.8523726832   -0.24100    0.0
 L5        -8.6323626634  -0.3946066362  -9.9840211122   -0.24100    0.0
 O1         6.9419569344  15.2593989068 -15.1069764024   -8.00000    8.0
 H2         5.5880510719  16.4550543608 -15.2031731132   -0.75900    1.0
 H3         6.1309237090  13.6843319789 -14.7418789685   -0.75900    1.0
 L4         7.7859328663  15.5854230526 -14.1419718317   -0.24100    0.0
 L5         7.5915697927  15.1951302660 -16.2574952484   -0.24100    0.0
 O1       -20.4724693250  32.6494200176  -2.8521632255   -8.00000    8.0
 H2       -19.1863767083  31.6085337368  -3.5832093170   -0.75900    1.0
 H3       -21.6336079723  32.9532644879  -4.2054342390   -0.75900    1.0
 L4       -19.9595427754  33.7865295173  -2.4120390618   -0.24100    0.0
 L5       -21.0716014629  32.0207947486  -1.8543196048   -0.24100    0.0
 O1        10.7445748550   7.6482395102 -36.9622360268   -8.00000    8.0
 H2        10.4726856471   9.0250474987 -38.1034559345   -0.75900    1.0
 H3        12.1641965184   8.1596277333 -35.9647074436   -0.75900    1.0
 L4        11.0159485764   6.5369779707 -37.6265213819   -0.24100    0.0
 L5         9.6813819368   7.4568368264 -36.1988182053   -0.24100    0.0
 O1         2.0638742739   5.1041586565  31.5507231513   -8.00000    8.0
 H2         3.4162394216   4.5668172510  32.6250971911   -0.75900    1.0
 H3         1.3301984392   3.5669635314  30.9419064519   -0.75900    1.0
 L4         2.5251242069   5.8317368842  30.5468808526   -0.24100    0.0
 L5         1.1757913515   5.8078006068  32.2333780185   -0.24100    0.0
 O1       -15.7775234706  15.4995225776  -3.9660683584   -8.00000    8.0
 H2       -15.7328336890  14.1833929818  -2.7260229694   -0.75900    1.0
 H3       -14.3229204706  16.5123017017  -3.6050760945   -0.75900    1.0
 L4       -16.8849251602  16.2136960498  -3.8501430022   -0.24100    0.0
 L5       -15.7044820104  14.9946302193  -5.1865476047   -0.24100    0.0
 O1         0.0697806178   5.7613752421   1.8022868730   -8.00000    8.0
 H2         0.6125691959   6.8079523255   0.4304400067   -0.75900    1.0
 H3        -1.6985159578   6.1062969554   1.9637275401   -0.75900    1.0
 L4         0.7114696105   6.0786372273   2.9146721516   -0.24100    0.0
 L5         0.2735680717   4.4841199638   1.5249593290   -0.24100    0.0
 O1        -1.7475370013  -0.3656545668   0.1068380074   -8.00000    8.0
 H2        -3.5227094974  -0.2371129615  -0.2158793937   -0.75900    1.0
 H3        -0.9786052322   0.6522628714  -1.1755405950   -0.75900    1.0
 L4        -1.3446314237  -1.6219359805   0.0106868551   -0.24100    0.0
 L5        -1.4562383499   0.0996861754   1.3103429007   -0.24100    0.0
 O1        -8.2952405358 -18.6299832871   3.9133636126   -8.00000    8.0
 H2        -9.6427009127 -17.5944632378   3.2937220901   -0.75900    1.0
 H3        -7.7415325221 -19.5663920392   2.4682155437   -0.75900    1.0
 L4        -8.7295356203 -19.4451238180   4.8603349075   -0.24100    0.0
 L5        -7.3133366810 -17.8832195173   4.3908880944   -0.24100    0.0
 O1       -12.9349419760  37.9833718698  26.7183281272   -8.00000    8.0
 H2       -13.2252094193  39.7139105723  27.1575176843   -0.75900    1.0
 H3       -12.6377610576  37.1577743690  28.3000926877   -0.75900    1.0
 L4       -11.8803527277  37.8722674305  25.9275574527   -0.24100    0.0
 L5       -13.9943008224  37.4701584972  26.1148450639   -0.24100    0.0
 O1       -17.2158061869  11.6063610835   7.5373267001   -8.00000    8.0
 H2       -18.2569556078  12.8651144980   8.3141500911   -0.75900    1.0
 H3       -18.3505403748  10.6600900253   6.4938439433   -0.75900    1.0
 L4       -16.6624545161  10.8275713453   8.4522635345   -0.24100    0.0
 L5       -16.2680184560  12.1695696317   6.8063578312   -0.24100    0.0
 O1        -6.6215506550  17.4785064828 -13.4351860781   -8.00000    8.0
 H2        -8.0893612178  17.6440851210 -14.4792276111   -0.75900    1.0
 H3        -7.1496877732  16.4070148091 -12.0769211430   -0.75900    1.0
 L4        -6.2378031094  18.6587953966 -12.9774996790   -0.24100    0.0
 L5        -5.6282963722  16.9232058479 -14.1096548123   -0.24100    0.0
 O1        -6.4396937065  15.2980857640  10.8725852049   -8.00000    8.0
 H2        -6.0367673981  16.4898830168  12.1722684565   -0.75900    1.0
 H3        -4.9090170460  15.1265949965   9.9241513726   -0.75900    1.0
 L4        -7.4161049934  15.7547581946  10.1058438999   -0.24100    0.0
 L5        -6.7972727083  14.1375051554  11.3969999712   -0.24100    0.0
 O1        10.4344676125 -11.0098522613  19.4206488899   -8.00000    8.0
 H2        12.0053412969 -10.2270121890  18.9831284390   -0.75900    1.0
 H3         9.3945247461 -10.7887948426  17.9572421424   -0.75900    1.0
 L4         9.8936806341 -10.4171734625  20.4723628360   -0.24100    0.0
 L5        10.6089660782 -12.2951186933  19.6803822591   -0.24100    0.0
 O1         7.9925680849   5.5612316536  -9.2404016849   -8.00000    8.0
 H2         7.3443306424   7.0007178731  -8.3574665242   -0.75900    1.0
 H3         9.2189697216   4.8533230509  -8.1149189921   -0.75900    1.0
 L4         8.5586621169   5.9268538699 -10.3786805966   -0.24100    0.0
 L5         7.0275992927   4.6908949472  -9.4877277582   -0.24100    0.0
 O1         3.9206243151  -0.6057001401 -23.2578660568   -8.00000    8.0
 H2         3.3551365459  -2.2719176673 -23.6772102963   -0.75900    1.0
 H3         2.5786466311   0.4787455748 -23.8009868937   -0.75900    1.0
 L4         5.0422255717  -0.3178586036 -23.8973805677   -0.24100    0.0
 L5         4.1149811075  -0.4921780253 -21.9543480839   -0.24100    0.0
 O1        23.4953291560 -26.7216630943 -16.0745165672   -8.00000    8.0
 H2        22.8003478789 -25.2581956542 -16.8789859156   -0.75900    1.0
 H3        24.9926327061 -26.1213208962 -15.2562389980   -0.75900    1.0
 L4        23.7915625537 -27.6503781089 -16.9686950364   -0.24100    0.0
 L5        22.6455746178 -27.2167677882 -15.1898643724   -0.24100    0.0
 O1        -6.1207874261 -11.9653901714  29.1538864395   -8.00000    8.0
 H2        -6.4673409120 -10.4164194474  30.0213524237   -0.75900    1.0
 H3        -6.9527200535 -13.2332898286  30.1399013578   -0.75900    1.0
 L4        -4.8184825001 -12.1919027865  29.1037381235   -0.24100    0.0
 L5        -6.6100562451 -11.9327881366  27.9253205809   -0.24100    0.0
 O1       -31.9311265992   3.6279641719 -14.0912234507   -8.00000    8.0
 H2       -31.6321115218   4.5366967716 -15.6263787855   -0.75900    1.0
 H3       -31.8001667530   4.8786616073 -12.7910264272   -0.75900    1.0
 L4       -31.0219103278   2.6819581295 -13.9232375035   -0.24100    0.0
 L5       -33.1369820368   3.0841821126 -14.0971119506   -0.24100    0.0
 O1         3.1755401816  22.2836443724 -13.7581074612   -8.00000    8.0
 H2         3.7171911437  20.9124837637 -12.7100427320   -0.75900    1.0
 H3         4.4138138820  22.3651219278 -15.0741418479   -0.75900    1.0
 L4         3.1477189603  23.4140826749 -13.0716993008   -0.24100    0.0
 L5         1.9753935868  22.0429568078 -14.2596436875   -0.24100    0.0
 O1        -3.7003871701   0.4755571358 -13.7020017104   -8.00000    8.0
 H2        -2.4528498333   1.1421578871 -12.5745262615   -0.75900    1.0
 H3        -3.3781983972   1.3053565667 -15.2766553724   -0.75900    1.0
 L4        -4.9187728368   0.7530516265 -13.2680038837   -0.24100    0.0
 L5        -3.5649535986  -0.8343019839 -13.8274918427   -0.24100    0.0
 O1        -5.8650451762  22.2472207152 -11.4426017674   -8.00000    8.0
 H2        -5.5010393793  21.6567478338  -9.7720484422   -0.75900    1.0
 H3        -6.3231157162  20.7573633018 -12.3604269820   -0.75900    1.0
 L4        -4.7991714680  22.8178241580 -11.9793939880   -0.24100    0.0
 L5        -6.8660237349  23.1118345611 -11.4251157364   -0.24100    0.0
 O1         7.2949516754  15.7766506041   1.6195973882   -8.00000    8.0
 H2         8.4677863349  15.6529371915   0.2480797218   -0.75900    1.0
 H3         7.4831665859  17.4704425044   2.2258572353   -0.75900    1.0
 L4         7.5919817037  14.9045902924   2.5688628484   -0.24100    0.0
 L5         6.0589352376  15.5655157154   1.1982823478   -0.24100    0.0
 O1        -9.6143099089   3.2391195743   0.2291198249   -8.00000    8.0
 H2       -10.9816468401   3.7505953806  -0.8389106394   -0.75900    1.0
 H3        -8.9047338669   1.7975098697  -0.6016449773   -0.75900    1.0
 L4       -10.0572861103   2.9142440856   1.4324688768   -0.24100    0.0
 L5        -8.7175452865   4.2056932851   0.3357472710   -0.24100    0.0
 O1        40.4284667517  40.9894839957  -8.2733941462   -8.00000    8.0
 H2        38.6590655689  41.1032933257  -7.9153805333   -0.75900    1.0
 H3        41.1844513770  42.2611591984  -7.2326077696   -0.75900    1.0
 L4        40.6631964834  41.2317672149  -9.5524647985   -0.24100    0.0
 L5        40.8928918455  39.7913567168  -7.9593538708   -0.24100    0.0
 O1        -0.4871900349  -3.8220358341 -17.1281309634   -8.00000    8.0
 H2        -2.2144329406  -3.4043160954 -17.4658424095   -0.75900    1.0
 H3        -0.2066972733  -5.3606658087 -18.0368930160   -0.75900    1.0
 L4        -0.2947422581  -4.0028825275 -15.8319522467   -0.24100    0.0
 L5         0.3184733175  -2.8678745598 -17.5643691601   -0.24100    0.0
 O1        26.1663407599   5.3364214936  -3.2577793397   -8.00000    8.0
 H2        24.9608215081   4.0058447762  -3.0382439472   -0.75900    1.0
 H3        27.3424568126   4.6874680791  -4.4691906459   -0.75900    1.0
 L4        26.7746629419   5.6093510514  -2.1152932267   -0.24100    0.0
 L5        25.5783038087   6.4291673175  -3.7159714907   -0.24100    0.0
 O1       -15.3333326550   2.6779066898 -23.2198039395   -8.00000    8.0
 H2       -15.2019360214   0.9396318201 -23.7025484457   -0.75900    1.0
 H3       -15.2826129595   2.6515519159 -21.4118659442   -0.75900    1.0
 L4       -16.4720573509   3.1972661217 -23.6480477793   -0.24100    0.0
 L5       -14.3202497886   3.3759630592 -23.7058094433   -0.24100    0.0
 O1        -0.8928147379  26.3991112258 -24.9742529745   -8.00000    8.0
 H2        -1.0329308281  28.1378234326 -24.4955524423   -0.75900    1.0
 H3         0.5810055097  26.3342702928 -26.0209412698   -0.75900    1.0
 L4        -1.9628203930  26.0122653825 -25.6489819056   -0.24100    0.0
 L5        -0.7429299259  25.6311553545 -23.9076699905   -0.24100    0.0
 O1        11.6794078061  -0.1004132337  -5.4484002305   -8.00000    8.0
 H2        12.5925945341   1.3570992280  -6.0084486930   -0.75900    1.0
 H3        12.7485370105  -0.8526868936  -4.1982186671   -0.75900    1.0
 L4        11.4732561801  -0.9371145826  -6.4520203272   -0.24100    0.0
 L5        10.5179621304   0.2497447411  -4.9209021035   -0.24100    0.0
 O1        -8.6865751314  29.7575481112 -32.7157166577   -8.00000    8.0
 H2        -7.8200179445  29.1337935975 -34.1758248060   -0.75900    1.0
 H3       -10.2330024152  30.4376204361 -33.3622235372   -0.75900    1.0
 L4        -7.9759774307  30.6990397637 -32.1169969279   -0.24100    0.0
 L5        -8.9281312959  28.7772028708 -31.8610852941   -0.24100    0.0
 O1        -1.2864248454   9.0017054840 -15.6621608229   -8.00000    8.0
 H2        -2.5951808733   7.7656706564 -15.4852924520   -0.75900    1.0
 H3         0.2427646980   8.0374644450 -15.7231970052   -0.75900    1.0
 L4        -1.2785890737   9.8256727344 -14.6273480332   -0.24100    0.0
 L5        -1.4463374259   9.6957058235 -16.7768860959   -0.24100    0.0
 O1       -12.9892853840  15.7942357930 -14.4714627015   -8.00000    8.0
 H2       -14.5472969931  16.1155447131 -15.3324314931   -0.75900    1.0
 H3       -12.4872458959  14.1521047681 -15.0400301169   -0.75900    1.0
 L4       -13.1693910847  15.8004278468 -13.1609877746   -0.24100    0.0
 L5       -12.0806658274  16.6992772703 -14.7957023731   -0.24100    0.0
 O1        19.7115904099  37.8595405213 -12.8171742486   -8.00000    8.0
 H2        20.0882999353  38.6499321690 -11.2343673010   -0.75900    1.0
 H3        19.6220989123  39.2275110170 -13.9972398616   -0.75900    1.0
 L4        18.5562060458  37.2182928309 -12.7562701473   -0.24100    0.0
 L5        20.6688234131  37.0117368475 -13.1559290967   -0.24100    0.0
 O1        10.5573284960 -18.8202965404   6.4723505425   -8.00000    8.0
 H2        11.7385448316 -17.4745548146   6.2161981810   -0.75900    1.0
 H3         9.0238257897 -17.9917800021   6.9559171375   -0.75900    1.0
 L4        10.9731009582 -19.6311300913   7.4312578119   -0.24100    0.0
 L5        10.3845979639 -19.5094810678   5.3565504756   -0.24100    0.0
 O1        21.2575100363   9.9632425128 -19.3300855589   -8.00000    8.0
 H2        20.7929681297  10.3803475846 -21.0277695791   -0.75900    1.0
 H3        20.3282160859  11.1293478446 -18.3061138966   -0.75900    1.0
 L4        22.5589546255  10.1172384490 -19.1502295839   -0.24100    0.0
 L5        20.9176710751   8.7169916837 -19.0451482142   -0.24100    0.0
 O1       -10.3128385939 -22.0227390039 -12.0254452012   -8.00000    8.0
 H2        -8.6283702660 -22.3814888090 -11.4724787591   -0.75900    1.0
 H3       -11.3489607089 -23.1879375629 -11.1085645452   -0.75900    1.0
 L4       -10.4289482478 -22.2190239892 -13.3284462340   -0.24100    0.0
 L5       -10.6440221877 -20.7750839333 -11.7364898572   -0.24100    0.0
 O1       -15.0685736335  12.2513753138   0.1741122095   -8.00000    8.0
 H2       -15.9529246504  10.6734560225   0.1750316342   -0.75900    1.0
 H3       -13.6231235535  11.9617371634   1.2222966706   -0.75900    1.0
 L4       -15.8259819694  13.2121082963   0.6772480638   -0.24100    0.0
 L5       -14.6982668450  12.5790678927  -1.0527991137   -0.24100    0.0
 O1         1.3477991474 -24.2627741394  15.3418955823   -8.00000    8.0
 H2         2.4080681754 -24.7757393641  16.7147040623   -0.75900    1.0
 H3         1.6468930914 -25.4957679306  14.0526415423   -0.75900    1.0
 L4         1.6815346732 -23.0544128578  14.9196343470   -0.24100    0.0
 L5         0.0762407940 -24.2666004624  15.7065127133   -0.24100    0.0
 O1        10.9267033191  26.5258234271 -17.0889527765   -8.00000    8.0
 H2        10.1800538007  27.7576760969 -15.9948959439   -0.75900    1.0
 H3        10.1425155127  26.8101037121 -18.6939889319   -0.75900    1.0
 L4        10.6745604309  25.3016811020 -16.6556855716   -0.24100    0.0
 L5        12.2349689779  26.7039875080 -17.1696959807   -0.24100    0.0
 O1        12.1758362813  20.2005368237   6.7132279105   -8.00000    8.0
 H2        13.9253244478  19.8365285158   6.4326999024   -0.75900    1.0
 H3        12.1766612114  21.7836129226   7.5883143295   -0.75900    1.0
 L4        11.6148785978  19.2579312785   7.4525804667   -0.24100    0.0
 L5        11.5292551313  20.3021090126   5.5636902443   -0.24100    0.0
 O1        19.7617056074   1.0388134903   0.4093566625   -8.00000    8.0
 H2        18.0011203927   1.0288665717  -0.0055500945   -0.75900    1.0
 H3        19.9374695089   2.3816870379   1.6083998403   -0.75900    1.0
 L4        20.4942996833   1.2739505946  -0.6666718691   -0.24100    0.0
 L5        20.1224777888  -0.1159080415   0.9444104506   -0.24100    0.0
 O1        32.7026332646  28.6040738359 -12.3655799350   -8.00000    8.0
 H2        31.2982461265  27.4761698046 -12.5312184534   -0.75900    1.0
 H3        34.1205173442  27.5217961809 -12.0652689783   -0.75900    1.0
 L4        32.5213585883  29.4302008781 -11.3484887195   -0.24100    0.0
 L5        32.8745964177  29.3027483965 -13.4755814987   -0.24100    0.0
 O1         7.6043644890  -5.8583106898  -6.3039273469   -8.00000    8.0
 H2         8.8842299084  -6.8823113305  -5.5388952873   -0.75900    1.0
 H3         6.7741449717  -5.0550204568  -4.9120339562   -0.75900    1.0
 L4         6.7537332458  -6.6061595819  -6.9872789852   -0.24100    0.0
 L5         8.1447855823  -4.9581939612  -7.1086359002   -0.24100    0.0
 O1        17.9553457642  13.0428304717 -16.7257544477   -8.00000    8.0
 H2        16.1691545333  12.7574765900 -16.7267058118   -0.75900    1.0
 H3        18.1446457019  14.7345958630 -17.3373116820   -0.75900    1.0
 L4        18.5662440567  12.1851663502 -17.5264019792   -0.24100    0.0
 L5        18.4461407933  12.9302130381 -15.5025379943   -0.24100    0.0
 O1        -0.4739531026   5.8082315030   9.7691224645   -8.00000    8.0
 H2         0.9242833804   4.9917623589   8.9627604300   -0.75900    1.0
 H3        -0.9415506974   4.6878449091  11.1100151619   -0.75900    1.0
 L4        -1.4763155517   5.9656320776   8.9204084263   -0.24100    0.0
 L5        -0.1136372677   6.9870652985  10.2490644616   -0.24100    0.0
 O1         8.7035183969  24.8362353077  -4.8514217818   -8.00000    8.0
 H2         8.9257930776  26.2176163404  -5.9978454665   -0.75900    1.0
 H3        10.3729765494  24.4600381746  -4.2655104829   -0.75900    1.0
 L4         8.1798823244  23.7925063896  -5.4729168727   -0.24100    0.0
 L5         7.9220503351  25.1864891007  -3.8432298914   -0.24100    0.0
 O1        21.4787431589  -1.3279350332  16.7016650088   -8.00000    8.0
 H2        21.8960172658  -1.6826487341  18.4256044991   -0.75900    1.0
 H3        22.8620394359  -2.0035988643  15.7519931425   -0.75900    1.0
 L4        21.3696610867  -0.0242704523  16.5057550775   -0.24100    0.0
 L5        20.3456139575  -1.9207434332  16.3634086670   -0.24100    0.0
 O1        14.8958775621  -9.2067598662  -5.9827123205   -8.00000    8.0
 H2        16.0826101159  -8.0123437426  -6.6437288298   -0.75900    1.0
 H3        15.9170070722 -10.4532949262  -5.1609144595   -0.75900    1.0
 L4        14.1880098993  -9.7514638982  -6.9584386286   -0.24100    0.0
 L5        14.0805439269  -8.6260990448  -5.1179088674   -0.24100    0.0
 O1        -4.5882985079   8.2850711617   6.7163576139   -8.00000    8.0
 H2        -3.6120336259   7.0490719233   7.6058066676   -0.75900    1.0
 H3        -4.9723326361   7.5042429238   5.1305669885   -0.75900    1.0
 L4        -3.8874672405   9.3921803445   6.5347929400   -0.24100    0.0
 L5        -5.6977090376   8.5693687521   7.3783274740   -0.24100    0.0
 O1       -11.9405118156  12.1676197084 -17.9995698655   -8.00000    8.0
 H2       -12.3479057592  13.6023708902 -19.0230082258   -0.75900    1.0
 H3       -13.3839639452  11.0864735001 -18.1391251662   -0.75900    1.0
 L4       -11.7476144441  12.5299687549 -16.7420665011   -0.24100    0.0
 L5       -10.8565127778  11.5613190295 -18.4547253464   -0.24100    0.0
 O1         0.9535116228  42.4947385227  -7.0564885175   -8.00000    8.0
 H2         1.7105240389  41.0833306454  -7.8971827914   -0.75900    1.0
 H3         1.7384063805  42.5263872365  -5.4271188741   -0.75900    1.0
 L4        -0.3534278042  42.3251228305  -6.9426430530   -0.24100    0.0
 L5         1.1966912041  43.6162483495  -7.7144401406   -0.24100    0.0
 O1         7.1347240952  22.2415158716 -17.2968614399   -8.00000    8.0
 H2         8.7396042743  21.4072221012 -17.2820165106   -0.75900    1.0
 H3         7.5090511540  23.9528287062 -16.8460904433   -0.75900    1.0
 L4         6.3151050250  21.6942139361 -16.4145315074   -0.24100    0.0
 L5         6.5888905482  22.1837634430 -18.5004192220   -0.24100    0.0
 O1        -5.8039970324  26.6675405005 -18.7820700469   -8.00000    8.0
 H2        -5.0501064085  27.2065202874 -17.2286684333   -0.75900    1.0
 H3        -6.4057433886  28.1921843623 -19.5470989833   -0.75900    1.0
 L4        -6.8046224436  25.8336254398 -18.5515155048   -0.24100    0.0
 L5        -4.9083357625  26.0777641667 -19.5565219206   -0.24100    0.0
 O1         6.5768005056  -7.5158755515   7.0902507237   -8.00000    8.0
 H2         4.9385672551  -7.8259258874   6.3888468012   -0.75900    1.0
 H3         6.2451596758  -6.8097180316   8.7222013275   -0.75900    1.0
 L4         7.2526640165  -6.6616078364   6.3397468101   -0.24100    0.0
 L5         7.2599506783  -8.6434171215   7.1987716366   -0.24100    0.0
 O1       -11.4991179690  17.0952691333   7.1918726894   -8.00000    8.0
 H2       -11.2128801321  17.7565908731   8.8509773617   -0.75900    1.0
 H3       -12.8905838288  18.0586992954   6.5534904057   -0.75900    1.0
 L4       -11.8068378691  15.8099569386   7.2475679673   -0.24100    0.0
 L5       -10.4289026274  17.2596670072   6.4319823022   -0.24100    0.0
 O1        24.5669712180  28.1277023426  37.3685265264   -8.00000    8.0
 H2        23.9973056250  28.0847920054  35.6522670264   -0.75900    1.0
 H3        25.6927078818  26.7187464967  37.5080515940   -0.75900    1.0
 L4        23.5486010652  27.9968496855  38.2025653463   -0.24100    0.0
 L5        25.2017086289  29.2601956776  37.6222748349   -0.24100    0.0
 O1        -2.1306973538 -12.3340916076 -12.2750296715   -8.00000    8.0
 H2        -2.4871666240 -10.5782664184 -12.5238557564   -0.75900    1.0
 H3        -2.9340609632 -12.7421041713 -10.7065783604   -0.75900    1.0
 L4        -0.8262227697 -12.5402212507 -12.1996800283   -0.24100    0.0
 L5        -2.6350046734 -13.0578162222 -13.2607871206   -0.24100    0.0
 O1         8.3711525357  37.3047226523  14.8501774860   -8.00000    8.0
 H2         9.0389622568  36.9612836773  13.2045813316   -0.75900    1.0
 H3         8.8272755254  39.0247481200  15.1747865816   -0.75900    1.0
 L4         8.9105460033  36.5000248803  15.7509200252   -0.24100    0.0
 L5         7.0563592857  37.1597151111  14.8607822794   -0.24100    0.0
 O1        16.1663160508  14.3991334694   2.9497091346   -8.00000    8.0
 H2        15.8271171789  16.0721839271   2.3515844421   -0.75900    1.0
 H3        17.9048361034  14.1145652684   2.5392510709   -0.75900    1.0
 L4        15.3914351435  13.5181462996   2.3387736840   -0.24100    0.0
 L5        15.9758070120  14.3222084535   4.2564645773   -0.24100    0.0
 O1        18.9690316263 -11.2409895017 -22.1296879930   -8.00000    8.0
 H2        17.4557074434 -10.3061282808 -22.4580038038   -0.75900    1.0
 H3        19.2118034884 -12.2465637596 -23.6135306703   -0.75900    1.0
 L4        18.8217479604 -12.0094356741 -21.0630957838   -0.24100    0.0
 L5        19.9928677617 -10.4237584926 -21.9460743100   -0.24100    0.0
 O1        14.9572525399 -25.9850908447 -14.9345387925   -8.00000    8.0
 H2        15.5472961604 -24.2781213468 -15.0345913563   -0.75900    1.0
 H3        14.3656710323 -26.1614991317 -13.2342981353   -0.75900    1.0
 L4        15.9413496210 -26.8349423339 -15.1776978349   -0.24100    0.0
 L5        13.9742164450 -26.1911716355 -15.7953475301   -0.24100    0.0
 O1        -6.4005736833 -18.6291747874  -4.4215308926   -8.00000    8.0
 H2        -4.9601208075 -18.8746964463  -5.4877023065   -0.75900    1.0
 H3        -5.7028250525 -18.2919261805  -2.7871144580   -0.75900    1.0
 L4        -7.1523701919 -19.7172174674  -4.3934938622   -0.24100    0.0
 L5        -7.1239197408 -17.6044144151  -4.8415994576   -0.24100    0.0
 O1         6.7695021754   6.4071043936  -3.4994330205   -8.00000    8.0
 H2         5.2208764785   7.0131430681  -2.7878274892   -0.75900    1.0
 H3         6.7143729892   4.6167564324  -3.2473976911   -0.75900    1.0
 L4         7.8092011243   6.9353384493  -2.8750807026   -0.24100    0.0
 L5         6.8362317302   6.6959238450  -4.7885999724   -0.24100    0.0
 O1       -18.2983776952  -9.7107030398   1.3354415974   -8.00000    8.0
 H2       -18.1345772381  -9.5534276877   3.1299723801   -0.75900    1.0
 H3       -20.0753694174  -9.9027435861   1.0573630042   -0.75900    1.0
 L4       -17.6393145109 -10.7704892342   0.8969100932   -0.24100    0.0
 L5       -17.8445022276  -8.6269323811   0.7277746178   -0.24100    0.0
 O1        -0.2312064972  -4.9867048009  -0.2459788821   -8.00000    8.0
 H2        -0.6068970099  -3.2310397598  -0.4659874244   -0.75900    1.0
 H3        -0.4542765785  -5.2797426845   1.5249743623   -0.75900    1.0
 L4         1.0134987356  -5.2476451784  -0.6099018710   -0.24100    0.0
 L5        -1.0628275390  -5.7348290842  -0.9520507186   -0.24100    0.0
 O1         9.7423649259  25.7374230290  13.0577226889   -8.00000    8.0
 H2         8.4263204322  24.9782315151  12.0761107531   -0.75900    1.0
 H3         9.0274563662  25.9221485930  14.7089916172   -0.75900    1.0
 L4        10.0773180446  26.9158429608  12.5587699742   -0.24100    0.0
 L5        10.8085637983  24.9553264431  13.0946798753   -0.24100    0.0
 O1        16.5899202325  -9.0305940234   3.6705817976   -8.00000    8.0
 H2        18.0924571712  -9.0062394984   2.6637568569   -0.75900    1.0
 H3        15.5167571138 -10.2365851912   2.8546080971   -0.75900    1.0
 L4        16.0210181042  -7.8365345385   3.6904124234   -0.24100    0.0
 L5        16.8625978953  -9.4094438547   4.9082976925   -0.24100    0.0
 O1       -21.0353655343  10.9666090422 -17.2552638373   -8.00000    8.0
 H2       -20.4435689861  12.5250829589 -17.9572914384   -0.75900    1.0
 H3       -22.6483828130  10.7035861848 -18.0304419403   -0.75900    1.0
 L4       -21.1579807833  11.0622725616 -15.9416295919   -0.24100    0.0
 L5       -20.2082113707   9.9772154446 -17.5497757004   -0.24100    0.0
 O1        -1.1388648383  21.0441087308   8.1897300746   -8.00000    8.0
 H2        -2.7797250353  20.4385013975   8.6509506595   -0.75900    1.0
 H3        -0.8725056889  20.4044264197   6.5188721510   -0.75900    1.0
 L4        -0.2191108820  20.5807390790   9.0198879899   -0.24100    0.0
 L5        -1.1103522274  22.3666021631   8.1940994581   -0.24100    0.0
 O1         0.0967686244  19.3238270248   3.3704752817   -8.00000    8.0
 H2         1.4980348231  20.2416743404   2.6878947357   -0.75900    1.0
 H3         0.7579009837  17.6752893158   3.7127241416   -0.75900    1.0
 L4        -0.8912250720  19.2584831350   2.4933096356   -0.24100    0.0
 L5        -0.3380838851  19.8932733101   4.4824353358   -0.24100    0.0
 O1       -13.6501537759 -24.9055134849 -24.7190735392   -8.00000    8.0
 H2       -13.2520163792 -23.1869283011 -24.3192505337   -0.75900    1.0
 H3       -12.1040548026 -25.5919918682 -25.3595672943   -0.75900    1.0
 L4       -14.6025517209 -24.9638126978 -25.6352396241   -0.24100    0.0
 L5       -14.0390820899 -25.5592634729 -23.6368690028   -0.24100    0.0
 O1         8.5796907134  23.6353497931 -11.7098806608   -8.00000    8.0
 H2         7.2945727237  22.8203928283 -10.7320137197   -0.75900    1.0
 H3        10.1088053183  22.7880753271 -11.2452933592   -0.75900    1.0
 L4         8.6489279054  24.9221549819 -11.4112846861   -0.24100    0.0
 L5         8.3421205593  23.4953160055 -13.0036240276   -0.24100    0.0
 O1        -2.5862508843   2.9619248294 -18.6236634937   -8.00000    8.0
 H2        -1.5038511390   1.7194846238 -19.3697599910   -0.75900    1.0
 H3        -3.2624881844   3.8773075398 -20.0296096036   -0.75900    1.0
 L4        -1.8978771647   3.7656632729 -17.8299588411   -0.24100    0.0
 L5        -3.5548355707   2.3838229461 -17.9326766222   -0.24100    0.0
 O1        14.7433584304   6.6894694198   1.8235868414   -8.00000    8.0
 H2        14.8738340676   8.2016359946   0.8395974033   -0.75900    1.0
 H3        13.1255213869   6.8074143376   2.6239612247   -0.75900    1.0
 L4        15.7086711058   6.6343589015   2.7263355375   -0.24100    0.0
 L5        14.8041745435   5.6199680421   1.0475139438   -0.24100    0.0
 O1        14.9961808920   1.7983401743   0.4374252163   -8.00000    8.0
 H2        13.9296894998   0.8516956441  -0.6753942210   -0.75900    1.0
 H3        14.4154795389   3.5041833483   0.2799709042   -0.75900    1.0
 L4        16.2624645684   1.6995385759   0.0678513618   -0.24100    0.0
 L5        14.8662934466   1.3733715704   1.6833593543   -0.24100    0.0
 O1         2.6239762421  16.4813540185 -18.6647473609   -8.00000    8.0
 H2         1.5286630264  17.8422807450 -18.1956266291   -0.75900    1.0
 H3         1.5181932647  15.0689597798 -18.8977567552   -0.75900    1.0
 L4         3.5010397000  16.2352087981 -17.7055846217   -0.24100    0.0
 L5         3.2654463164  16.7630066117 -19.7868030187   -0.24100    0.0
 O1        28.5790862899  15.7769668550 -36.7976247811   -8.00000    8.0
 H2        27.4329930824  17.1521692122 -36.5384034610   -0.75900    1.0
 H3        30.2135012984  16.5507416119 -36.8408342927   -0.75900    1.0
 L4        28.3219874003  15.1632537074 -37.9408995828   -0.24100    0.0
 L5        28.4992925749  14.9081033582 -35.8033762578   -0.24100    0.0
 O1        13.0506706446  -4.2030460007   9.6737669916   -8.00000    8.0
 H2        13.8893772688  -2.7731389433   8.9499964049   -0.75900    1.0
 H3        12.9030123488  -3.8006153190  11.4310812579   -0.75900    1.0
 L4        13.7683969750  -5.3012166045   9.5043232594   -0.24100    0.0
[...]
       ROT.KE TEMP =     299.70
     TRANS.KE TEMP =     298.76
 *** RESCALING VELOCITIES AFTER MD STEP NO.       2 ***

 *** AT T=          3.00 FSEC, THIS RUN'S STEP NO.=       3
     ELEC ENERGY      =       -6035.57558922 KCAL/MOL
     POLZ ENERGY      =           0.00000000 KCAL/MOL
     DISP ENERGY      =           0.00000000 KCAL/MOL
     E7 DISP ENERGY      =           0.00000000 KCAL/MOL
     E6 DISP ENERGY      =           0.00000000 KCAL/MOL
     CH-TR ENRGY      =           0.00000000 KCAL/MOL
     REP  ENERGY      =         958.50657871 KCAL/MOL
     POT  ENERGY      =       -5077.06901051 KCAL/MOL

     TRANS    KE      =         456.11148075 KCAL/MOL
     ROT      KE      =         457.79286379 KCAL/MOL
     TOT      KE      =         913.90434454 KCAL/MOL

     TOTAL ENERGY     =       -4163.16466596 KCAL/MOL  0.00000000

     TEMPERATURE      =         299.40872439 K
     PRESSURE(AVERAGE)=             495.8567 BAR    (            546.3955 BAR)
     HEAT OF VAP      =          10.50354182 KCAL/MOL*K
       ROT.KE TEMP =     299.96
     TRANS.KE TEMP =     298.86
 *** RESCALING VELOCITIES AFTER MD STEP NO.       3 ***

 *** AT T=          4.00 FSEC, THIS RUN'S STEP NO.=       4
     ELEC ENERGY      =       -6036.94804237 KCAL/MOL
     POLZ ENERGY      =           0.00000000 KCAL/MOL
     DISP ENERGY      =           0.00000000 KCAL/MOL
     E7 DISP ENERGY      =           0.00000000 KCAL/MOL
     E6 DISP ENERGY      =           0.00000000 KCAL/MOL
     CH-TR ENRGY      =           0.00000000 KCAL/MOL
     REP  ENERGY      =         955.84364231 KCAL/MOL
     POT  ENERGY      =       -5081.10440007 KCAL/MOL

     TRANS    KE      =         456.24192295 KCAL/MOL
     ROT      KE      =         457.83903174 KCAL/MOL
     TOT      KE      =         914.08095470 KCAL/MOL

     TOTAL ENERGY     =       -4167.02344537 KCAL/MOL  0.00000000

     TEMPERATURE      =         299.46658452 K
     PRESSURE(AVERAGE)=             438.0499 BAR    (            519.3091 BAR)
     HEAT OF VAP      =          10.50742672 KCAL/MOL*K
       ROT.KE TEMP =     299.99
     TRANS.KE TEMP =     298.94
 *** RESCALING VELOCITIES AFTER MD STEP NO.       4 ***

 *** AT T=          5.00 FSEC, THIS RUN'S STEP NO.=       5
     ELEC ENERGY      =       -6037.91197491 KCAL/MOL
     POLZ ENERGY      =           0.00000000 KCAL/MOL
     DISP ENERGY      =           0.00000000 KCAL/MOL
     E7 DISP ENERGY      =           0.00000000 KCAL/MOL
     E6 DISP ENERGY      =           0.00000000 KCAL/MOL
     CH-TR ENRGY      =           0.00000000 KCAL/MOL
     REP  ENERGY      =         952.93131669 KCAL/MOL
     POT  ENERGY      =       -5084.98065822 KCAL/MOL

     TRANS    KE      =         456.34632695 KCAL/MOL
     ROT      KE      =         457.57620555 KCAL/MOL
     TOT      KE      =         913.92253250 KCAL/MOL

     TOTAL ENERGY     =       -4171.05812572 KCAL/MOL  0.00000000

     TEMPERATURE      =         299.41468304 K
     PRESSURE(AVERAGE)=             377.1958 BAR    (            490.8865 BAR)
     HEAT OF VAP      =          10.51109982 KCAL/MOL*K
       ROT.KE TEMP =     299.82
     TRANS.KE TEMP =     299.01
 *** RESCALING VELOCITIES AFTER MD STEP NO.       5 ***

 *** AT T=          6.00 FSEC, THIS RUN'S STEP NO.=       6
     ELEC ENERGY      =       -6038.17404812 KCAL/MOL
     POLZ ENERGY      =           0.00000000 KCAL/MOL
     DISP ENERGY      =           0.00000000 KCAL/MOL
     E7 DISP ENERGY      =           0.00000000 KCAL/MOL
     E6 DISP ENERGY      =           0.00000000 KCAL/MOL
     CH-TR ENRGY      =           0.00000000 KCAL/MOL
     REP  ENERGY      =         949.80456091 KCAL/MOL
     POT  ENERGY      =       -5088.36948722 KCAL/MOL

     TRANS    KE      =         456.41178365 KCAL/MOL
     ROT      KE      =         457.02509776 KCAL/MOL
     TOT      KE      =         913.43688141 KCAL/MOL

     TOTAL ENERGY     =       -4174.93260581 KCAL/MOL  0.00000000

     TEMPERATURE      =         299.25557648 K
     PRESSURE(AVERAGE)=             315.8788 BAR    (            461.7185 BAR)
     HEAT OF VAP      =          10.51440443 KCAL/MOL*K
       ROT.KE TEMP =     299.46
     TRANS.KE TEMP =     299.05
 *** RESCALING VELOCITIES AFTER MD STEP NO.       6 ***

 *** AT T=          7.00 FSEC, THIS RUN'S STEP NO.=       7
     ELEC ENERGY      =       -6037.47493088 KCAL/MOL
     POLZ ENERGY      =           0.00000000 KCAL/MOL
     DISP ENERGY      =           0.00000000 KCAL/MOL
     E7 DISP ENERGY      =           0.00000000 KCAL/MOL
     E6 DISP ENERGY      =           0.00000000 KCAL/MOL
     CH-TR ENRGY      =           0.00000000 KCAL/MOL
     REP  ENERGY      =         946.50970802 KCAL/MOL
     POT  ENERGY      =       -5090.96522286 KCAL/MOL

     TRANS    KE      =         456.42745098 KCAL/MOL
     ROT      KE      =         456.21868025 KCAL/MOL
     TOT      KE      =         912.64613123 KCAL/MOL

     TOTAL ENERGY     =       -4178.31909163 KCAL/MOL  0.00000000

     TEMPERATURE      =         298.99651490 K
     PRESSURE(AVERAGE)=             256.7582 BAR    (            432.4385 BAR)
     HEAT OF VAP      =          10.51720035 KCAL/MOL*K
       ROT.KE TEMP =     298.93
     TRANS.KE TEMP =     299.06
 *** RESCALING VELOCITIES AFTER MD STEP NO.       7 ***

 *** AT T=          8.00 FSEC, THIS RUN'S STEP NO.=       8
     ELEC ENERGY      =       -6035.60312368 KCAL/MOL
     POLZ ENERGY      =           0.00000000 KCAL/MOL
     DISP ENERGY      =           0.00000000 KCAL/MOL
     E7 DISP ENERGY      =           0.00000000 KCAL/MOL
     E6 DISP ENERGY      =           0.00000000 KCAL/MOL
     CH-TR ENRGY      =           0.00000000 KCAL/MOL
     REP  ENERGY      =         943.10220686 KCAL/MOL
     POT  ENERGY      =       -5092.50091681 KCAL/MOL

     TRANS    KE      =         456.38577026 KCAL/MOL
     ROT      KE      =         455.20302758 KCAL/MOL
     TOT      KE      =         911.58879784 KCAL/MOL

     TOTAL ENERGY     =       -4180.91211897 KCAL/MOL  0.00000000

     TEMPERATURE      =         298.65011668 K
     PRESSURE(AVERAGE)=             202.4734 BAR    (            403.6928 BAR)
     HEAT OF VAP      =          10.51937016 KCAL/MOL*K
       ROT.KE TEMP =     298.26
     TRANS.KE TEMP =     299.04
 *** RESCALING VELOCITIES AFTER MD STEP NO.       8 ***

 *** AT T=          9.00 FSEC, THIS RUN'S STEP NO.=       9
     ELEC ENERGY      =       -6032.41835883 KCAL/MOL
     POLZ ENERGY      =           0.00000000 KCAL/MOL
     DISP ENERGY      =           0.00000000 KCAL/MOL
     E7 DISP ENERGY      =           0.00000000 KCAL/MOL
     E6 DISP ENERGY      =           0.00000000 KCAL/MOL
     CH-TR ENRGY      =           0.00000000 KCAL/MOL
     REP  ENERGY      =         939.64357309 KCAL/MOL
     POT  ENERGY      =       -5092.77478574 KCAL/MOL

     TRANS    KE      =         456.28361949 KCAL/MOL
     ROT      KE      =         454.04613727 KCAL/MOL
     TOT      KE      =         910.32975676 KCAL/MOL

     TOTAL ENERGY     =       -4182.44502898 KCAL/MOL  0.00000000

     TEMPERATURE      =         298.23763600 K
     PRESSURE(AVERAGE)=             155.4381 BAR    (            376.1090 BAR)
     HEAT OF VAP      =          10.52083312 KCAL/MOL*K
       ROT.KE TEMP =     297.50
     TRANS.KE TEMP =     298.97
 *** RESCALING VELOCITIES AFTER MD STEP NO.       9 ***

 *** AT T=         10.00 FSEC, THIS RUN'S STEP NO.=      10
     ELEC ENERGY      =       -6027.88466266 KCAL/MOL
     POLZ ENERGY      =           0.00000000 KCAL/MOL
     DISP ENERGY      =           0.00000000 KCAL/MOL
     E7 DISP ENERGY      =           0.00000000 KCAL/MOL
     E6 DISP ENERGY      =           0.00000000 KCAL/MOL
     CH-TR ENRGY      =           0.00000000 KCAL/MOL
     REP  ENERGY      =         936.19771142 KCAL/MOL
     POT  ENERGY      =       -5091.68695124 KCAL/MOL

     TRANS    KE      =         456.12314252 KCAL/MOL
     ROT      KE      =         452.84671565 KCAL/MOL
     TOT      KE      =         908.96985818 KCAL/MOL

     TOTAL ENERGY     =       -4182.71709306 KCAL/MOL  0.00000000

     TEMPERATURE      =         297.79211289 K
     PRESSURE(AVERAGE)=             117.4880 BAR    (            350.2469 BAR)
     HEAT OF VAP      =          10.52156157 KCAL/MOL*K
       ROT.KE TEMP =     296.72
     TRANS.KE TEMP =     298.87
 *** RESCALING VELOCITIES AFTER MD STEP NO.      10 ***

 *** AT T=         11.00 FSEC, THIS RUN'S STEP NO.=      11
     ELEC ENERGY      =       -6022.09894268 KCAL/MOL
     POLZ ENERGY      =           0.00000000 KCAL/MOL
     DISP ENERGY      =           0.00000000 KCAL/MOL
     E7 DISP ENERGY      =           0.00000000 KCAL/MOL
     E6 DISP ENERGY      =           0.00000000 KCAL/MOL
     CH-TR ENRGY      =           0.00000000 KCAL/MOL
     REP  ENERGY      =         932.82694087 KCAL/MOL
     POT  ENERGY      =       -5089.27200181 KCAL/MOL

     TRANS    KE      =         455.91186597 KCAL/MOL
     ROT      KE      =         451.73007034 KCAL/MOL
     TOT      KE      =         907.64193630 KCAL/MOL

     TOTAL ENERGY     =       -4181.63006550 KCAL/MOL  1.08702756

     TEMPERATURE      =         297.35706584 K
     PRESSURE(AVERAGE)=              89.5166 BAR    (            326.5441 BAR)
     HEAT OF VAP      =          10.52158873 KCAL/MOL*K
       ROT.KE TEMP =     295.99
     TRANS.KE TEMP =     298.73
 *** RESCALING VELOCITIES AFTER MD STEP NO.      11 ***

 *** AT T=         12.00 FSEC, THIS RUN'S STEP NO.=      12
     ELEC ENERGY      =       -6015.29602772 KCAL/MOL
     POLZ ENERGY      =           0.00000000 KCAL/MOL
     DISP ENERGY      =           0.00000000 KCAL/MOL
     E7 DISP ENERGY      =           0.00000000 KCAL/MOL
     E6 DISP ENERGY      =           0.00000000 KCAL/MOL
     CH-TR ENRGY      =           0.00000000 KCAL/MOL
     REP  ENERGY      =         929.58823695 KCAL/MOL
     POT  ENERGY      =       -5085.70779077 KCAL/MOL

     TRANS    KE      =         455.66185811 KCAL/MOL
     ROT      KE      =         450.82662677 KCAL/MOL
     TOT      KE      =         906.48848488 KCAL/MOL

     TOTAL ENERGY     =       -4179.21930589 KCAL/MOL  3.49778718

     TEMPERATURE      =         296.97917791 K
     PRESSURE(AVERAGE)=              71.3215 BAR    (            305.2756 BAR)
     HEAT OF VAP      =          10.52100077 KCAL/MOL*K
       ROT.KE TEMP =     295.40
     TRANS.KE TEMP =     298.56
 *** RESCALING VELOCITIES AFTER MD STEP NO.      12 ***

 *** AT T=         13.00 FSEC, THIS RUN'S STEP NO.=      13
     ELEC ENERGY      =       -6007.82351826 KCAL/MOL
     POLZ ENERGY      =           0.00000000 KCAL/MOL
     DISP ENERGY      =           0.00000000 KCAL/MOL
     E7 DISP ENERGY      =           0.00000000 KCAL/MOL
     E6 DISP ENERGY      =           0.00000000 KCAL/MOL
     CH-TR ENRGY      =           0.00000000 KCAL/MOL
     REP  ENERGY      =         926.53023199 KCAL/MOL
     POT  ENERGY      =       -5081.29328628 KCAL/MOL

     TRANS    KE      =         455.38798421 KCAL/MOL
     ROT      KE      =         450.24385683 KCAL/MOL
     TOT      KE      =         905.63184105 KCAL/MOL

     TOTAL ENERGY     =       -4175.66144523 KCAL/MOL  7.05564783

     TEMPERATURE      =         296.69852859 K
     PRESSURE(AVERAGE)=              61.7247 BAR    (            286.5409 BAR)
     HEAT OF VAP      =          10.51991768 KCAL/MOL*K
       ROT.KE TEMP =     295.01
     TRANS.KE TEMP =     298.38
 *** RESCALING VELOCITIES AFTER MD STEP NO.      13 ***

 *** AT T=         14.00 FSEC, THIS RUN'S STEP NO.=      14
     ELEC ENERGY      =       -6000.09662286 KCAL/MOL
     POLZ ENERGY      =           0.00000000 KCAL/MOL
     DISP ENERGY      =           0.00000000 KCAL/MOL
     E7 DISP ENERGY      =           0.00000000 KCAL/MOL
     E6 DISP ENERGY      =           0.00000000 KCAL/MOL
     CH-TR ENRGY      =           0.00000000 KCAL/MOL
     REP  ENERGY      =         923.69132545 KCAL/MOL
     POT  ENERGY      =       -5076.40529740 KCAL/MOL

     TRANS    KE      =         455.10563517 KCAL/MOL
     ROT      KE      =         450.04677889 KCAL/MOL
     TOT      KE      =         905.15241407 KCAL/MOL

     TOTAL ENERGY     =       -4171.25288334 KCAL/MOL 11.46420973

     TEMPERATURE      =         296.54146114 K
     PRESSURE(AVERAGE)=              58.8423 BAR    (            270.2767 BAR)
     HEAT OF VAP      =          10.51847320 KCAL/MOL*K
       ROT.KE TEMP =     294.88
     TRANS.KE TEMP =     298.20
 *** RESCALING VELOCITIES AFTER MD STEP NO.      14 ***

 *** AT T=         15.00 FSEC, THIS RUN'S STEP NO.=      15
     ELEC ENERGY      =       -5992.54762820 KCAL/MOL
     POLZ ENERGY      =           0.00000000 KCAL/MOL
     DISP ENERGY      =           0.00000000 KCAL/MOL
     E7 DISP ENERGY      =           0.00000000 KCAL/MOL
     E6 DISP ENERGY      =           0.00000000 KCAL/MOL
     CH-TR ENRGY      =           0.00000000 KCAL/MOL
     REP  ENERGY      =         921.09896003 KCAL/MOL
     POT  ENERGY      =       -5071.44866817 KCAL/MOL

     TRANS    KE      =         454.82855861 KCAL/MOL
     ROT      KE      =         450.25197542 KCAL/MOL
     TOT      KE      =         905.08053402 KCAL/MOL

     TOTAL ENERGY     =       -4166.36813415 KCAL/MOL 16.34895891

     TEMPERATURE      =         296.51791216 K
     PRESSURE(AVERAGE)=              60.3591 BAR    (            256.2822 BAR)
     HEAT OF VAP      =          10.51679948 KCAL/MOL*K
       ROT.KE TEMP =     295.02
     TRANS.KE TEMP =     298.02
 *** RESCALING VELOCITIES AFTER MD STEP NO.      15 ***

 *** AT T=         16.00 FSEC, THIS RUN'S STEP NO.=      16
     ELEC ENERGY      =       -5985.57925183 KCAL/MOL
     POLZ ENERGY      =           0.00000000 KCAL/MOL
     DISP ENERGY      =           0.00000000 KCAL/MOL
     E7 DISP ENERGY      =           0.00000000 KCAL/MOL
     E6 DISP ENERGY      =           0.00000000 KCAL/MOL
     CH-TR ENRGY      =           0.00000000 KCAL/MOL
     REP  ENERGY      =         918.76988044 KCAL/MOL
     POT  ENERGY      =       -5066.80937139 KCAL/MOL

     TRANS    KE      =         454.56746075 KCAL/MOL
     ROT      KE      =         450.83087877 KCAL/MOL
     TOT      KE      =         905.39833952 KCAL/MOL

     TOTAL ENERGY     =       -4161.41103187 KCAL/MOL 21.30606119

     TEMPERATURE      =         296.62202999 K
     PRESSURE(AVERAGE)=              63.7721 BAR    (            244.2503 BAR)
     HEAT OF VAP      =          10.51501634 KCAL/MOL*K
       ROT.KE TEMP =     295.40
     TRANS.KE TEMP =     297.85
 *** RESCALING VELOCITIES AFTER MD STEP NO.      16 ***

 *** AT T=         17.00 FSEC, THIS RUN'S STEP NO.=      17
     ELEC ENERGY      =       -5979.52700325 KCAL/MOL
     POLZ ENERGY      =           0.00000000 KCAL/MOL
     DISP ENERGY      =           0.00000000 KCAL/MOL
     E7 DISP ENERGY      =           0.00000000 KCAL/MOL
     E6 DISP ENERGY      =           0.00000000 KCAL/MOL
     CH-TR ENRGY      =           0.00000000 KCAL/MOL
     REP  ENERGY      =         916.71110001 KCAL/MOL
     POT  ENERGY      =       -5062.81590324 KCAL/MOL

     TRANS    KE      =         454.32972043 KCAL/MOL
     ROT      KE      =         451.71819041 KCAL/MOL
     TOT      KE      =         906.04791084 KCAL/MOL

     TOTAL ENERGY     =       -4156.76799240 KCAL/MOL 25.94910066

     TEMPERATURE      =         296.83483927 K
     PRESSURE(AVERAGE)=              66.6106 BAR    (            233.8009 BAR)
     HEAT OF VAP      =          10.51322435 KCAL/MOL*K
       ROT.KE TEMP =     295.98
     TRANS.KE TEMP =     297.69
 *** RESCALING VELOCITIES AFTER MD STEP NO.      17 ***

 *** AT T=         18.00 FSEC, THIS RUN'S STEP NO.=      18
     ELEC ENERGY      =       -5974.63334810 KCAL/MOL
     POLZ ENERGY      =           0.00000000 KCAL/MOL
     DISP ENERGY      =           0.00000000 KCAL/MOL
     E7 DISP ENERGY      =           0.00000000 KCAL/MOL
     E6 DISP ENERGY      =           0.00000000 KCAL/MOL
     CH-TR ENRGY      =           0.00000000 KCAL/MOL
     REP  ENERGY      =         914.92134063 KCAL/MOL
     POT  ENERGY      =       -5059.71200747 KCAL/MOL

     TRANS    KE      =         454.11992624 KCAL/MOL
     ROT      KE      =         452.82284263 KCAL/MOL
     TOT      KE      =         906.94276887 KCAL/MOL

     TOTAL ENERGY     =       -4152.76923860 KCAL/MOL 29.94785447

     TEMPERATURE      =         297.12800814 K
     PRESSURE(AVERAGE)=              66.6248 BAR    (            224.5133 BAR)
     HEAT OF VAP      =          10.51150122 KCAL/MOL*K
       ROT.KE TEMP =     296.70
     TRANS.KE TEMP =     297.55
 *** RESCALING VELOCITIES AFTER MD STEP NO.      18 ***

 *** AT T=         19.00 FSEC, THIS RUN'S STEP NO.=      19
     ELEC ENERGY      =       -5971.03167347 KCAL/MOL
     POLZ ENERGY      =           0.00000000 KCAL/MOL
     DISP ENERGY      =           0.00000000 KCAL/MOL
     E7 DISP ENERGY      =           0.00000000 KCAL/MOL
     E6 DISP ENERGY      =           0.00000000 KCAL/MOL
     CH-TR ENRGY      =           0.00000000 KCAL/MOL
     REP  ENERGY      =         913.39279301 KCAL/MOL
     POT  ENERGY      =       -5057.63888046 KCAL/MOL

     TRANS    KE      =         453.94048475 KCAL/MOL
     ROT      KE      =         454.03741737 KCAL/MOL
     TOT      KE      =         907.97790211 KCAL/MOL

     TOTAL ENERGY     =       -4149.66097834 KCAL/MOL 33.05611472

     TEMPERATURE      =         297.46713326 K
     PRESSURE(AVERAGE)=              61.9818 BAR    (            215.9590 BAR)
     HEAT OF VAP      =          10.50989891 KCAL/MOL*K
       ROT.KE TEMP =     297.50
     TRANS.KE TEMP =     297.44
 *** RESCALING VELOCITIES AFTER MD STEP NO.      19 ***

 *** AT T=         20.00 FSEC, THIS RUN'S STEP NO.=      20
     ELEC ENERGY      =       -5968.73472113 KCAL/MOL
     POLZ ENERGY      =           0.00000000 KCAL/MOL
     DISP ENERGY      =           0.00000000 KCAL/MOL
     E7 DISP ENERGY      =           0.00000000 KCAL/MOL
     E6 DISP ENERGY      =           0.00000000 KCAL/MOL
     CH-TR ENRGY      =           0.00000000 KCAL/MOL
     REP  ENERGY      =         912.11304610 KCAL/MOL
     POT  ENERGY      =       -5056.62167502 KCAL/MOL

     TRANS    KE      =         453.79177512 KCAL/MOL
     ROT      KE      =         455.24341135 KCAL/MOL
     TOT      KE      =         909.03518647 KCAL/MOL

     TOTAL ENERGY     =       -4147.58648855 KCAL/MOL 35.13060451

     TEMPERATURE      =         297.81351542 K
     PRESSURE(AVERAGE)=              51.5397 BAR    (            207.7381 BAR)
     HEAT OF VAP      =          10.50843925 KCAL/MOL*K
       ROT.KE TEMP =     298.29
     TRANS.KE TEMP =     297.34
 *** RESCALING VELOCITIES AFTER MD STEP NO.      20 ***
 .... DONE WITH THIS PORTION OF THE MD TRAJECTORY ....
 STEP CPU TIME =    14.02 TOTAL CPU TIME =       15.1 (    0.3 MIN)
 TOTAL WALL CLOCK TIME=       15.1 SECONDS, CPU UTILIZATION IS  99.87%
                44032  WORDS OF DYNAMIC MEMORY USED
 EXECUTION OF GAMESS TERMINATED NORMALLY Mon Nov 28 23:33:48 2016
 DDI: 263640 bytes (0.3 MB / 0 MWords) used by master data server.

 ----------------------------------------
 CPU timing information for all processes
 ========================================
 0: 15.114 + 0.18 = 15.133
 ----------------------------------------
 ddikick.x: exited gracefully.
unset echo
----- accounting info -----
Files used on the master node compute-3-0 were:
-rw-rw-r-- 1 sarom sarom      0 Nov 29  2016 .//tip5p-md-prop.dat
-rw-rw-r-- 1 sarom sarom 130604 Nov 29  2016 .//tip5p-md-prop.F05
-rw-rw-r-- 1 sarom sarom      0 Nov 29  2016 .//tip5p-md-prop.F08
-rw-rw-r-- 1 sarom sarom 130880 Nov 29  2016 .//tip5p-md-prop.F10
-rw-rw-r-- 1 sarom sarom 130604 Nov 27 05:47 .//tip5p-md-prop.inp
-rw-rw-r-- 1 sarom sarom 735643 Nov 29  2016 .//tip5p-md-prop.log
-rw-rw-r-- 1 sarom sarom 401352 Nov 29  2016 .//tip5p-md-prop.rst
-rw-rw-r-- 1 sarom sarom 401352 Nov 29  2016 .//tip5p-md-prop.trj
Mon Nov 28 23:33:58 CST 2016
0.200u 0.070s 0:29.12 0.9%	0+0k 0+384io 0pf+0w
