----- GAMESS execution script 'rungms' -----
This job is running on host compute-3-0
under operating system Linux at Tue Nov 29 02:42:44 CST 2016
Available scratch disk space (Kbyte units) at beginning of the job is
Filesystem            1K-blocks       Used  Available Use% Mounted on
bolt.local:/export/home/sarom
                     9590469632 1553473536 7549828096  18% /home/sarom
Copying input file svd3.inp to your run's scratch directory...
cp svd3.inp .//svd3.F05
unset echo
/home/sarom/gamessGH/ddikick.x /home/sarom/gamessGH/gamess.00.x svd3 -ddi 1 1 localhost -scr ./

 Distributed Data Interface kickoff program.
 Initiating 1 compute processes on 1 nodes to run the following command:
 /home/sarom/gamessGH/gamess.00.x svd3 

          ******************************************************
          *         GAMESS VERSION = 18 AUG 2016 (R1)          *
          *             FROM IOWA STATE UNIVERSITY             *
          * M.W.SCHMIDT, K.K.BALDRIDGE, J.A.BOATZ, S.T.ELBERT, *
          *   M.S.GORDON, J.H.JENSEN, S.KOSEKI, N.MATSUNAGA,   *
          *          K.A.NGUYEN, S.J.SU, T.L.WINDUS,           *
          *       TOGETHER WITH M.DUPUIS, J.A.MONTGOMERY       *
          *         J.COMPUT.CHEM.  14, 1347-1363(1993)        *
          **************** 64 BIT LINUX VERSION ****************

  SINCE 1993, STUDENTS AND POSTDOCS WORKING AT IOWA STATE UNIVERSITY
  AND ALSO IN THEIR VARIOUS JOBS AFTER LEAVING ISU HAVE MADE IMPORTANT
  CONTRIBUTIONS TO THE CODE:
     IVANA ADAMOVIC, CHRISTINE AIKENS, YURI ALEXEEV, POOJA ARORA,
     ANDREY ASADCHEV, ROB BELL, PRADIPTA BANDYOPADHYAY, JONATHAN BENTZ,
     BRETT BODE, KURT BRORSEN, CALEB CARLIN, GALINA CHABAN, WEI CHEN,
     CHEOL HO CHOI, PAUL DAY, ALBERT DEFUSCO, NUWAN DESILVA, TIM DUDLEY,
     DMITRI FEDOROV, GRAHAM FLETCHER, MARK FREITAG, KURT GLAESEMANN,
     DAN KEMP, GRANT MERRILL, NORIYUKI MINEZAWA, JONATHAN MULLIN,
     TAKESHI NAGATA, SEAN NEDD, HEATHER NETZLOFF, BOSILJKA NJEGIC, RYAN OLSON,
     MIKE PAK, SPENCER PRUITT, LUKE ROSKOP, JIM SHOEMAKER, LYUDMILA SLIPCHENKO,
     TONY SMITH, SAROM SOK LEANG, JIE SONG, TETSUYA TAKETSUGU, SIMON WEBB,
     PENG XU, SOOHAENG YOO, FEDERICO ZAHARIEV

  ADDITIONAL CODE HAS BEEN PROVIDED BY COLLABORATORS IN OTHER GROUPS:
     IOWA STATE UNIVERSITY:
          JOE IVANIC, AARON WEST, LAIMUTIS BYTAUTAS, KLAUS RUEDENBERG
     UNIVERSITY OF TOKYO: KIMIHIKO HIRAO, TAKAHITO NAKAJIMA,
          TAKAO TSUNEDA, MUNEAKI KAMIYA, SUSUMU YANAGISAWA,
          KIYOSHI YAGI, MAHITO CHIBA, SEIKEN TOKURA, NAOAKI KAWAKAMI
     UNIVERSITY OF AARHUS: FRANK JENSEN
     UNIVERSITY OF IOWA: VISVALDAS KAIRYS, HUI LI
     NATIONAL INST. OF STANDARDS AND TECHNOLOGY: WALT STEVENS, DAVID GARMER
     UNIVERSITY OF PISA: BENEDETTA MENNUCCI, JACOPO TOMASI
     UNIVERSITY OF MEMPHIS: HENRY KURTZ, PRAKASHAN KORAMBATH
     UNIVERSITY OF ALBERTA: TOBY ZENG, MARIUSZ KLOBUKOWSKI
     UNIVERSITY OF NEW ENGLAND: MARK SPACKMAN
     MIE UNIVERSITY: HIROAKI UMEDA
     NAT. INST. OF ADVANCED INDUSTRIAL SCIENCE AND TECHNOLOGY: KAZUO KITAURA
     MICHIGAN STATE UNIVERSITY:
          KAROL KOWALSKI, MARTA WLOCH, JEFFREY GOUR, JESSE LUTZ,
          WEI LI, PIOTR PIECUCH
     UNIVERSITY OF SILESIA: MONIKA MUSIAL, STANISLAW KUCHARSKI
     FACULTES UNIVERSITAIRES NOTRE-DAME DE LA PAIX:
          OLIVIER QUINET, BENOIT CHAMPAGNE
     UNIVERSITY OF CALIFORNIA - SANTA BARBARA: BERNARD KIRTMAN
     INSTITUTE FOR MOLECULAR SCIENCE:
          KAZUYA ISHIMURA, MICHIO KATOUDA, AND SHIGERU NAGASE
     UNIVERSITY OF NOTRE DAME: ANNA POMOGAEVA, DAN CHIPMAN
     KYUSHU UNIVERSITY:
          HARUYUKI NAKANO,
          FENG LONG GU, JACEK KORCHOWIEC, MARCIN MAKOWSKI, AND YURIKO AOKI,
          HIROTOSHI MORI AND EISAKU MIYOSHI
     PENNSYLVANIA STATE UNIVERSITY:
          TZVETELIN IORDANOV, CHET SWALINA, JONATHAN SKONE,
          SHARON HAMMES-SCHIFFER
     WASEDA UNIVERSITY:
          MASATO KOBAYASHI, TOMOKO AKAMA, TSUGUKI TOUMA,
          TAKESHI YOSHIKAWA, YASUHIRO IKABATA, JUNJI SEINO,
          YUYA NAKAJIMA, HIROMI NAKAI
     NANJING UNIVERSITY: SHUHUA LI
     UNIVERSITY OF NEBRASKA:
          PEIFENG SU, DEJUN SI, NANDUN THELLAMUREGE, YALI WANG, HUI LI
     UNIVERSITY OF ZURICH: ROBERTO PEVERATI, KIM BALDRIDGE
     N. COPERNICUS UNIVERSITY AND JACKSON STATE UNIVERSITY:
          MARIA BARYSZ
     UNIVERSITY OF COPENHAGEN: Jimmy Kromann, CASPER STEINMANN
     TOKYO INSTITUTE OF TECHNOLOGY: HIROYA NAKATA
     NAGOYA UNIVERSITY: YOSHIO NISHIMOTO, STEPHAN IRLE
     MOSCOW STATE UNIVERSITY: VLADIMIR MIRONOV

 EXECUTION OF GAMESS BEGUN Tue Nov 29 02:42:45 2016

            ECHO OF THE FIRST FEW INPUT CARDS -
 INPUT CARD>C This test input is for svd+oriented+split localization                        
 INPUT CARD>C and the important keywords are:                                               
 INPUT CARD>C --local=svd in $contrl                                                        
 INPUT CARD>C --extloc=splitq2 in $local                                                    
 INPUT CARD>C --vvos=.t. in either $mcscf or $scf.                                          
 INPUT CARD>C The output must contain the following original oriented density matrix:       
 INPUT CARD>C ORIGINAL ORIENTED DENSITY MATRIX                                              
 INPUT CARD>C                                                                               
 INPUT CARD>C                                                                               
 INPUT CARD>C             1           2           3           4           5                 
 INPUT CARD>C                                                                               
 INPUT CARD>C    1    1.9943157                                                             
 INPUT CARD>C    2   -0.0000001   1.9045884                                                 
 INPUT CARD>C    3    0.0000000   0.0000000   1.3297385                                     
 INPUT CARD>C    4   -0.0026575  -0.0000004   0.0000000   1.2285745                         
 INPUT CARD>C    5   -0.0018283   0.0000000   0.0000000   0.0032264   1.9943157             
 INPUT CARD>C    6   -0.0000000  -0.0005630   0.0000000   0.0000000   0.0000001             
 INPUT CARD>C    7    0.0000000   0.0000000   0.1280683   0.0000000   0.0000000             
 INPUT CARD>C    8   -0.0032264   0.0000000   0.0000000  -0.0072118   0.0026578             
 INPUT CARD>C    9   -0.0480880   0.2087592   0.0000000  -0.0030904  -0.0078246             
 INPUT CARD>C   10    0.0480885   0.2087586   0.0000000   0.0030904   0.0078245             
 INPUT CARD>C   11    0.0000017   0.0000005  -0.0000000   0.9684574  -0.0024928             
 INPUT CARD>C   12    0.0000000   0.0000000   0.8839049   0.0000000   0.0000000             
 INPUT CARD>C   13    0.0078247   0.0100057  -0.0000000  -0.0127016   0.0480883             
 INPUT CARD>C   14    0.0078247  -0.0100058  -0.0000000  -0.0127016   0.0480887             
 INPUT CARD>C   15    0.0024928  -0.0000000  -0.0000000   0.0032611  -0.0000021             
 INPUT CARD>C   16    0.0000000   0.0000000  -0.0597162   0.0000000   0.0000000             
 INPUT CARD>C   17    0.0228586  -0.0282550   0.0000000   0.0175585   0.0053217             
 INPUT CARD>C   18   -0.0438735  -0.2021293   0.0000000  -0.0353117  -0.0023587             
 INPUT CARD>C   19    0.0032250  -0.0512620  -0.0000000  -0.0103439  -0.0033453             
 INPUT CARD>C   20    0.0000000   0.0000000  -0.0250488   0.0000000   0.0000000             
 INPUT CARD>C   21   -0.0053217  -0.0063894  -0.0000000  -0.0069541  -0.0228578             
 INPUT CARD>C   22   -0.0023588  -0.0024726   0.0000000  -0.0007680  -0.0438734             
 INPUT CARD>C   23   -0.0033454   0.0421139   0.0000000  -0.0507806   0.0032248             
 INPUT CARD>C   24    0.0000000   0.0000000  -0.2106686   0.0000000   0.0000000             
 INPUT CARD>C   25   -0.0228584  -0.0282547   0.0000000  -0.0175583  -0.0053217             
 INPUT CARD>C   26    0.0438730  -0.2021299  -0.0000000   0.0353116   0.0023587             
 INPUT CARD>C   27   -0.0032251  -0.0512617   0.0000000   0.0103442   0.0033453             
 INPUT CARD>C   28   -0.0000000  -0.0000000   0.0250491  -0.0000000  -0.0000000             
 INPUT CARD>C   29    0.0053217  -0.0063894  -0.0000000   0.0069541   0.0228579             
 INPUT CARD>C   30   -0.0023588   0.0024727   0.0000000  -0.0007679  -0.0438738             
 INPUT CARD>C   31    0.0033455   0.0421137  -0.0000000   0.0507804  -0.0032248             
 INPUT CARD>C   32   -0.0000000  -0.0000000   0.2106678  -0.0000000  -0.0000000             
 INPUT CARD>C   33    0.0246274  -0.0001634  -0.0000000  -0.0195167   0.0130998             
 INPUT CARD>C   34   -0.0130997   0.0328080   0.0000000   0.0063520  -0.0246269             
 INPUT CARD>C   35   -0.0246276  -0.0001630   0.0000000   0.0195171  -0.0130997             
 INPUT CARD>C   36    0.0130998   0.0328078  -0.0000000  -0.0063520   0.0246268             
 INPUT CARD>C  ...........                                                                  
 INPUT CARD>C            31          32          33          34          35                 
 INPUT CARD>C                                                                               
  100000000 WORDS OF MEMORY AVAILABLE

     BASIS OPTIONS
     -------------
     GBASIS=CCD          IGAUSS=       0      POLAR=NONE    
     NDFUNC=       0     NFFUNC=       0     DIFFSP=       F
     NPFUNC=       0      DIFFS=       F     BASNAM=        


     RUN TITLE
     ---------
  title                                                                          

 THE POINT GROUP OF THE MOLECULE IS CS      
 THE ORDER OF THE PRINCIPAL AXIS IS     0

 ATOM      ATOMIC                      COORDINATES (BOHR)
           CHARGE         X                   Y                   Z
 O           8.0     4.9716092861        0.0350598733        0.0000000000
 O           8.0    -4.9753252034       -0.0240084936        0.0000000000
 C           6.0     2.7191529252        0.0216831831        0.0000000000
 C           6.0    -2.7228715011       -0.0106303115        0.0000000000
 C           6.0     1.2368530897        2.4152217865        0.0000000000
 C           6.0    -1.2690859391        2.4003375444        0.0000000000
 C           6.0     1.2653792136       -2.3892918553        0.0000000000
 C           6.0    -1.2405602706       -2.4041639279        0.0000000000
 H           1.0     2.3807760082       -4.1017362978        0.0000000000
 H           1.0    -2.3355154770       -4.1297499092        0.0000000000
 H           1.0     2.3318465999        4.1407928254        0.0000000000
 H           1.0    -2.3844501428        4.1127988832        0.0000000000

          INTERNUCLEAR DISTANCES (ANGS.)
          ------------------------------

                1 O          2 O          3 C          4 C          5 C     

   1 O       0.0000000    5.2637842    1.1919697 *  4.0718160    2.3435787 *
   2 O       5.2637842    0.0000000    4.0718146    1.1919683 *  3.5316785  
   3 C       1.1919697 *  4.0718146    0.0000000    2.8798463 *  1.4898233 *
   4 C       4.0718160    1.1919683 *  2.8798463 *  0.0000000    2.4573534 *
   5 C       2.3435787 *  3.5316785    1.4898233 *  2.4573534 *  0.0000000  
   6 C       3.5316711    2.3435840 *  2.4573459 *  1.4898251 *  1.3261093 *
   7 C       2.3435816 *  3.5316767    1.4898251 *  2.4573532 *  2.5424841 *
   8 C       3.5316730    2.3435807 *  2.4573468 *  1.4898243 *  2.8675380 *
   9 H       2.5829867 *  4.4507578    2.1893545 *  3.4613356    3.5013505  
  10 H       4.4507460    2.5829980 *  3.4613236    2.1893612 *  3.9457775  
  11 H       2.5829808 *  4.4507654    2.1893535 *  3.4613406    1.0814661 *
  12 H       4.4507414    2.5830035 *  3.4613205    2.1893616 *  2.1164183 *

                6 C          7 C          8 C          9 H         10 H     

   1 O       3.5316711    2.3435816 *  3.5316730    2.5829867 *  4.4507460  
   2 O       2.3435840 *  3.5316767    2.3435807 *  4.4507578    2.5829980 *
   3 C       2.4573459 *  1.4898251 *  2.4573468 *  2.1893545 *  3.4613236  
   4 C       1.4898251 *  2.4573532 *  1.4898243 *  3.4613356    2.1893612 *
   5 C       1.3261093 *  2.5424841 *  2.8675380 *  3.5013505    3.9457775  
   6 C       0.0000000    2.8675384 *  2.5424777 *  3.9457770    3.5013509  
   7 C       2.8675384 *  0.0000000    1.3261095 *  1.0814622 *  2.1164204 *
   8 C       2.5424777 *  1.3261095 *  0.0000000    2.1164330 *  1.0814620 *
   9 H       3.9457770    1.0814622 *  2.1164330 *  0.0000000    2.4957982 *
  10 H       3.5013509    2.1164204 *  1.0814620 *  2.4957982 *  0.0000000  
  11 H       2.1164378 *  3.5013527    3.9457803    4.3618357    5.0254051  
  12 H       1.0814603 *  3.9457763    3.5013499    5.0254002    4.3618462  

               11 H         12 H     

   1 O       2.5829808 *  4.4507414  
   2 O       4.4507654    2.5830035 *
   3 C       2.1893535 *  3.4613205  
   4 C       3.4613406    2.1893616 *
   5 C       1.0814661 *  2.1164183 *
   6 C       2.1164378 *  1.0814603 *
   7 C       3.5013527    3.9457763  
   8 C       3.9457803    3.5013499  
   9 H       4.3618357    5.0254002  
  10 H       5.0254051    4.3618462  
  11 H       0.0000000    2.4958009 *
  12 H       2.4958009 *  0.0000000  

  * ... LESS THAN  3.000


     ATOMIC BASIS SET
     ----------------
 THE CONTRACTED PRIMITIVE FUNCTIONS HAVE BEEN UNNORMALIZED
 THE CONTRACTED BASIS FUNCTIONS ARE NOW NORMALIZED TO UNITY

  SHELL TYPE  PRIMITIVE        EXPONENT          CONTRACTION COEFFICIENT(S)

 O         

      1   S       1         11720.0000000    0.000709645947
      1   S       2          1759.0000000    0.005467272292
      1   S       3           400.8000000    0.027823118610
      1   S       4           113.7000000    0.104747739711
      1   S       5            37.0300000    0.282920846357
      1   S       6            13.2700000    0.448495238698
      1   S       7             5.0250000    0.270816885213
      1   S       8             1.0130000    0.015450291607

      2   S       9         11720.0000000   -0.000314443412
      2   S      10          1759.0000000   -0.002482137681
      2   S      11           400.8000000   -0.012316355382
      2   S      12           113.7000000   -0.050538917344
      2   S      13            37.0300000   -0.139384903316
      2   S      14            13.2700000   -0.325077494818
      2   S      15             5.0250000   -0.229848307588
      2   S      16             1.0130000    1.095379346788

      3   S      17             0.3023000    1.000000000000

      4   P      18            17.7000000    0.062679166282
      4   P      19             3.8540000    0.333536565879
      4   P      20             1.0460000    0.741239641640

      5   P      21             0.2753000    1.000000000000

      6   D      22             1.1850000    1.000000000000

 O         

      7   S      23         11720.0000000    0.000709645947
      7   S      24          1759.0000000    0.005467272292
      7   S      25           400.8000000    0.027823118610
      7   S      26           113.7000000    0.104747739711
      7   S      27            37.0300000    0.282920846357
      7   S      28            13.2700000    0.448495238698
      7   S      29             5.0250000    0.270816885213
      7   S      30             1.0130000    0.015450291607

      8   S      31         11720.0000000   -0.000314443412
      8   S      32          1759.0000000   -0.002482137681
      8   S      33           400.8000000   -0.012316355382
      8   S      34           113.7000000   -0.050538917344
      8   S      35            37.0300000   -0.139384903316
      8   S      36            13.2700000   -0.325077494818
      8   S      37             5.0250000   -0.229848307588
      8   S      38             1.0130000    1.095379346788

      9   S      39             0.3023000    1.000000000000

     10   P      40            17.7000000    0.062679166282
     10   P      41             3.8540000    0.333536565879
     10   P      42             1.0460000    0.741239641640

     11   P      43             0.2753000    1.000000000000

     12   D      44             1.1850000    1.000000000000

 C         

     13   S      45          6665.0000000    0.000691583963
     13   S      46          1000.0000000    0.005325796153
     13   S      47           228.0000000    0.027060721042
     13   S      48            64.7100000    0.101656846141
     13   S      49            21.0600000    0.274574823617
     13   S      50             7.4950000    0.448294318924
     13   S      51             2.7970000    0.284902610715
     13   S      52             0.5215000    0.015194859206

     14   S      53          6665.0000000   -0.000293269653
     14   S      54          1000.0000000   -0.002318035474
     14   S      55           228.0000000   -0.011499786039
     14   S      56            64.7100000   -0.046826727010
     14   S      57            21.0600000   -0.128466168750
     14   S      58             7.4950000   -0.301266272463
     14   S      59             2.7970000   -0.255630702330
     14   S      60             0.5215000    1.093793361012

     15   S      61             0.1596000    1.000000000000

     16   P      62             9.4390000    0.056979251590
     16   P      63             2.0020000    0.313207211501
     16   P      64             0.5456000    0.760376741738

     17   P      65             0.1517000    1.000000000000

     18   D      66             0.5500000    1.000000000000

 C         

     19   S      67          6665.0000000    0.000691583963
     19   S      68          1000.0000000    0.005325796153
     19   S      69           228.0000000    0.027060721042
     19   S      70            64.7100000    0.101656846141
     19   S      71            21.0600000    0.274574823617
     19   S      72             7.4950000    0.448294318924
     19   S      73             2.7970000    0.284902610715
     19   S      74             0.5215000    0.015194859206

     20   S      75          6665.0000000   -0.000293269653
     20   S      76          1000.0000000   -0.002318035474
     20   S      77           228.0000000   -0.011499786039
     20   S      78            64.7100000   -0.046826727010
     20   S      79            21.0600000   -0.128466168750
     20   S      80             7.4950000   -0.301266272463
     20   S      81             2.7970000   -0.255630702330
     20   S      82             0.5215000    1.093793361012

     21   S      83             0.1596000    1.000000000000

     22   P      84             9.4390000    0.056979251590
     22   P      85             2.0020000    0.313207211501
     22   P      86             0.5456000    0.760376741738

     23   P      87             0.1517000    1.000000000000

     24   D      88             0.5500000    1.000000000000

 C         

     25   S      89          6665.0000000    0.000691583963
     25   S      90          1000.0000000    0.005325796153
     25   S      91           228.0000000    0.027060721042
     25   S      92            64.7100000    0.101656846141
     25   S      93            21.0600000    0.274574823617
     25   S      94             7.4950000    0.448294318924
     25   S      95             2.7970000    0.284902610715
     25   S      96             0.5215000    0.015194859206

     26   S      97          6665.0000000   -0.000293269653
     26   S      98          1000.0000000   -0.002318035474
     26   S      99           228.0000000   -0.011499786039
     26   S     100            64.7100000   -0.046826727010
     26   S     101            21.0600000   -0.128466168750
     26   S     102             7.4950000   -0.301266272463
     26   S     103             2.7970000   -0.255630702330
     26   S     104             0.5215000    1.093793361012

     27   S     105             0.1596000    1.000000000000

     28   P     106             9.4390000    0.056979251590
     28   P     107             2.0020000    0.313207211501
     28   P     108             0.5456000    0.760376741738

     29   P     109             0.1517000    1.000000000000

     30   D     110             0.5500000    1.000000000000

 C         

     31   S     111          6665.0000000    0.000691583963
     31   S     112          1000.0000000    0.005325796153
     31   S     113           228.0000000    0.027060721042
     31   S     114            64.7100000    0.101656846141
     31   S     115            21.0600000    0.274574823617
     31   S     116             7.4950000    0.448294318924
     31   S     117             2.7970000    0.284902610715
     31   S     118             0.5215000    0.015194859206

     32   S     119          6665.0000000   -0.000293269653
     32   S     120          1000.0000000   -0.002318035474
     32   S     121           228.0000000   -0.011499786039
     32   S     122            64.7100000   -0.046826727010
     32   S     123            21.0600000   -0.128466168750
     32   S     124             7.4950000   -0.301266272463
     32   S     125             2.7970000   -0.255630702330
     32   S     126             0.5215000    1.093793361012

     33   S     127             0.1596000    1.000000000000

     34   P     128             9.4390000    0.056979251590
     34   P     129             2.0020000    0.313207211501
     34   P     130             0.5456000    0.760376741738

     35   P     131             0.1517000    1.000000000000

     36   D     132             0.5500000    1.000000000000

 C         

     37   S     133          6665.0000000    0.000691583963
     37   S     134          1000.0000000    0.005325796153
     37   S     135           228.0000000    0.027060721042
     37   S     136            64.7100000    0.101656846141
     37   S     137            21.0600000    0.274574823617
     37   S     138             7.4950000    0.448294318924
     37   S     139             2.7970000    0.284902610715
     37   S     140             0.5215000    0.015194859206

     38   S     141          6665.0000000   -0.000293269653
     38   S     142          1000.0000000   -0.002318035474
     38   S     143           228.0000000   -0.011499786039
     38   S     144            64.7100000   -0.046826727010
     38   S     145            21.0600000   -0.128466168750
     38   S     146             7.4950000   -0.301266272463
     38   S     147             2.7970000   -0.255630702330
     38   S     148             0.5215000    1.093793361012

     39   S     149             0.1596000    1.000000000000

     40   P     150             9.4390000    0.056979251590
     40   P     151             2.0020000    0.313207211501
     40   P     152             0.5456000    0.760376741738

     41   P     153             0.1517000    1.000000000000

     42   D     154             0.5500000    1.000000000000

 C         

     43   S     155          6665.0000000    0.000691583963
     43   S     156          1000.0000000    0.005325796153
     43   S     157           228.0000000    0.027060721042
     43   S     158            64.7100000    0.101656846141
     43   S     159            21.0600000    0.274574823617
     43   S     160             7.4950000    0.448294318924
     43   S     161             2.7970000    0.284902610715
     43   S     162             0.5215000    0.015194859206

     44   S     163          6665.0000000   -0.000293269653
     44   S     164          1000.0000000   -0.002318035474
     44   S     165           228.0000000   -0.011499786039
     44   S     166            64.7100000   -0.046826727010
     44   S     167            21.0600000   -0.128466168750
     44   S     168             7.4950000   -0.301266272463
     44   S     169             2.7970000   -0.255630702330
     44   S     170             0.5215000    1.093793361012

     45   S     171             0.1596000    1.000000000000

     46   P     172             9.4390000    0.056979251590
     46   P     173             2.0020000    0.313207211501
     46   P     174             0.5456000    0.760376741738

     47   P     175             0.1517000    1.000000000000

     48   D     176             0.5500000    1.000000000000

 H         

     49   S     177            13.0100000    0.033498726390
     49   S     178             1.9620000    0.234800801174
     49   S     179             0.4446000    0.813682957883

     50   S     180             0.1220000    1.000000000000

     51   P     181             0.7270000    1.000000000000

 H         

     52   S     182            13.0100000    0.033498726390
     52   S     183             1.9620000    0.234800801174
     52   S     184             0.4446000    0.813682957883

     53   S     185             0.1220000    1.000000000000

     54   P     186             0.7270000    1.000000000000

 H         

     55   S     187            13.0100000    0.033498726390
     55   S     188             1.9620000    0.234800801174
     55   S     189             0.4446000    0.813682957883

     56   S     190             0.1220000    1.000000000000

     57   P     191             0.7270000    1.000000000000

 H         

     58   S     192            13.0100000    0.033498726390
     58   S     193             1.9620000    0.234800801174
     58   S     194             0.4446000    0.813682957883

     59   S     195             0.1220000    1.000000000000

     60   P     196             0.7270000    1.000000000000

 TOTAL NUMBER OF BASIS SET SHELLS             =   60
 NUMBER OF CARTESIAN GAUSSIAN BASIS FUNCTIONS =  140
 NOTE: THIS RUN WILL RESTRICT THE MO VARIATION SPACE TO SPHERICAL HARMONICS.
 THE NUMBER OF ORBITALS KEPT IN THE VARIATIONAL SPACE WILL BE PRINTED LATER.
 NUMBER OF ELECTRONS                          =   56
 CHARGE OF MOLECULE                           =    0
 SPIN MULTIPLICITY                            =    1
 NUMBER OF OCCUPIED ORBITALS (ALPHA)          =   28
 NUMBER OF OCCUPIED ORBITALS (BETA )          =   28
 TOTAL NUMBER OF ATOMS                        =   12
 THE NUCLEAR REPULSION ENERGY IS      324.7265526569

     $CONTRL OPTIONS
     ---------------
 SCFTYP=RHF          RUNTYP=ENERGY       EXETYP=RUN     
 MPLEVL=       0     CITYP =NONE         CCTYP =NONE         VBTYP =NONE    
 DFTTYP=NONE         TDDFT =NONE    
 MULT  =       1     ICHARG=       0     NZVAR =       0     COORD =UNIQUE  
 PP    =NONE         RELWFN=NONE         LOCAL =SVD          NUMGRD=       F
 ISPHER=       1     NOSYM =       0     MAXIT =     200     UNITS =ANGS    
 PLTORB=       F     MOLPLT=       F     AIMPAC=       F     FRIEND=        
 NPRINT=       7     IREST =       0     GEOM  =INPUT   
 NORMF =       0     NORMP =       0     ITOL  =      20     ICUT  =       9
 INTTYP=BEST         GRDTYP=BEST         QMTTOL= 1.0E-06

     $SYSTEM OPTIONS
     ---------------
  REPLICATED MEMORY=   100000000 WORDS (ON EVERY NODE).
 DISTRIBUTED MEMDDI=          20 MILLION WORDS IN AGGREGATE,
 MEMDDI DISTRIBUTED OVER   1 PROCESSORS IS    20000000 WORDS/PROCESSOR.
 TOTAL MEMORY REQUESTED ON EACH PROCESSOR=   120000000 WORDS.
 TIMLIM=*************** MINUTES, OR ********* DAYS.
 PARALL= F  BALTYP=  DLB     KDIAG=    0  COREFL= F
 MXSEQ2=     300 MXSEQ3=     150  mem10=         0

          ----------------
          PROPERTIES INPUT
          ----------------

     MOMENTS            FIELD           POTENTIAL          DENSITY
 IEMOM =       1   IEFLD =       0   IEPOT =       0   IEDEN =       0
 WHERE =COMASS     WHERE =NUCLEI     WHERE =NUCLEI     WHERE =NUCLEI  
 OUTPUT=BOTH       OUTPUT=BOTH       OUTPUT=BOTH       OUTPUT=BOTH    
 IEMINT=       0   IEFINT=       0                     IEDINT=       0
                                                       MORB  =       0
          EXTRAPOLATION IN EFFECT
          DIIS IN EFFECT
 ORBITAL PRINTING OPTION: NPREO=     1   140     2     1

     -------------------------------
     INTEGRAL TRANSFORMATION OPTIONS
     -------------------------------
     NWORD  =            0
     CUTOFF = 1.0E-09     MPTRAN =       0
     DIRTRF =       F     AOINTS =DUP     

 EXTLOC=SPLITQA RESETS ILOCAL TO 0 ALWAYS.

          -----------------------------
          LOCALIZATION INPUT PARAMETERS
          -----------------------------
           LOCAL=              NOUTA=       8
          PRTLOC=       F      NOUTB=       0
          MAXLOC=     250     CVGLOC=1.00E-06
           FCORE=       T     SYMLOC=       F
          MOIDON=       F     EDCOMP=       F
          DIPDCM=       F      NPROT=       0
          QADDCM=       F     DEPRNT=       F
          POLNUM=       F     ORIENT=       T
          POLDYN=       F      VMTOL=1.50E-01
          NPRDTL=       2
          MOOUTA =      1    2    3    4    5    6    7    8

          ----------------------
          INTEGRAL INPUT OPTIONS
          ----------------------
 NOPK  =       1 NORDER=       0 SCHWRZ=       T

     ------------------------------------------
     THE POINT GROUP IS CS , NAXIS= 0, ORDER= 2
     ------------------------------------------

 -- VARIATIONAL SPACE WILL BE RESTRICTED TO PURE SPHERICAL HARMONICS ONLY --
 AFTER EXCLUDING CONTAMINANT COMBINATIONS FROM THE CARTESIAN GAUSSIAN BASIS
 SET, THE NUMBER OF SPHERICAL HARMONICS KEPT IN THE VARIATION SPACE IS  132

     DIMENSIONS OF THE SYMMETRY SUBSPACES ARE
 A'  =   96     A'' =   36

 ..... DONE SETTING UP THE RUN .....
 STEP CPU TIME =     0.03 TOTAL CPU TIME =        0.0 (    0.0 MIN)
 TOTAL WALL CLOCK TIME=        0.0 SECONDS, CPU UTILIZATION IS  75.00%

          ********************
          1 ELECTRON INTEGRALS
          ********************
 ...... END OF ONE-ELECTRON INTEGRALS ......
 STEP CPU TIME =     0.02 TOTAL CPU TIME =        0.0 (    0.0 MIN)
 TOTAL WALL CLOCK TIME=        0.1 SECONDS, CPU UTILIZATION IS  83.33%

          -------------
          GUESS OPTIONS
          -------------
          GUESS =HUCKEL            NORB  =       0          NORDER=       0
          MIX   =       F          PRTMO =       F          PUNMO =       F
          TOLZ  = 1.0E-08          TOLE  = 1.0E-05
          SYMDEN=       F          PURIFY=       F

 INITIAL GUESS ORBITALS GENERATED BY HUCKEL   ROUTINE.
 HUCKEL GUESS REQUIRES    159252 WORDS.

 STATISTICS FOR GENERATION OF SYMMETRY ORBITAL -Q- MATRIX
 NUMBER OF CARTESIAN ATOMIC ORBITALS=        140
 NUMBER OF SPHERICAL CONTAMINANTS DROPPED=     8
 NUMBER OF LINEARLY DEPENDENT MOS DROPPED=     0
 TOTAL NUMBER OF MOS IN VARIATION SPACE=     132

 SYMMETRIES FOR INITIAL GUESS ORBITALS FOLLOW.   BOTH SET(S).
    28 ORBITALS ARE OCCUPIED (    8 CORE ORBITALS).
     9=A'      10=A'      11=A'      12=A'      13=A'      14=A'      15=A'  
    16=A''     17=A'      18=A'      19=A''     20=A'      21=A'      22=A'  
    23=A'      24=A''     25=A''     26=A'      27=A'      28=A'      29=A'' 
    30=A''     31=A''     32=A''     33=A'      34=A'      35=A'      36=A'  
    37=A'      38=A'  
 ...... END OF INITIAL ORBITAL SELECTION ......
 STEP CPU TIME =     0.05 TOTAL CPU TIME =        0.1 (    0.0 MIN)
 TOTAL WALL CLOCK TIME=        0.1 SECONDS, CPU UTILIZATION IS  90.91%

                    ----------------------
                    AO INTEGRAL TECHNOLOGY
                    ----------------------
     S,P,L SHELL ROTATED AXIS INTEGRALS, REPROGRAMMED BY
        KAZUYA ISHIMURA (IMS) AND JOSE SIERRA (SYNSTAR).
     S,P,D,L SHELL ROTATED AXIS INTEGRALS PROGRAMMED BY
        KAZUYA ISHIMURA (INSTITUTE FOR MOLECULAR SCIENCE).
     S,P,D,F,G SHELL TO TOTAL QUARTET ANGULAR MOMENTUM SUM 5,
        ERIC PROGRAM BY GRAHAM FLETCHER (ELORET AND NASA ADVANCED
        SUPERCOMPUTING DIVISION, AMES RESEARCH CENTER).
     S,P,D,F,G,L SHELL GENERAL RYS QUADRATURE PROGRAMMED BY
        MICHEL DUPUIS (PACIFIC NORTHWEST NATIONAL LABORATORY).

          --------------------
          2 ELECTRON INTEGRALS
          --------------------

 THE -PK- OPTION IS OFF, THE INTEGRALS ARE NOT IN SUPERMATRIX FORM.
 STORING   15000 INTEGRALS/RECORD ON DISK, USING 12 BYTES/INTEGRAL.
 TWO ELECTRON INTEGRAL EVALUATION REQUIRES   92226 WORDS OF MEMORY.
 SCHWARZ INEQUALITY OVERHEAD:      9749 INTEGRALS, T=        0.01
 II,JST,KST,LST =  1  1  1  1 NREC =         1 INTLOC =    1
 II,JST,KST,LST =  2  1  1  1 NREC =         1 INTLOC =    2
 II,JST,KST,LST =  3  1  1  1 NREC =         1 INTLOC =    7
 II,JST,KST,LST =  4  1  1  1 NREC =         1 INTLOC =   22
 II,JST,KST,LST =  5  1  1  1 NREC =         1 INTLOC =   67
 II,JST,KST,LST =  6  1  1  1 NREC =         1 INTLOC =  214
 II,JST,KST,LST =  7  1  1  1 NREC =         1 INTLOC = 1189
 II,JST,KST,LST =  8  1  1  1 NREC =         1 INTLOC = 1266
 II,JST,KST,LST =  9  1  1  1 NREC =         1 INTLOC = 1425
 II,JST,KST,LST = 10  1  1  1 NREC =         1 INTLOC = 1837
 II,JST,KST,LST = 11  1  1  1 NREC =         1 INTLOC = 2906
 II,JST,KST,LST = 12  1  1  1 NREC =         1 INTLOC = 5387
 II,JST,KST,LST = 13  1  1  1 NREC =         1 INTLOC =11563
 II,JST,KST,LST = 14  1  1  1 NREC =         1 INTLOC =14171
 II,JST,KST,LST = 15  1  1  1 NREC =         2 INTLOC = 2548
 II,JST,KST,LST = 16  1  1  1 NREC =         2 INTLOC = 8185
 II,JST,KST,LST = 17  1  1  1 NREC =         3 INTLOC = 6356
 II,JST,KST,LST = 18  1  1  1 NREC =         5 INTLOC = 1565
 II,JST,KST,LST = 19  1  1  1 NREC =         8 INTLOC =12343
 II,JST,KST,LST = 20  1  1  1 NREC =         9 INTLOC = 8813
 II,JST,KST,LST = 21  1  1  1 NREC =        10 INTLOC = 8476
 II,JST,KST,LST = 22  1  1  1 NREC =        11 INTLOC =14254
 II,JST,KST,LST = 23  1  1  1 NREC =        15 INTLOC = 4631
 II,JST,KST,LST = 24  1  1  1 NREC =        20 INTLOC = 9210
 II,JST,KST,LST = 25  1  1  1 NREC =        31 INTLOC =12813
 II,JST,KST,LST = 26  1  1  1 NREC =        34 INTLOC = 3640
 II,JST,KST,LST = 27  1  1  1 NREC =        37 INTLOC = 3520
 II,JST,KST,LST = 28  1  1  1 NREC =        40 INTLOC =11713
 II,JST,KST,LST = 29  1  1  1 NREC =        50 INTLOC = 8470
 II,JST,KST,LST = 30  1  1  1 NREC =        63 INTLOC = 4913
 II,JST,KST,LST = 31  1  1  1 NREC =        92 INTLOC = 5891
 II,JST,KST,LST = 32  1  1  1 NREC =        97 INTLOC =11214
 II,JST,KST,LST = 33  1  1  1 NREC =       104 INTLOC = 2695
 II,JST,KST,LST = 34  1  1  1 NREC =       111 INTLOC = 7699
 II,JST,KST,LST = 35  1  1  1 NREC =       131 INTLOC =11808
 II,JST,KST,LST = 36  1  1  1 NREC =       156 INTLOC =10936
 II,JST,KST,LST = 37  1  1  1 NREC =       212 INTLOC = 1865
 II,JST,KST,LST = 38  1  1  1 NREC =       221 INTLOC = 7555
 II,JST,KST,LST = 39  1  1  1 NREC =       232 INTLOC =12656
 II,JST,KST,LST = 40  1  1  1 NREC =       245 INTLOC =11595
 II,JST,KST,LST = 41  1  1  1 NREC =       280 INTLOC = 9871
 II,JST,KST,LST = 42  1  1  1 NREC =       323 INTLOC = 2206
 II,JST,KST,LST = 43  1  1  1 NREC =       414 INTLOC = 1710
 II,JST,KST,LST = 44  1  1  1 NREC =       429 INTLOC =14931
 II,JST,KST,LST = 45  1  1  1 NREC =       448 INTLOC =10320
 II,JST,KST,LST = 46  1  1  1 NREC =       469 INTLOC = 8347
 II,JST,KST,LST = 47  1  1  1 NREC =       526 INTLOC = 3754
 II,JST,KST,LST = 48  1  1  1 NREC =       593 INTLOC = 3058
 II,JST,KST,LST = 49  1  1  1 NREC =       735 INTLOC = 7031
 II,JST,KST,LST = 50  1  1  1 NREC =       760 INTLOC = 3493
 II,JST,KST,LST = 51  1  1  1 NREC =       790 INTLOC = 5400
 II,JST,KST,LST = 52  1  1  1 NREC =       859 INTLOC =  502
 II,JST,KST,LST = 53  1  1  1 NREC =       887 INTLOC = 1009
 II,JST,KST,LST = 54  1  1  1 NREC =       921 INTLOC = 1239
 II,JST,KST,LST = 55  1  1  1 NREC =       998 INTLOC = 8455
 II,JST,KST,LST = 56  1  1  1 NREC =      1028 INTLOC = 1219
 II,JST,KST,LST = 57  1  1  1 NREC =      1066 INTLOC =  139
 II,JST,KST,LST = 58  1  1  1 NREC =      1146 INTLOC = 3751
 II,JST,KST,LST = 59  1  1  1 NREC =      1179 INTLOC = 5517
 II,JST,KST,LST = 60  1  1  1 NREC =      1221 INTLOC =10440
 SCHWARZ INEQUALITY TEST SKIPPED      264840 INTEGRAL BLOCKS.
 TOTAL NUMBER OF NONZERO TWO-ELECTRON INTEGRALS =            19656761
       1311 INTEGRAL RECORDS WERE STORED ON DISK FILE  8.
  ...... END OF TWO-ELECTRON INTEGRALS .....
 STEP CPU TIME =     4.09 TOTAL CPU TIME =        4.2 (    0.1 MIN)
 TOTAL WALL CLOCK TIME=        4.2 SECONDS, CPU UTILIZATION IS  98.82%

          --------------------------
                 RHF SCF CALCULATION
          --------------------------

     NUCLEAR ENERGY =       324.7265526569
     MAXIT =  200     NPUNCH=    2
     EXTRAP=T  DAMP=F  SHIFT=F  RSTRCT=F  DIIS=T  DEM=F  SOSCF=T
     DENSITY MATRIX CONV=  1.00E-05
     SOSCF WILL OPTIMIZE    2912 ORBITAL ROTATIONS, SOGTOL=   0.001
     MEMORY REQUIRED FOR RHF ITERS=    201448 WORDS.

 ITER EX DEM     TOTAL ENERGY        E CHANGE  DENSITY CHANGE     ORB. GRAD
          * * *   INITIATING DIIS PROCEDURE   * * *
   1  0  0     -378.1724532563  -378.1724532563   0.340072590   0.665494905
   2  1  0     -379.1215174769    -0.9490642206   0.157305430   0.168806253
   3  2  0     -379.2083585572    -0.0868410803   0.069986768   0.112706259
   4  3  0     -379.2650360359    -0.0566774787   0.015135419   0.016050697
   5  4  0     -379.2663801826    -0.0013441467   0.009145985   0.004512366
   6  5  0     -379.2665947192    -0.0002145366   0.003589202   0.001544622
   7  6  0     -379.2666369600    -0.0000422408   0.001296773   0.000575417
   8  7  0     -379.2666420586    -0.0000050986   0.000220408   0.000122421
         SWDIIS THRESHOLD HAS BEEN REACHED: SWITCHING DIIS OFF.
          ---------------START SECOND ORDER SCF---------------
   9  8  0     -379.2666422757    -0.0000002171   0.000025474   0.000022030
  10  9  0     -379.2666422875    -0.0000000118   0.000023802   0.000014570
  11 10  0     -379.2666422904    -0.0000000029   0.000006353   0.000002827
  12 11  0     -379.2666422905    -0.0000000001   0.000002880   0.000002333

          -----------------
          DENSITY CONVERGED
          -----------------
     TIME TO FORM FOCK OPERATORS=       2.5 SECONDS (       0.2 SEC/ITER)
     TIME TO SOLVE SCF EQUATIONS=       0.1 SECONDS (       0.0 SEC/ITER)

 FINAL RHF ENERGY IS     -379.2666422905 AFTER  12 ITERATIONS

 FORMING VIRTUAL VALENCE ORBITALS FOR RHF...
 THE ATOMS POSSESS    8 CHEMICAL CORES, AND   36 VALENCE ORBITALS.
 THIS MOLECULE HAS   20 OCCUPIED VALENCE ORBITALS,
 SO WE ARE SEEKING   16  VIRTUAL VALENCE ORBITALS FROM
 WITHIN THE MOLECULE'S VIRTUAL SPACE OF DIMENSION  104

 THERE SHOULD BE A CLEAR DROPOFF IN THE EIGENVALUES OF -B- BETWEEN THE
 VALENCE VIRTUAL AND EXTERNAL VIRTUAL ORBITALS, PLEASE CHECK THIS.
 LAST FEW SVD EIGENVALUES KEPT AS VALENCE:
    0.9995129608   0.9994872256   0.9994641648   0.9989662507   0.9989026863
 FIRST FEW SVD EIGENVALUES REJECTED AS EXTERNAL:
    0.1810233074   0.1769473741   0.1630046042   0.1604592006   0.1523866154

 THE QUASIATOMIC MINIMAL-BASIS-SET ORBITALS (QUAMBO'S) HAVE BEEN PUNCHED.
 THE   44 QUAMBO'S ARE MOLECULAR ORBITALS WHICH
    A) ARE MUTUALLY ORTHONORMAL,
    B) SPAN THE   28 DIMENSIONAL OCCUPIED ORBITAL SPACE OF THIS MOLECULE
       EXACTLY, AND   16 ADDITIONAL VALENCE VIRTUAL ORBITALS,
    C) ARE AS CLOSE AS POSSIBLE TO THE FREE ATOM AO'S (IN THE SENSE OF 
       MAXIMUM OVERLAP), WHILE SATISFYING "A" AND "B".

 USING THE RHF FOCK MATRIX TO CANONICALIZE THE VVOS.

 VIRTUAL VALENCE ORBITAL GENERATION IS FINISHED.
 THE VIRTUAL VALENCE ORBITALS ARE A QUANTIFICATION OF THE FRONTIER ORBITAL
 SPACE (I.E. LUMO, LUMO+1, ...) WITHIN THE HARTREE-FOCK APPROXIMATION.
 THE   28 OCCUPIED AND  104 VIRTUAL ORBITALS PRINTED BELOW ARE
      FIRST, THE OCCUPIED CANONICAL ORBITALS (    1-   28)
     SECOND, THE VIRTUAL VALENCE ORBITALS    (   29-   44)
      THIRD, THE EXTERNAL VIRTUAL ORBITALS   (   45-  132)
 NOTE THAT THE VIRTUAL SPACE IS ONLY SEMI-CANONICALIZED, MEANING THAT
 THE FOCK OPERATOR IS DIAGONAL ONLY WITHIN ITS VALENCE AND EXTERNAL
 VIRTUAL SUBBLOCKS.  THE VIRTUAL "EIGENVALUES" BELOW ARE THESE DIAGONALS,
 WHICH ARE EXPECTATION VALUES OF THE FOCK OPERATOR, NOT ITS EIGENVALUES.

          ------------
          EIGENVECTORS
          ------------

                      1          2          3          4          5
                  -20.5785   -20.5785   -11.3590   -11.3590   -11.2799
                     A'         A'         A'         A'         A'  
    1  O  1  S   -0.432508   0.903214   0.000020  -0.000057  -0.000000
    2  O  1  S   -0.000967   0.001886  -0.000525   0.000563  -0.000000
    3  O  1  S    0.003124  -0.006132   0.001883  -0.002020   0.000000
    4  O  1  X    0.000788  -0.001617   0.000256  -0.000309   0.000000
    5  O  1  Y    0.000005  -0.000010   0.000002  -0.000002   0.000004
    6  O  1  Z   -0.000000   0.000000   0.000000   0.000000  -0.000000
    7  O  1  X   -0.000728   0.001490  -0.000657   0.000830   0.000001
    8  O  1  Y   -0.000004   0.000009  -0.000004   0.000005  -0.000226
    9  O  1  Z   -0.000000   0.000000   0.000000   0.000000  -0.000000
   10  O  1 XX   -0.000105   0.000205  -0.000147   0.000169   0.000000
   11  O  1 YY   -0.000025   0.000059   0.000125  -0.000148   0.000000
   12  O  1 ZZ    0.000130  -0.000264   0.000022  -0.000021  -0.000000
   13  O  1 XY   -0.000001   0.000001  -0.000002   0.000002  -0.000005
   14  O  1 XZ   -0.000000   0.000000   0.000000   0.000000  -0.000000
   15  O  1 YZ   -0.000000   0.000000   0.000000   0.000000  -0.000000
   16  O  2  S    0.903241   0.432453  -0.000029  -0.000053  -0.000000
   17  O  2  S    0.001936   0.000863   0.000615   0.000463  -0.000000
   18  O  2  S   -0.006278  -0.002818  -0.002206  -0.001661   0.000000
   19  O  2  X    0.001628   0.000765   0.000305   0.000259  -0.000000
   20  O  2  Y    0.000010   0.000005   0.000002   0.000002   0.000004
   21  O  2  Z   -0.000000   0.000000   0.000000   0.000000  -0.000000
   22  O  2  X   -0.001502  -0.000705  -0.000792  -0.000703   0.000001
   23  O  2  Y   -0.000009  -0.000004  -0.000005  -0.000004  -0.000226
   24  O  2  Z   -0.000000   0.000000   0.000000   0.000000  -0.000000
   25  O  2 XX    0.000210   0.000094   0.000174   0.000141  -0.000000
   26  O  2 YY    0.000056   0.000031  -0.000149  -0.000124   0.000000
   27  O  2 ZZ   -0.000267  -0.000125  -0.000025  -0.000017  -0.000000
   28  O  2 XY    0.000001   0.000000   0.000002   0.000002   0.000005
   29  O  2 XZ   -0.000000   0.000000   0.000000   0.000000  -0.000000
   30  O  2 YZ   -0.000000   0.000000   0.000000   0.000000  -0.000000
   31  C  3  S   -0.000178   0.000279  -0.643961   0.767720  -0.000014
   32  C  3  S   -0.000267   0.000374  -0.002799   0.003024  -0.000001
   33  C  3  S   -0.000372   0.001051   0.006061  -0.005529   0.000006
   34  C  3  X    0.000110  -0.000160  -0.000247   0.000381   0.000000
   35  C  3  Y    0.000001  -0.000001  -0.000001   0.000002  -0.000029
   36  C  3  Z   -0.000000   0.000000   0.000000   0.000000  -0.000000
   37  C  3  X   -0.002032   0.003468  -0.003422   0.003118  -0.000013
   38  C  3  Y   -0.000012   0.000021  -0.000020   0.000019   0.001810
   39  C  3  Z   -0.000000   0.000000   0.000000   0.000000  -0.000000
   40  C  3 XX    0.000390  -0.000669  -0.000508   0.000621  -0.000000
   41  C  3 YY   -0.000293   0.000463   0.000132  -0.000100  -0.000000
   42  C  3 ZZ   -0.000098   0.000206   0.000376  -0.000521   0.000001
   43  C  3 XY    0.000005  -0.000008  -0.000004   0.000005   0.000068
   44  C  3 XZ   -0.000000   0.000000   0.000000   0.000000  -0.000000
   45  C  3 YZ   -0.000000   0.000000   0.000000   0.000000  -0.000000
   46  C  4  S    0.000314   0.000106   0.767858   0.643797  -0.000014
   47  C  4  S    0.000442   0.000124   0.003283   0.002490  -0.000001
   48  C  4  S    0.000949   0.000585  -0.006932  -0.004389   0.000006
   49  C  4  X    0.000186   0.000056  -0.000310  -0.000332   0.000000
   50  C  4  Y    0.000001   0.000000  -0.000002  -0.000002  -0.000029
   51  C  4  Z   -0.000000   0.000000   0.000000   0.000000  -0.000000
   52  C  4  X   -0.003758  -0.001428  -0.003913  -0.002474  -0.000009
   53  C  4  Y   -0.000022  -0.000008  -0.000023  -0.000015   0.001810
   54  C  4  Z   -0.000000   0.000000   0.000000   0.000000  -0.000000
   55  C  4 XX   -0.000724  -0.000277   0.000608   0.000523   0.000001
   56  C  4 YY    0.000518   0.000177  -0.000147  -0.000075  -0.000002
   57  C  4 ZZ    0.000205   0.000100  -0.000461  -0.000447   0.000001
   58  C  4 XY   -0.000009  -0.000003   0.000005   0.000004  -0.000068
   59  C  4 XZ   -0.000000   0.000000   0.000000   0.000000  -0.000000
   60  C  4 YZ   -0.000000   0.000000   0.000000   0.000000  -0.000000
   61  C  5  S    0.000041  -0.000100  -0.002724   0.003170   0.502501
   62  C  5  S    0.000069  -0.000186   0.000087  -0.000270   0.002140
   63  C  5  S   -0.002280   0.001194  -0.003659   0.001836  -0.004146
   64  C  5  X    0.000004   0.000006   0.000016   0.000097   0.000024
   65  C  5  Y   -0.000004   0.000103   0.000043   0.000025  -0.000066
   66  C  5  Z   -0.000000   0.000000   0.000000   0.000000  -0.000000
   67  C  5  X    0.001070  -0.001026   0.000802  -0.000439  -0.000701
   68  C  5  Y    0.000411  -0.000816   0.001770  -0.001346   0.000670
   69  C  5  Z   -0.000000   0.000000   0.000000   0.000000  -0.000000
   70  C  5 XX    0.000114  -0.000101   0.000033   0.000029   0.000141
   71  C  5 YY   -0.000161   0.000220   0.000183  -0.000135  -0.000070
   72  C  5 ZZ    0.000047  -0.000120  -0.000217   0.000107  -0.000071
   73  C  5 XY   -0.000301   0.000243  -0.000063   0.000128   0.000091
   74  C  5 XZ   -0.000000   0.000000   0.000000   0.000000  -0.000000
   75  C  5 YZ   -0.000000   0.000000   0.000000   0.000000  -0.000000
   76  C  6  S   -0.000095  -0.000052   0.003235   0.002646   0.502372
   77  C  6  S   -0.000170  -0.000102  -0.000133  -0.000251   0.002140
   78  C  6  S    0.002524  -0.000499   0.003923   0.001171  -0.004144
   79  C  6  X   -0.000001  -0.000008  -0.000001  -0.000099  -0.000023
   80  C  6  Y    0.000068   0.000078  -0.000038   0.000031  -0.000066
   81  C  6  Z   -0.000000   0.000000   0.000000   0.000000  -0.000000
   82  C  6  X    0.001487   0.000132   0.000890   0.000305   0.000694
   83  C  6  Y   -0.000815  -0.000377  -0.001967  -0.001014   0.000678
   84  C  6  Z   -0.000000   0.000000   0.000000   0.000000  -0.000000
   85  C  6 XX   -0.000144  -0.000007  -0.000026   0.000036   0.000142
   86  C  6 YY    0.000256   0.000071  -0.000206  -0.000104  -0.000072
   87  C  6 ZZ   -0.000112  -0.000064   0.000232   0.000067  -0.000071
   88  C  6 XY   -0.000392  -0.000002  -0.000082  -0.000113  -0.000088
   89  C  6 XZ   -0.000000   0.000000   0.000000   0.000000  -0.000000
   90  C  6 YZ   -0.000000   0.000000   0.000000   0.000000  -0.000000
   91  C  7  S    0.000041  -0.000100  -0.002724   0.003170  -0.499396
   92  C  7  S    0.000069  -0.000186   0.000087  -0.000270  -0.002129
   93  C  7  S   -0.002280   0.001194  -0.003659   0.001836   0.004126
   94  C  7  X    0.000004   0.000007   0.000017   0.000097  -0.000023
   95  C  7  Y    0.000004  -0.000103  -0.000043  -0.000024  -0.000066
   96  C  7  Z   -0.000000   0.000000   0.000000   0.000000  -0.000000
   97  C  7  X    0.001075  -0.001035   0.000823  -0.000455   0.000692
   98  C  7  Y   -0.000399   0.000804  -0.001760   0.001341   0.000677
   99  C  7  Z   -0.000000   0.000000   0.000000   0.000000  -0.000000
  100  C  7 XX    0.000108  -0.000096   0.000032   0.000031  -0.000141
  101  C  7 YY   -0.000155   0.000215   0.000185  -0.000138   0.000072
  102  C  7 ZZ    0.000047  -0.000120  -0.000217   0.000107   0.000070
  103  C  7 XY    0.000304  -0.000247   0.000061  -0.000126   0.000088
  104  C  7 XZ   -0.000000   0.000000   0.000000   0.000000  -0.000000
  105  C  7 YZ   -0.000000   0.000000   0.000000   0.000000  -0.000000
  106  C  8  S   -0.000095  -0.000052   0.003235   0.002646  -0.499326
  107  C  8  S   -0.000170  -0.000102  -0.000133  -0.000251  -0.002128
  108  C  8  S    0.002524  -0.000499   0.003923   0.001171   0.004125
  109  C  8  X   -0.000001  -0.000008  -0.000001  -0.000098   0.000024
  110  C  8  Y   -0.000068  -0.000078   0.000038  -0.000032  -0.000066
  111  C  8  Z   -0.000000   0.000000   0.000000   0.000000  -0.000000
  112  C  8  X    0.001477   0.000128   0.000867   0.000293  -0.000700
  113  C  8  Y    0.000832   0.000378   0.001977   0.001017   0.000669
  114  C  8  Z   -0.000000   0.000000   0.000000   0.000000  -0.000000
  115  C  8 XX   -0.000152  -0.000007  -0.000028   0.000034  -0.000139
  116  C  8 YY    0.000264   0.000071  -0.000204  -0.000101   0.000070
  117  C  8 ZZ   -0.000112  -0.000064   0.000232   0.000067   0.000070
  118  C  8 XY    0.000386   0.000000   0.000084   0.000115  -0.000090
  119  C  8 XZ   -0.000000   0.000000   0.000000   0.000000  -0.000000
  120  C  8 YZ   -0.000000   0.000000   0.000000   0.000000  -0.000000
  121  H  9  S    0.000185  -0.000076  -0.000109   0.000089   0.000068
  122  H  9  S   -0.000112   0.000322  -0.000435   0.000509  -0.000581
  123  H  9  X   -0.000082   0.000085   0.000033  -0.000043  -0.000063
  124  H  9  Y    0.000110  -0.000107  -0.000015   0.000016   0.000158
  125  H  9  Z   -0.000000   0.000000   0.000000   0.000000  -0.000000
  126  H 10  S   -0.000191   0.000057   0.000123   0.000069   0.000068
  127  H 10  S    0.000289   0.000180   0.000517   0.000426  -0.000581
  128  H 10  X   -0.000116  -0.000015   0.000040   0.000036   0.000061
  129  H 10  Y   -0.000154  -0.000015   0.000018   0.000013   0.000159
  130  H 10  Z   -0.000000   0.000000   0.000000   0.000000  -0.000000
  131  H 11  S    0.000185  -0.000076  -0.000109   0.000089  -0.000069
  132  H 11  S   -0.000112   0.000322  -0.000435   0.000509   0.000586
  133  H 11  X   -0.000081   0.000084   0.000033  -0.000042   0.000062
  134  H 11  Y   -0.000111   0.000108   0.000015  -0.000016   0.000160
  135  H 11  Z   -0.000000   0.000000   0.000000   0.000000  -0.000000
  136  H 12  S   -0.000191   0.000057   0.000123   0.000069  -0.000069
  137  H 12  S    0.000289   0.000180   0.000517   0.000426   0.000586
  138  H 12  X   -0.000118  -0.000015   0.000040   0.000036  -0.000063
  139  H 12  Y    0.000153   0.000014  -0.000018  -0.000013   0.000159
  140  H 12  Z   -0.000000   0.000000   0.000000   0.000000  -0.000000

                      6          7          8          9         10
                  -11.2799   -11.2782   -11.2781    -1.4312    -1.4293
                     A'         A'         A'         A'         A'  
    1  O  1  S   -0.000044  -0.000000  -0.000005  -0.008275  -0.009002
    2  O  1  S   -0.000094   0.000000   0.000004   0.279168   0.281624
    3  O  1  S    0.000028  -0.000000  -0.000048   0.262044   0.269172
    4  O  1  X    0.000035   0.000000   0.000016  -0.099015  -0.099496
    5  O  1  Y    0.000000   0.000007   0.000000  -0.000588  -0.000591
    6  O  1  Z    0.000000  -0.000000  -0.000000  -0.000000  -0.000000
    7  O  1  X    0.000036  -0.000003  -0.000120  -0.023427  -0.025457
    8  O  1  Y    0.000001   0.000347  -0.000003  -0.000139  -0.000151
    9  O  1  Z    0.000000  -0.000000  -0.000000  -0.000000  -0.000000
   10  O  1 XX   -0.000009   0.000000  -0.000005   0.011947   0.012047
   11  O  1 YY    0.000045  -0.000001  -0.000029  -0.005884  -0.005848
   12  O  1 ZZ   -0.000035   0.000000   0.000034  -0.006063  -0.006199
   13  O  1 XY   -0.000000  -0.000046   0.000000   0.000122   0.000123
   14  O  1 XZ    0.000000  -0.000000  -0.000000  -0.000000  -0.000000
   15  O  1 YZ    0.000000  -0.000000  -0.000000  -0.000000  -0.000000
   16  O  2  S   -0.000044   0.000000   0.000005  -0.008282   0.008995
   17  O  2  S   -0.000094  -0.000000  -0.000004   0.279393  -0.281401
   18  O  2  S    0.000028   0.000000   0.000048   0.262259  -0.268962
   19  O  2  X   -0.000035   0.000000   0.000016   0.099095  -0.099417
   20  O  2  Y   -0.000000  -0.000007   0.000000   0.000589  -0.000590
   21  O  2  Z    0.000000  -0.000000  -0.000000  -0.000000  -0.000000
   22  O  2  X   -0.000035   0.000001  -0.000120   0.023447  -0.025438
   23  O  2  Y    0.000000  -0.000347   0.000001   0.000139  -0.000151
   24  O  2  Z    0.000000  -0.000000  -0.000000  -0.000000  -0.000000
   25  O  2 XX   -0.000009   0.000000   0.000005   0.011957  -0.012038
   26  O  2 YY    0.000045  -0.000000   0.000029  -0.005889   0.005843
   27  O  2 ZZ   -0.000035  -0.000000  -0.000034  -0.006068   0.006195
   28  O  2 XY   -0.000000  -0.000046   0.000000   0.000122  -0.000123
   29  O  2 XZ    0.000000  -0.000000  -0.000000  -0.000000  -0.000000
   30  O  2 YZ    0.000000  -0.000000  -0.000000  -0.000000  -0.000000
   31  C  3  S   -0.004597   0.000026   0.004504  -0.010985  -0.011300
   32  C  3  S   -0.000224   0.000001   0.000095   0.162998   0.158119
   33  C  3  S    0.001922  -0.000018  -0.003204   0.076382   0.053196
   34  C  3  X    0.000026   0.000000   0.000003   0.124229   0.131094
   35  C  3  Y    0.000000  -0.000001   0.000000   0.000738   0.000779
   36  C  3  Z    0.000000  -0.000000  -0.000000  -0.000000  -0.000000
   37  C  3  X   -0.000563   0.000019   0.001354  -0.007057  -0.002427
   38  C  3  Y   -0.000009  -0.001830   0.000019  -0.000042  -0.000014
   39  C  3  Z    0.000000  -0.000000  -0.000000  -0.000000  -0.000000
   40  C  3 XX    0.000134   0.000003   0.000084   0.028035   0.029357
   41  C  3 YY   -0.000355  -0.000001   0.000279  -0.014483  -0.017280
   42  C  3 ZZ    0.000221  -0.000002  -0.000363  -0.013553  -0.012077
   43  C  3 XY    0.000003  -0.000252   0.000000   0.000292   0.000320
   44  C  3 XZ    0.000000  -0.000000  -0.000000  -0.000000  -0.000000
   45  C  3 YZ    0.000000  -0.000000  -0.000000  -0.000000  -0.000000
   46  C  4  S   -0.004596  -0.000026  -0.004505  -0.010994   0.011291
   47  C  4  S   -0.000224  -0.000001  -0.000095   0.163124  -0.157989
   48  C  4  S    0.001922   0.000018   0.003204   0.076427  -0.053135
   49  C  4  X   -0.000026   0.000000   0.000003  -0.124334   0.130995
   50  C  4  Y   -0.000000   0.000001   0.000000  -0.000739   0.000778
   51  C  4  Z    0.000000  -0.000000  -0.000000  -0.000000  -0.000000
   52  C  4  X    0.000563  -0.000003   0.001355   0.007060  -0.002421
   53  C  4  Y   -0.000002   0.001830  -0.000002   0.000042  -0.000014
   54  C  4  Z    0.000000  -0.000000  -0.000000  -0.000000  -0.000000
   55  C  4 XX    0.000134   0.000002  -0.000084   0.028059  -0.029335
   56  C  4 YY   -0.000355  -0.000004  -0.000279  -0.014497   0.017269
   57  C  4 ZZ    0.000221   0.000002   0.000363  -0.013563   0.012066
   58  C  4 XY    0.000004  -0.000252   0.000003   0.000292  -0.000320
   59  C  4 XZ    0.000000  -0.000000  -0.000000  -0.000000  -0.000000
   60  C  4 YZ    0.000000  -0.000000  -0.000000  -0.000000  -0.000000
   61  C  5  S    0.499259  -0.504154  -0.498442  -0.000680  -0.001330
   62  C  5  S    0.001844  -0.002585  -0.002583   0.034422   0.020445
   63  C  5  S   -0.003126   0.006647   0.007839   0.006989   0.005015
   64  C  5  X    0.000091   0.000032   0.000074   0.008898   0.016748
   65  C  5  Y   -0.000015   0.000061   0.000032  -0.018138  -0.013433
   66  C  5  Z    0.000000  -0.000000  -0.000000  -0.000000  -0.000000
   67  C  5  X   -0.000316  -0.000622  -0.001977   0.005547   0.005866
   68  C  5  Y    0.000190  -0.001637  -0.001543   0.003735  -0.008598
   69  C  5  Z    0.000000  -0.000000  -0.000000  -0.000000  -0.000000
   70  C  5 XX    0.000231  -0.000264  -0.000297   0.001975   0.002300
   71  C  5 YY   -0.000021  -0.000162  -0.000174  -0.000410  -0.000037
   72  C  5 ZZ   -0.000210   0.000426   0.000471  -0.001565  -0.002263
   73  C  5 XY    0.000041  -0.000195  -0.000192  -0.005556  -0.011213
   74  C  5 XZ    0.000000  -0.000000  -0.000000  -0.000000  -0.000000
   75  C  5 YZ    0.000000  -0.000000  -0.000000  -0.000000  -0.000000
   76  C  6  S    0.499130   0.504284   0.498570  -0.000681   0.001329
   77  C  6  S    0.001843   0.002585   0.002584   0.034438  -0.020417
   78  C  6  S   -0.003124  -0.006648  -0.007840   0.006991  -0.005010
   79  C  6  X   -0.000090   0.000033   0.000075  -0.008695   0.016580
   80  C  6  Y   -0.000016  -0.000061  -0.000031  -0.018253   0.013616
   81  C  6  Z    0.000000  -0.000000  -0.000000  -0.000000  -0.000000
   82  C  6  X    0.000314  -0.000641  -0.001995  -0.005596   0.005759
   83  C  6  Y    0.000193   0.001629   0.001520   0.003663   0.008670
   84  C  6  Z    0.000000  -0.000000  -0.000000  -0.000000  -0.000000
   85  C  6 XX    0.000232   0.000268   0.000301   0.001862  -0.002068
   86  C  6 YY   -0.000022   0.000158   0.000171  -0.000296  -0.000194
   87  C  6 ZZ   -0.000210  -0.000426  -0.000471  -0.001566   0.002262
   88  C  6 XY   -0.000038  -0.000193  -0.000190   0.005596  -0.011238
   89  C  6 XZ    0.000000  -0.000000  -0.000000  -0.000000  -0.000000
   90  C  6 YZ    0.000000  -0.000000  -0.000000  -0.000000  -0.000000
   91  C  7  S    0.502307   0.498464  -0.504190  -0.000680  -0.001330
   92  C  7  S    0.001856   0.002555  -0.002612   0.034422   0.020445
   93  C  7  S   -0.003151  -0.006557   0.007914   0.006989   0.005015
   94  C  7  X    0.000090  -0.000032   0.000075   0.008682   0.016587
   95  C  7  Y    0.000017   0.000060  -0.000032   0.018243   0.013631
   96  C  7  Z    0.000000  -0.000000  -0.000000  -0.000000  -0.000000
   97  C  7  X   -0.000318   0.000619  -0.002003   0.005591   0.005763
   98  C  7  Y   -0.000198  -0.001612   0.001538  -0.003669   0.008667
   99  C  7  Z    0.000000  -0.000000  -0.000000  -0.000000  -0.000000
  100  C  7 XX    0.000233   0.000265  -0.000304   0.001860   0.002069
  101  C  7 YY   -0.000022   0.000156  -0.000172  -0.000296   0.000194
  102  C  7 ZZ   -0.000211  -0.000421   0.000476  -0.001565  -0.002263
  103  C  7 XY   -0.000038  -0.000191   0.000193   0.005587   0.011242
  104  C  7 XZ    0.000000  -0.000000  -0.000000  -0.000000  -0.000000
  105  C  7 YZ    0.000000  -0.000000  -0.000000  -0.000000  -0.000000
  106  C  8  S    0.502236  -0.498533   0.504262  -0.000681   0.001329
  107  C  8  S    0.001856  -0.002555   0.002613   0.034438  -0.020417
  108  C  8  S   -0.003150   0.006558  -0.007915   0.006991  -0.005010
  109  C  8  X   -0.000091  -0.000031   0.000075  -0.008911   0.016741
  110  C  8  Y    0.000016  -0.000061   0.000033   0.018149  -0.013419
  111  C  8  Z    0.000000  -0.000000  -0.000000  -0.000000  -0.000000
  112  C  8  X    0.000321   0.000599  -0.001984  -0.005552   0.005861
  113  C  8  Y   -0.000194   0.001619  -0.001562  -0.003729  -0.008601
  114  C  8  Z    0.000000  -0.000000  -0.000000  -0.000000  -0.000000
  115  C  8 XX    0.000232  -0.000261   0.000300   0.001977  -0.002299
  116  C  8 YY   -0.000021  -0.000160   0.000176  -0.000411   0.000037
  117  C  8 ZZ   -0.000211   0.000421  -0.000476  -0.001566   0.002262
  118  C  8 XY    0.000042  -0.000193   0.000194  -0.005565   0.011209
  119  C  8 XZ    0.000000  -0.000000  -0.000000  -0.000000  -0.000000
  120  C  8 YZ    0.000000  -0.000000  -0.000000  -0.000000  -0.000000
  121  H  9  S   -0.000117  -0.000335   0.000371   0.008796   0.010256
  122  H  9  S    0.000760   0.000136  -0.000044  -0.002718   0.002229
  123  H  9  X    0.000032   0.000178  -0.000141  -0.001321  -0.001270
  124  H  9  Y   -0.000170  -0.000292   0.000310   0.002043   0.003019
  125  H  9  Z    0.000000  -0.000000  -0.000000  -0.000000  -0.000000
  126  H 10  S   -0.000117   0.000335  -0.000371   0.008804  -0.010249
  127  H 10  S    0.000760  -0.000136   0.000044  -0.002717  -0.002231
  128  H 10  X   -0.000030   0.000175  -0.000138   0.001298  -0.001233
  129  H 10  Y   -0.000170   0.000294  -0.000312   0.002061  -0.003032
  130  H 10  Z    0.000000  -0.000000  -0.000000  -0.000000  -0.000000
  131  H 11  S   -0.000116   0.000339   0.000368   0.008796   0.010256
  132  H 11  S    0.000757  -0.000137  -0.000043  -0.002718   0.002229
  133  H 11  X    0.000030  -0.000176  -0.000136  -0.001297  -0.001234
  134  H 11  Y    0.000169  -0.000297  -0.000308  -0.002058  -0.003034
  135  H 11  Z    0.000000  -0.000000  -0.000000  -0.000000  -0.000000
  136  H 12  S   -0.000116  -0.000339  -0.000368   0.008804  -0.010249
  137  H 12  S    0.000757   0.000137   0.000043  -0.002717  -0.002231
  138  H 12  X   -0.000032  -0.000180  -0.000139   0.001322  -0.001269
  139  H 12  Y    0.000169   0.000295   0.000307  -0.002045   0.003017
  140  H 12  Z    0.000000  -0.000000  -0.000000  -0.000000  -0.000000

                     11         12         13         14         15
                   -1.1580    -1.0775    -0.9560    -0.8699    -0.8273
                     A'         A'         A'         A'         A'  
    1  O  1  S    0.001809  -0.000000  -0.000498  -0.000000  -0.001321
    2  O  1  S   -0.089458   0.000000   0.129282  -0.000001  -0.102678
    3  O  1  S   -0.096949   0.000000   0.148831  -0.000001  -0.122506
    4  O  1  X    0.003449   0.000162   0.055799  -0.000613  -0.108200
    5  O  1  Y    0.000021  -0.027299   0.000331   0.103118  -0.000644
    6  O  1  Z    0.000000   0.000000   0.000000  -0.000000   0.000000
    7  O  1  X   -0.002736   0.000061   0.035834  -0.000305  -0.063681
    8  O  1  Y   -0.000016  -0.010212   0.000213   0.051246  -0.000379
    9  O  1  Z    0.000000   0.000000   0.000000  -0.000000   0.000000
   10  O  1 XX   -0.001520  -0.000042  -0.002395   0.000084   0.005972
   11  O  1 YY    0.000215   0.000042   0.002030  -0.000084  -0.003865
   12  O  1 ZZ    0.001305   0.000000   0.000365  -0.000000  -0.002107
   13  O  1 XY   -0.000012   0.004072  -0.000030  -0.008209   0.000068
   14  O  1 XZ    0.000000   0.000000   0.000000  -0.000000   0.000000
   15  O  1 YZ    0.000000   0.000000   0.000000  -0.000000   0.000000
   16  O  2  S    0.001809   0.000000   0.000498  -0.000000  -0.001321
   17  O  2  S   -0.089458  -0.000000  -0.129282  -0.000001  -0.102678
   18  O  2  S   -0.096948  -0.000000  -0.148831  -0.000001  -0.122506
   19  O  2  X   -0.003449   0.000162   0.055799   0.000613   0.108201
   20  O  2  Y   -0.000021  -0.027299   0.000331  -0.103117   0.000644
   21  O  2  Z    0.000000   0.000000   0.000000  -0.000000   0.000000
   22  O  2  X    0.002736   0.000061   0.035834   0.000305   0.063681
   23  O  2  Y    0.000016  -0.010212   0.000213  -0.051245   0.000379
   24  O  2  Z    0.000000   0.000000   0.000000  -0.000000   0.000000
   25  O  2 XX   -0.001520   0.000042   0.002395   0.000084   0.005972
   26  O  2 YY    0.000215  -0.000042  -0.002030  -0.000084  -0.003865
   27  O  2 ZZ    0.001305  -0.000000  -0.000365  -0.000000  -0.002107
   28  O  2 XY   -0.000012  -0.004072   0.000030  -0.008209   0.000068
   29  O  2 XZ    0.000000   0.000000   0.000000  -0.000000   0.000000
   30  O  2 YZ    0.000000   0.000000   0.000000  -0.000000   0.000000
   31  C  3  S   -0.001973  -0.000000   0.003421  -0.000000   0.000873
   32  C  3  S    0.105529  -0.000000  -0.203455   0.000001   0.197432
   33  C  3  S    0.066358  -0.000000  -0.142128   0.000001   0.153268
   34  C  3  X   -0.124211   0.000634   0.138989  -0.001266  -0.072928
   35  C  3  Y   -0.000737  -0.106695   0.000825   0.213096  -0.000435
   36  C  3  Z    0.000000   0.000000   0.000000  -0.000000   0.000000
   37  C  3  X   -0.027941   0.000232   0.069254  -0.000345  -0.083579
   38  C  3  Y   -0.000166  -0.039106   0.000411   0.057909  -0.000497
   39  C  3  Z    0.000000   0.000000   0.000000  -0.000000   0.000000
   40  C  3 XX   -0.005905  -0.000187   0.011793   0.000079  -0.001578
   41  C  3 YY    0.014106   0.000187  -0.021934  -0.000079   0.006417
   42  C  3 ZZ   -0.008201  -0.000000   0.010142  -0.000000  -0.004839
   43  C  3 XY   -0.000137   0.018192   0.000231  -0.007682  -0.000055
   44  C  3 XZ    0.000000   0.000000   0.000000  -0.000000   0.000000
   45  C  3 YZ    0.000000   0.000000   0.000000  -0.000000   0.000000
   46  C  4  S   -0.001973   0.000000  -0.003420  -0.000000   0.000873
   47  C  4  S    0.105529   0.000000   0.203456   0.000002   0.197433
   48  C  4  S    0.066358   0.000000   0.142127   0.000001   0.153270
   49  C  4  X    0.124211   0.000634   0.138990   0.001266   0.072928
   50  C  4  Y    0.000738  -0.106694   0.000825  -0.213095   0.000435
   51  C  4  Z    0.000000   0.000000   0.000000  -0.000000   0.000000
   52  C  4  X    0.027942   0.000232   0.069254   0.000345   0.083579
   53  C  4  Y    0.000166  -0.039104   0.000411  -0.057908   0.000497
   54  C  4  Z    0.000000   0.000000   0.000000  -0.000000   0.000000
   55  C  4 XX   -0.005905   0.000187  -0.011793   0.000079  -0.001577
   56  C  4 YY    0.014106  -0.000187   0.021934  -0.000079   0.006416
   57  C  4 ZZ   -0.008201   0.000000  -0.010142  -0.000000  -0.004839
   58  C  4 XY   -0.000137  -0.018192  -0.000231  -0.007683  -0.000055
   59  C  4 XZ    0.000000   0.000000   0.000000  -0.000000   0.000000
   60  C  4 YZ    0.000000   0.000000   0.000000  -0.000000   0.000000
   61  C  5  S   -0.012397   0.015935   0.007537  -0.008442   0.007649
   62  C  5  S    0.192859  -0.216858  -0.135675   0.158994  -0.075823
   63  C  5  S    0.104132  -0.127239  -0.099089   0.168893  -0.080261
   64  C  5  X   -0.063261   0.077831  -0.090372   0.114543   0.110338
   65  C  5  Y   -0.041900  -0.001175   0.057606  -0.008654  -0.161203
   66  C  5  Z    0.000000   0.000000   0.000000  -0.000000   0.000000
   67  C  5  X   -0.015390   0.030275  -0.013000   0.004524   0.037890
   68  C  5  Y   -0.008931   0.009768   0.018669  -0.036513  -0.029124
   69  C  5  Z    0.000000   0.000000   0.000000  -0.000000   0.000000
   70  C  5 XX    0.008218  -0.014684   0.009049  -0.002986  -0.012218
   71  C  5 YY   -0.000204   0.006738  -0.014698   0.008229   0.012744
   72  C  5 ZZ   -0.008014   0.007946   0.005649  -0.005243  -0.000526
   73  C  5 XY   -0.001849   0.001387   0.009825  -0.005921  -0.003742
   74  C  5 XZ    0.000000   0.000000   0.000000  -0.000000   0.000000
   75  C  5 YZ    0.000000   0.000000   0.000000  -0.000000   0.000000
   76  C  6  S   -0.012397   0.015935  -0.007537   0.008442   0.007649
   77  C  6  S    0.192859  -0.216858   0.135675  -0.158995  -0.075822
   78  C  6  S    0.104131  -0.127238   0.099089  -0.168895  -0.080256
   79  C  6  X    0.063754  -0.077811  -0.089682   0.114428  -0.108417
   80  C  6  Y   -0.041146  -0.002100  -0.058675   0.010009  -0.162505
   81  C  6  Z    0.000000   0.000000   0.000000  -0.000000   0.000000
   82  C  6  X    0.015494  -0.030386  -0.012778   0.004090  -0.037539
   83  C  6  Y   -0.008749   0.009410  -0.018823   0.036564  -0.029572
   84  C  6  Z    0.000000   0.000000   0.000000  -0.000000   0.000000
   85  C  6 XX    0.008179  -0.014653  -0.009248   0.003106  -0.012291
   86  C  6 YY   -0.000164   0.006706   0.014897  -0.008349   0.012817
   87  C  6 ZZ   -0.008014   0.007946  -0.005649   0.005243  -0.000526
   88  C  6 XY    0.001964  -0.001680   0.009497  -0.005766   0.003399
   89  C  6 XZ    0.000000   0.000000   0.000000  -0.000000   0.000000
   90  C  6 YZ    0.000000   0.000000   0.000000  -0.000000   0.000000
   91  C  7  S   -0.012397  -0.015935   0.007537   0.008442   0.007649
   92  C  7  S    0.192858   0.216859  -0.135675  -0.158995  -0.075820
   93  C  7  S    0.104132   0.127239  -0.099088  -0.168894  -0.080257
   94  C  7  X   -0.063754  -0.077811  -0.089681  -0.114430   0.108417
   95  C  7  Y    0.041146  -0.002099  -0.058674  -0.010011   0.162503
   96  C  7  Z    0.000000   0.000000   0.000000  -0.000000   0.000000
   97  C  7  X   -0.015494  -0.030388  -0.012777  -0.004090   0.037541
   98  C  7  Y    0.008749   0.009408  -0.018823  -0.036564   0.029573
   99  C  7  Z    0.000000   0.000000   0.000000  -0.000000   0.000000
  100  C  7 XX    0.008179   0.014653   0.009248   0.003106  -0.012291
  101  C  7 YY   -0.000164  -0.006706  -0.014896  -0.008349   0.012817
  102  C  7 ZZ   -0.008014  -0.007946   0.005649   0.005243  -0.000526
  103  C  7 XY    0.001964   0.001680  -0.009497  -0.005766   0.003399
  104  C  7 XZ    0.000000   0.000000   0.000000  -0.000000   0.000000
  105  C  7 YZ    0.000000   0.000000   0.000000  -0.000000   0.000000
  106  C  8  S   -0.012397  -0.015935  -0.007537  -0.008442   0.007650
  107  C  8  S    0.192859   0.216858   0.135674   0.158994  -0.075824
  108  C  8  S    0.104131   0.127238   0.099089   0.168894  -0.080259
  109  C  8  X    0.063261   0.077831  -0.090373  -0.114541  -0.110336
  110  C  8  Y    0.041900  -0.001176   0.057606   0.008653   0.161206
  111  C  8  Z    0.000000   0.000000   0.000000  -0.000000   0.000000
  112  C  8  X    0.015389   0.030272  -0.013000  -0.004525  -0.037887
  113  C  8  Y    0.008932   0.009770   0.018670   0.036513   0.029123
  114  C  8  Z    0.000000   0.000000   0.000000  -0.000000   0.000000
  115  C  8 XX    0.008218   0.014684  -0.009049  -0.002986  -0.012218
  116  C  8 YY   -0.000204  -0.006738   0.014698   0.008229   0.012743
  117  C  8 ZZ   -0.008014  -0.007946  -0.005649  -0.005243  -0.000526
  118  C  8 XY   -0.001849  -0.001387  -0.009825  -0.005921  -0.003742
  119  C  8 XZ    0.000000   0.000000   0.000000  -0.000000   0.000000
  120  C  8 YZ    0.000000   0.000000   0.000000  -0.000000   0.000000
  121  H  9  S    0.051888   0.083715  -0.069360  -0.125758  -0.099545
  122  H  9  S    0.000925   0.009204  -0.007619  -0.029615  -0.024110
  123  H  9  X   -0.005209  -0.008380   0.001812   0.005494   0.009450
  124  H  9  Y    0.007459   0.009839  -0.009458  -0.012940  -0.007178
  125  H  9  Z    0.000000   0.000000   0.000000  -0.000000   0.000000
  126  H 10  S    0.051889   0.083716   0.069358   0.125756  -0.099551
  127  H 10  S    0.000925   0.009204   0.007618   0.029614  -0.024111
  128  H 10  X    0.005120   0.008263   0.001699   0.005340  -0.009364
  129  H 10  Y    0.007521   0.009938   0.009479   0.013005  -0.007291
  130  H 10  Z    0.000000   0.000000   0.000000  -0.000000   0.000000
  131  H 11  S    0.051888  -0.083714  -0.069359   0.125756  -0.099546
  132  H 11  S    0.000925  -0.009203  -0.007618   0.029614  -0.024111
  133  H 11  X   -0.005120   0.008263   0.001699  -0.005340   0.009364
  134  H 11  Y   -0.007520   0.009938   0.009479  -0.013004   0.007290
  135  H 11  Z    0.000000   0.000000   0.000000  -0.000000   0.000000
  136  H 12  S    0.051889  -0.083716   0.069359  -0.125757  -0.099549
  137  H 12  S    0.000925  -0.009204   0.007618  -0.029615  -0.024111
  138  H 12  X    0.005209  -0.008380   0.001811  -0.005494  -0.009450
  139  H 12  Y   -0.007459   0.009839  -0.009458   0.012940   0.007179
  140  H 12  Z    0.000000   0.000000   0.000000  -0.000000   0.000000

                     16         17         18         19         20
                   -0.7182    -0.7120    -0.6905    -0.6395    -0.6263
                     A'         A'         A'         A'         A'  
    1  O  1  S    0.000000  -0.000648   0.003391   0.000000  -0.001359
    2  O  1  S   -0.000001  -0.118747   0.115145   0.000002  -0.056765
    3  O  1  S   -0.000001  -0.184933   0.167478   0.000003  -0.091501
    4  O  1  X   -0.001258  -0.250533   0.294277   0.000255  -0.216227
    5  O  1  Y    0.211538  -0.001489   0.001748  -0.041749  -0.001284
    6  O  1  Z    0.000000   0.000000  -0.000000   0.000000   0.000000
    7  O  1  X   -0.000707  -0.147881   0.169995   0.000187  -0.134737
    8  O  1  Y    0.118925  -0.000879   0.001010  -0.030750  -0.000800
    9  O  1  Z    0.000000   0.000000  -0.000000   0.000000   0.000000
   10  O  1 XX    0.000122   0.013991  -0.015816  -0.000051   0.012119
   11  O  1 YY   -0.000122  -0.007274   0.008816   0.000051  -0.005994
   12  O  1 ZZ   -0.000000  -0.006717   0.007000   0.000000  -0.006126
   13  O  1 XY   -0.011819   0.000146  -0.000169   0.004922   0.000124
   14  O  1 XZ    0.000000   0.000000  -0.000000   0.000000   0.000000
   15  O  1 YZ    0.000000   0.000000  -0.000000   0.000000   0.000000
   16  O  2  S   -0.000000  -0.000648  -0.003391  -0.000000   0.001359
   17  O  2  S   -0.000001  -0.118751  -0.115140  -0.000002   0.056773
   18  O  2  S   -0.000002  -0.184940  -0.167469  -0.000003   0.091514
   19  O  2  X   -0.001254   0.250546   0.294265   0.000256  -0.216264
   20  O  2  Y    0.211543   0.001485   0.001747  -0.041752  -0.001286
   21  O  2  Z    0.000000   0.000000  -0.000000   0.000000   0.000000
   22  O  2  X   -0.000705   0.147888   0.169987   0.000187  -0.134759
   23  O  2  Y    0.118928   0.000877   0.001010  -0.030752  -0.000802
   24  O  2  Z    0.000000   0.000000  -0.000000   0.000000   0.000000
   25  O  2 XX   -0.000121   0.013992   0.015816   0.000051  -0.012121
   26  O  2 YY    0.000122  -0.007275  -0.008816  -0.000051   0.005995
   27  O  2 ZZ   -0.000000  -0.006717  -0.007000  -0.000000   0.006126
   28  O  2 XY    0.011819   0.000146   0.000169  -0.004922  -0.000124
   29  O  2 XZ    0.000000   0.000000  -0.000000   0.000000   0.000000
   30  O  2 YZ    0.000000   0.000000  -0.000000   0.000000   0.000000
   31  C  3  S    0.000000   0.002313  -0.000547  -0.000000   0.000897
   32  C  3  S    0.000000   0.079057  -0.129688   0.000001  -0.064276
   33  C  3  S   -0.000000   0.054442  -0.163080   0.000002  -0.095734
   34  C  3  X   -0.001464   0.159119  -0.142443   0.000651   0.240004
   35  C  3  Y    0.246743   0.000943  -0.000845  -0.110658   0.001423
   36  C  3  Z    0.000000   0.000000  -0.000000   0.000000   0.000000
   37  C  3  X   -0.000542  -0.031155   0.092453  -0.000033   0.009574
   38  C  3  Y    0.091283  -0.000186   0.000549   0.005553   0.000057
   39  C  3  Z    0.000000   0.000000  -0.000000   0.000000   0.000000
   40  C  3 XX   -0.000125  -0.003434  -0.021197  -0.000171   0.002068
   41  C  3 YY    0.000125   0.005545   0.018251   0.000171  -0.000141
   42  C  3 ZZ   -0.000000  -0.002111   0.002946   0.000000  -0.001928
   43  C  3 XY    0.012146  -0.000062  -0.000271   0.016631   0.000016
   44  C  3 XZ    0.000000   0.000000  -0.000000   0.000000   0.000000
   45  C  3 YZ    0.000000   0.000000  -0.000000   0.000000   0.000000
   46  C  4  S    0.000000   0.002313   0.000547   0.000000  -0.000898
   47  C  4  S    0.000001   0.079062   0.129682  -0.000001   0.064273
   48  C  4  S    0.000001   0.054453   0.163078  -0.000002   0.095739
   49  C  4  X   -0.001467  -0.159125  -0.142436   0.000650   0.240032
   50  C  4  Y    0.246749  -0.000948  -0.000846  -0.110658   0.001422
   51  C  4  Z    0.000000   0.000000  -0.000000   0.000000   0.000000
   52  C  4  X   -0.000542   0.031161   0.092452  -0.000033   0.009571
   53  C  4  Y    0.091282   0.000184   0.000549   0.005550   0.000056
   54  C  4  Z    0.000000   0.000000  -0.000000   0.000000   0.000000
   55  C  4 XX    0.000125  -0.003433   0.021197   0.000171  -0.002072
   56  C  4 YY   -0.000125   0.005544  -0.018251  -0.000171   0.000145
   57  C  4 ZZ   -0.000000  -0.002111  -0.002946  -0.000000   0.001928
   58  C  4 XY   -0.012146  -0.000061   0.000271  -0.016631  -0.000016
   59  C  4 XZ    0.000000   0.000000  -0.000000   0.000000   0.000000
   60  C  4 YZ    0.000000   0.000000  -0.000000   0.000000   0.000000
   61  C  5  S    0.003350   0.000883  -0.006815  -0.000109  -0.000839
   62  C  5  S   -0.016392   0.007891   0.080226  -0.022785   0.032480
   63  C  5  S   -0.016894   0.003555   0.190846  -0.043219  -0.020210
   64  C  5  X    0.213745   0.126710   0.054557   0.140893   0.031842
   65  C  5  Y   -0.079624   0.115787   0.077734   0.210227   0.170341
   66  C  5  Z    0.000000   0.000000  -0.000000   0.000000   0.000000
   67  C  5  X    0.060803   0.048865  -0.018795   0.032956   0.047144
   68  C  5  Y   -0.026773   0.069525  -0.043433   0.097191   0.095303
   69  C  5  Z    0.000000   0.000000  -0.000000   0.000000   0.000000
   70  C  5 XX   -0.009379  -0.002348  -0.006301  -0.007238   0.005051
   71  C  5 YY    0.011324  -0.000164   0.007231   0.005527  -0.008331
   72  C  5 ZZ   -0.001945   0.002512  -0.000930   0.001711   0.003280
   73  C  5 XY   -0.006015  -0.003869   0.016103   0.000241   0.019697
   74  C  5 XZ    0.000000   0.000000  -0.000000   0.000000   0.000000
   75  C  5 YZ    0.000000   0.000000  -0.000000   0.000000   0.000000
   76  C  6  S    0.003350   0.000884   0.006815  -0.000110   0.000839
   77  C  6  S   -0.016391   0.007888  -0.080224  -0.022785  -0.032481
   78  C  6  S   -0.016892   0.003540  -0.190845  -0.043224   0.020214
   79  C  6  X   -0.212785  -0.128074   0.055484  -0.143380   0.033822
   80  C  6  Y   -0.082159   0.114273  -0.077086   0.208548  -0.169937
   81  C  6  Z    0.000000   0.000000  -0.000000   0.000000   0.000000
   82  C  6  X   -0.060482  -0.049691  -0.019306  -0.034113   0.048261
   83  C  6  Y   -0.027496   0.068944   0.043203   0.096796  -0.094732
   84  C  6  Z    0.000000   0.000000  -0.000000   0.000000   0.000000
   85  C  6 XX   -0.009500  -0.002427   0.005968  -0.007232  -0.005456
   86  C  6 YY    0.011445  -0.000085  -0.006898   0.005520   0.008736
   87  C  6 ZZ   -0.001945   0.002512   0.000930   0.001711  -0.003280
   88  C  6 XY    0.005730   0.003839   0.016283  -0.000417   0.019507
   89  C  6 XZ    0.000000   0.000000  -0.000000   0.000000   0.000000
   90  C  6 YZ    0.000000   0.000000  -0.000000   0.000000   0.000000
   91  C  7  S   -0.003350   0.000884  -0.006815   0.000109  -0.000839
   92  C  7  S    0.016392   0.007890   0.080225   0.022785   0.032481
   93  C  7  S    0.016895   0.003554   0.190845   0.043223  -0.020209
   94  C  7  X   -0.212781   0.128081   0.055479  -0.143381   0.033857
   95  C  7  Y   -0.082159  -0.114274  -0.077083   0.208546  -0.169941
   96  C  7  Z    0.000000   0.000000  -0.000000   0.000000   0.000000
   97  C  7  X   -0.060480   0.049689  -0.019309  -0.034110   0.048271
   98  C  7  Y   -0.027495  -0.068939   0.043206   0.096797  -0.094731
   99  C  7  Z    0.000000   0.000000  -0.000000   0.000000   0.000000
  100  C  7 XX    0.009500  -0.002428  -0.005968   0.007231   0.005454
  101  C  7 YY   -0.011445  -0.000084   0.006898  -0.005520  -0.008734
  102  C  7 ZZ    0.001945   0.002512  -0.000930  -0.001711   0.003280
  103  C  7 XY   -0.005729   0.003838  -0.016284   0.000417  -0.019508
  104  C  7 XZ    0.000000   0.000000  -0.000000   0.000000   0.000000
  105  C  7 YZ    0.000000   0.000000  -0.000000   0.000000   0.000000
  106  C  8  S   -0.003350   0.000884   0.006815   0.000110   0.000839
  107  C  8  S    0.016391   0.007887  -0.080225   0.022785  -0.032480
  108  C  8  S    0.016892   0.003540  -0.190845   0.043220   0.020215
  109  C  8  X    0.213742  -0.126712   0.054562   0.140894   0.031808
  110  C  8  Y   -0.079629  -0.115783   0.077737   0.210228   0.170338
  111  C  8  Z    0.000000   0.000000  -0.000000   0.000000   0.000000
  112  C  8  X    0.060804  -0.048870  -0.018792   0.032958   0.047134
  113  C  8  Y   -0.026777  -0.069529  -0.043430   0.097189   0.095303
  114  C  8  Z    0.000000   0.000000  -0.000000   0.000000   0.000000
  115  C  8 XX    0.009379  -0.002348   0.006301   0.007239  -0.005053
  116  C  8 YY   -0.011324  -0.000164  -0.007231  -0.005528   0.008333
  117  C  8 ZZ    0.001945   0.002512   0.000930  -0.001711  -0.003280
  118  C  8 XY    0.006015  -0.003870  -0.016102  -0.000241  -0.019696
  119  C  8 XZ    0.000000   0.000000  -0.000000   0.000000   0.000000
  120  C  8 YZ    0.000000   0.000000  -0.000000   0.000000   0.000000
  121  H  9  S   -0.023696   0.126058   0.134974  -0.192881   0.160287
  122  H  9  S   -0.010196   0.011300   0.066147  -0.053559   0.034249
  123  H  9  X   -0.004429  -0.004498  -0.005501   0.006587  -0.009614
  124  H  9  Y   -0.003630   0.009702   0.007538  -0.012606   0.008406
  125  H  9  Z    0.000000   0.000000  -0.000000   0.000000   0.000000
  126  H 10  S   -0.023694   0.126052  -0.134975  -0.192876  -0.160278
  127  H 10  S   -0.010196   0.011297  -0.066145  -0.053559  -0.034244
  128  H 10  X    0.004472   0.004382  -0.005411  -0.006436  -0.009513
  129  H 10  Y   -0.003577   0.009754  -0.007603  -0.012683  -0.008519
[...]
   10    0.0022260   0.0000044   0.4483751   0.0000047   0.0013474
   11    0.0003987   0.0000047   0.0000402   0.0000044   0.0002576
   12    0.0000402   0.0000044   0.0003987   0.0000047   0.0013474

            26          27          28          29          30

    1    0.8522480   0.0085363   0.0085362   0.0026107   0.0026107
    2    0.0000063   0.0085362   0.0085363   0.0026107   0.0026107
    3    0.0107495   0.0112807   0.0112807   0.0128970   0.0128969
    4    0.0009741   0.0112807   0.0112807   0.0128968   0.0128969
    5    0.0487198   0.4781050   0.0017222   0.4844190   0.0000735
    6    0.0176860   0.4781063   0.0017221   0.4844178   0.0000735
    7    0.0487198   0.0017222   0.4781052   0.0000735   0.4844187
    8    0.0176864   0.0017221   0.4781061   0.0000735   0.4844181
    9    0.0013475   0.0000034   0.0003519   0.0000004   0.0000002
   10    0.0002576   0.0000034   0.0003519   0.0000004   0.0000002
   11    0.0013476   0.0003519   0.0000034   0.0000002   0.0000004
   12    0.0002576   0.0003519   0.0000034   0.0000002   0.0000004

            31          32          33          34          35

    1    0.3209256   0.0013488   0.0004573   0.0002297   0.0000298
    2    0.0013488   0.3209258   0.0002297   0.0004573   0.0177052
    3    0.5993059   0.0001294   0.0029127   0.0036132   0.0007861
    4    0.0001294   0.5993055   0.0036132   0.0029128   0.4846952
    5    0.0351612   0.0039828   0.4920834   0.0020975   0.0090037
    6    0.0039830   0.0351614   0.0058751   0.0033659   0.4750047
    7    0.0351611   0.0039828   0.0033659   0.0058749   0.0033632
    8    0.0039830   0.0351614   0.0020975   0.4920838   0.0087479
    9    0.0000001   0.0000009   0.0000120   0.0001598   0.0000122
   10    0.0000009   0.0000001   0.0000132   0.4891800   0.0002498
   11    0.0000001   0.0000009   0.4891801   0.0000132   0.0001914
   12    0.0000009   0.0000001   0.0001598   0.0000120   0.0002108

            36          37          38          39          40

    1    0.0002297   0.0004573   0.0177049   0.0000432   0.0177048
    2    0.0004573   0.0002297   0.0000298   0.4235488   0.0000298
    3    0.0036132   0.0029128   0.4846949   0.0002020   0.4846949
    4    0.0029129   0.0036132   0.0007861   0.5382140   0.0007861
    5    0.0058749   0.0033659   0.0087479   0.0038246   0.4750053
    6    0.4920837   0.0020975   0.0033632   0.0149807   0.0090038
    7    0.0020974   0.4920833   0.4750054   0.0038246   0.0087480
    8    0.0033659   0.0058751   0.0090036   0.0149809   0.0033631
    9    0.0000132   0.4891803   0.0002108   0.0000030   0.0002498
   10    0.0000120   0.0001598   0.0001914   0.0001877   0.0000122
   11    0.0001598   0.0000120   0.0002498   0.0000030   0.0002108
   12    0.4891802   0.0000132   0.0000122   0.0001877   0.0001914

            41          42          43          44

    1    0.0000298   0.4235483   0.0012435   0.0012435
    2    0.0177051   0.0000432   0.0012435   0.0012434
    3    0.0007861   0.5382142   0.0020613   0.0020613
    4    0.4846952   0.0002020   0.0020614   0.0020614
    5    0.0033631   0.0149810   0.0008827   0.4950466
    6    0.0087481   0.0038246   0.0008827   0.4950458
    7    0.0090038   0.0149808   0.4950461   0.0008827
    8    0.4750044   0.0038246   0.4950463   0.0008827
    9    0.0001914   0.0001877   0.0007526   0.0000137
   10    0.0002108   0.0000030   0.0007525   0.0000137
   11    0.0000122   0.0001877   0.0000137   0.0007526
   12    0.0002498   0.0000030   0.0000137   0.0007525

 NOW USING LCAO COEFFICIENTS IN THE ANALYSIS... 


 FOR EACH MOLECULAR ORBITAL,
 1. THE MAXIMUM RELATIVE COEFFICIENT SQUARES ARE LOCATED.
 2. THESE MAXIMUM COEFFICIENTS ARE SUMMED UP.
 3. WHEN THE SUM IN POINT 2 REACHES THE CUTOFF
    WITHOUT ANY DEGENERACY IN THE COEFFICIENTS,
    THE ATOM LABELS ARE NO LONGER ASSIGNED.
    CUTOFF=  9.00E-01
 4. FOR MO OVERLAPS,
    VALUES OF 1 DO NOT NECCESARILY INDICATE
    ORBITAL OVERLAPS OF 1... QUITE THE CONTRARY.
 5. THE DISPLAYED ATOM LABELS ARE READ FROM
    THE SVD ITSELF.  FOR DAF534, THE MO OVERLAPS
    ARE STILL FORMED WITH SVD ORBITALS.
    SO SVD ATOM LABELS ARE SUFFICIENT FOR NOW.
 6. DO NOT APPLY TO MALMQ_CIDRIV RESULTS.
 MO=    1 HAS ATOM(S)=    2
          WITH WEIGHT(S)= 1.00
 MO=    2 HAS ATOM(S)=    1
          WITH WEIGHT(S)= 1.00
 MO=    3 HAS ATOM(S)=    4
          WITH WEIGHT(S)= 1.00
 MO=    4 HAS ATOM(S)=    3
          WITH WEIGHT(S)= 1.00
 MO=    5 HAS ATOM(S)=    5
          WITH WEIGHT(S)= 1.00
 MO=    6 HAS ATOM(S)=    7
          WITH WEIGHT(S)= 1.00
 MO=    7 HAS ATOM(S)=    6
          WITH WEIGHT(S)= 1.00
 MO=    8 HAS ATOM(S)=    8
          WITH WEIGHT(S)= 1.00
 MO=    9 HAS ATOM(S)=    2    4
          WITH WEIGHT(S)= 0.58 0.37
 MO=   10 HAS ATOM(S)=    1    3
          WITH WEIGHT(S)= 0.58 0.37
 MO=   11 HAS ATOM(S)=    5    6
          WITH WEIGHT(S)= 0.49 0.49
 MO=   12 HAS ATOM(S)=    7    8
          WITH WEIGHT(S)= 0.49 0.49
 MO=   13 HAS ATOM(S)=    4    6
          WITH WEIGHT(S)= 0.45 0.47
 MO=   14 HAS ATOM(S)=    4    8
          WITH WEIGHT(S)= 0.45 0.47
 MO=   15 HAS ATOM(S)=    3    5
          WITH WEIGHT(S)= 0.45 0.47
 MO=   16 HAS ATOM(S)=    3    7
          WITH WEIGHT(S)= 0.45 0.47
 MO=   17 HAS ATOM(S)=    2    4
          WITH WEIGHT(S)= 0.86 0.08
 MO=   18 HAS ATOM(S)=    1    3
          WITH WEIGHT(S)= 0.86 0.08
 MO=   19 HAS ATOM(S)=    6   12
          WITH WEIGHT(S)= 0.50 0.45
 MO=   20 HAS ATOM(S)=    5   11
          WITH WEIGHT(S)= 0.50 0.45
 MO=   21 HAS ATOM(S)=    7    9
          WITH WEIGHT(S)= 0.50 0.45
 MO=   22 HAS ATOM(S)=    2    4
          WITH WEIGHT(S)= 0.68 0.30
 MO=   23 HAS ATOM(S)=    8   10
          WITH WEIGHT(S)= 0.50 0.45
 MO=   24 HAS ATOM(S)=    1    3
          WITH WEIGHT(S)= 0.68 0.30
 MO=   25 HAS ATOM(S)=    2    6    8
          WITH WEIGHT(S)= 0.85 0.05 0.05
 MO=   26 HAS ATOM(S)=    1    5    7
          WITH WEIGHT(S)= 0.85 0.05 0.05
 MO=   27 HAS ATOM(S)=    5    6
          WITH WEIGHT(S)= 0.48 0.48
 MO=   28 HAS ATOM(S)=    7    8
          WITH WEIGHT(S)= 0.48 0.48
 MO=   29 HAS ATOM(S)=    5    6
          WITH WEIGHT(S)= 0.48 0.48
 MO=   30 HAS ATOM(S)=    7    8
          WITH WEIGHT(S)= 0.48 0.48
 MO=   31 HAS ATOM(S)=    1    3
          WITH WEIGHT(S)= 0.32 0.60
 MO=   32 HAS ATOM(S)=    2    4
          WITH WEIGHT(S)= 0.32 0.60
 MO=   33 HAS ATOM(S)=    5   11
          WITH WEIGHT(S)= 0.49 0.49
 MO=   34 HAS ATOM(S)=    8   10
          WITH WEIGHT(S)= 0.49 0.49
 MO=   35 HAS ATOM(S)=    4    6
          WITH WEIGHT(S)= 0.48 0.48
 MO=   36 HAS ATOM(S)=    6   12
          WITH WEIGHT(S)= 0.49 0.49
 MO=   37 HAS ATOM(S)=    7    9
          WITH WEIGHT(S)= 0.49 0.49
 MO=   38 HAS ATOM(S)=    3    7
          WITH WEIGHT(S)= 0.48 0.48
 MO=   39 HAS ATOM(S)=    2    4
          WITH WEIGHT(S)= 0.42 0.54
 MO=   40 HAS ATOM(S)=    3    5
          WITH WEIGHT(S)= 0.48 0.48
 MO=   41 HAS ATOM(S)=    4    8
          WITH WEIGHT(S)= 0.48 0.48
 MO=   42 HAS ATOM(S)=    1    3
          WITH WEIGHT(S)= 0.42 0.54
 MO=   43 HAS ATOM(S)=    7    8
          WITH WEIGHT(S)= 0.50 0.50
 MO=   44 HAS ATOM(S)=    5    6
          WITH WEIGHT(S)= 0.50 0.50

 A SET OF ATOMIC-LIKE MOLECULAR ORBITALS MUST BE CHOSEN FOR A RELATIVE COMPARISON...
 USING NONORTHOGONAL ORBITALS FROM DAF FILE= 521

 NOW USING MO OVERLAP COEFFICIENTS IN THE ANALYSIS... 

 THE RELATIVE WEIGHTS SQUARED NOW FOLLOW.
 ORBITAL DAF FILE =  534
 ATOM DAF FILE    =  528
 ROWS=ATOMS,COLUMNS=MOS
 INCLUDES CORE ORBITALS ON UP...
 NUMBER OF ATOMS =   12
 NUMBER OF MOS   =   44

             1           2           3           4           5

    1    0.0000000   1.0000000   0.0000000   0.0000000   0.0000000
    2    1.0000000   0.0000000   0.0000000   0.0000000   0.0000000
    3    0.0000000   0.0000000   0.0000000   1.0000000   0.0000000
    4    0.0000000   0.0000000   1.0000000   0.0000000   0.0000000
    5    0.0000000   0.0000000   0.0000000   0.0000000   1.0000000
    6    0.0000000   0.0000000   0.0000000   0.0000000   0.0000000
    7    0.0000000   0.0000000   0.0000000   0.0000000   0.0000000
    8    0.0000000   0.0000000   0.0000000   0.0000000   0.0000000
    9    0.0000000   0.0000000   0.0000000   0.0000000   0.0000000
   10    0.0000000   0.0000000   0.0000000   0.0000000   0.0000000
   11    0.0000000   0.0000000   0.0000000   0.0000000   0.0000000
   12    0.0000000   0.0000000   0.0000000   0.0000000   0.0000000

             6           7           8           9          10

    1    0.0000000   0.0000000   0.0000000   0.0000028   0.6130966
    2    0.0000000   0.0000000   0.0000000   0.6130964   0.0000028
    3    0.0000000   0.0000000   0.0000000   0.0000461   0.3856477
    4    0.0000000   0.0000000   0.0000000   0.3856478   0.0000461
    5    0.0000000   0.0000000   0.0000000   0.0002633   0.0003039
    6    0.0000000   1.0000000   0.0000000   0.0003039   0.0002633
    7    1.0000000   0.0000000   0.0000000   0.0002633   0.0003039
    8    0.0000000   0.0000000   1.0000000   0.0003039   0.0002633
    9    0.0000000   0.0000000   0.0000000   0.0000048   0.0000314
   10    0.0000000   0.0000000   0.0000000   0.0000314   0.0000048
   11    0.0000000   0.0000000   0.0000000   0.0000048   0.0000314
   12    0.0000000   0.0000000   0.0000000   0.0000314   0.0000048

            11          12          13          14          15

    1    0.0003453   0.0003453   0.0000167   0.0000167   0.0000998
    2    0.0003453   0.0003453   0.0000998   0.0000997   0.0000167
    3    0.0011315   0.0011315   0.0002190   0.0002190   0.4911255
    4    0.0011315   0.0011315   0.4911247   0.4911248   0.0002190
    5    0.4976382   0.0000139   0.0016092   0.0000119   0.5021634
    6    0.4976381   0.0000139   0.5021642   0.0007782   0.0016092
    7    0.0000139   0.4976382   0.0000119   0.0016092   0.0007782
    8    0.0000139   0.4976381   0.0007782   0.5021642   0.0000119
    9    0.0000177   0.0008534   0.0000000   0.0024025   0.0014769
   10    0.0000177   0.0008534   0.0014769   0.0000969   0.0000000
   11    0.0008534   0.0000177   0.0024025   0.0000000   0.0000969
   12    0.0008534   0.0000177   0.0000969   0.0014769   0.0024025

            16          17          18          19          20

    1    0.0000998   0.0000021   0.9971542   0.0000258   0.0001342
    2    0.0000167   0.9971542   0.0000021   0.0001341   0.0000258
    3    0.4911256   0.0000257   0.0011445   0.0016063   0.0017438
    4    0.0002190   0.0011445   0.0000257   0.0017437   0.0016063
    5    0.0007782   0.0000142   0.0006093   0.0027182   0.5807193
    6    0.0000119   0.0006093   0.0000142   0.5807195   0.0027181
    7    0.5021634   0.0000142   0.0006093   0.0000327   0.0010316
    8    0.0016092   0.0006093   0.0000142   0.0010315   0.0000327
    9    0.0000969   0.0000404   0.0001728   0.0000285   0.0000561
   10    0.0024025   0.0001728   0.0000404   0.0000561   0.0000285
   11    0.0014769   0.0000404   0.0001728   0.0003929   0.4115107
   12    0.0000000   0.0001728   0.0000404   0.4115105   0.0003929

            21          22          23          24          25

    1    0.0001341   0.0011443   0.0000258   0.6544203   0.0000000
    2    0.0000258   0.6544200   0.0001342   0.0011443   0.9522393
    3    0.0017437   0.0013064   0.0016063   0.3277987   0.0000459
    4    0.0016062   0.3277992   0.0017437   0.0013064   0.0230460
    5    0.0010316   0.0057202   0.0000327   0.0019449   0.0005347
    6    0.0000327   0.0019448   0.0010316   0.0057204   0.0115529
    7    0.5807198   0.0057203   0.0027182   0.0019448   0.0005348
    8    0.0027181   0.0019448   0.5807193   0.0057203   0.0115529
    9    0.4115103   0.0000000   0.0003929   0.0000000   0.0002387
   10    0.0003929   0.0000000   0.4115106   0.0000000   0.0000080
   11    0.0000561   0.0000000   0.0000285   0.0000000   0.0002387
   12    0.0000285   0.0000000   0.0000561   0.0000000   0.0000080

            26          27          28          29          30

    1    0.9522401   0.0046524   0.0046523   0.0057187   0.0057186
    2    0.0000000   0.0046524   0.0046524   0.0057186   0.0057186
    3    0.0230457   0.0214643   0.0214642   0.0016586   0.0016585
    4    0.0000459   0.0214641   0.0214642   0.0016585   0.0016585
    5    0.0115526   0.4735229   0.0003601   0.4925959   0.0000276
    6    0.0005348   0.4735238   0.0003601   0.4925946   0.0000276
    7    0.0115527   0.0003601   0.4735231   0.0000276   0.4925957
    8    0.0005348   0.0003601   0.4735236   0.0000276   0.4925949
    9    0.0000080   0.0000000   0.0000000   0.0000000   0.0000000
   10    0.0002387   0.0000000   0.0000000   0.0000000   0.0000000
   11    0.0000080   0.0000000   0.0000000   0.0000000   0.0000000
   12    0.0002387   0.0000000   0.0000000   0.0000000   0.0000000

            31          32          33          34          35

    1    0.3215426   0.0021509   0.0003689   0.0002988   0.0000617
    2    0.0021509   0.3215429   0.0002988   0.0003689   0.0236612
    3    0.6246481   0.0000013   0.0009453   0.0019721   0.0001473
    4    0.0000013   0.6246479   0.0019721   0.0009453   0.4898094
    5    0.0152290   0.0105993   0.4120291   0.0000166   0.0028994
    6    0.0105996   0.0152292   0.0027644   0.0014248   0.4797094
    7    0.0152290   0.0105994   0.0014248   0.0027644   0.0000254
    8    0.0105995   0.0152292   0.0000166   0.4120291   0.0017431
    9    0.0000000   0.0000000   0.0000366   0.0002380   0.0000014
   10    0.0000000   0.0000000   0.0000404   0.5798650   0.0008007
   11    0.0000000   0.0000000   0.5798650   0.0000404   0.0010978
   12    0.0000000   0.0000000   0.0002380   0.0000366   0.0000433

            36          37          38          39          40

    1    0.0002988   0.0003689   0.0236608   0.0000091   0.0236607
    2    0.0003689   0.0002988   0.0000617   0.3846711   0.0000617
    3    0.0019721   0.0009453   0.4898088   0.0000381   0.4898089
    4    0.0009453   0.0019721   0.0001473   0.6117009   0.0001473
    5    0.0027644   0.0014248   0.0017432   0.0006350   0.4797103
    6    0.4120289   0.0000166   0.0000254   0.0010531   0.0028994
    7    0.0000166   0.4120288   0.4797103   0.0006350   0.0017431
    8    0.0014248   0.0027644   0.0028994   0.0010531   0.0000254
    9    0.0000404   0.5798654   0.0000433   0.0000191   0.0008007
   10    0.0000366   0.0002380   0.0010978   0.0000832   0.0000014
   11    0.0002380   0.0000366   0.0008007   0.0000191   0.0000433
   12    0.5798652   0.0000404   0.0000014   0.0000832   0.0010978

            41          42          43          44

    1    0.0000617   0.3846709   0.0014002   0.0014003
    2    0.0236612   0.0000091   0.0014002   0.0014002
    3    0.0001473   0.6117011   0.0004530   0.0004530
    4    0.4898096   0.0000381   0.0004530   0.0004530
    5    0.0000254   0.0010531   0.0000546   0.4976494
    6    0.0017431   0.0006350   0.0000546   0.4976495
    7    0.0028993   0.0010531   0.4976494   0.0000546
    8    0.4797093   0.0006350   0.4976496   0.0000546
    9    0.0010978   0.0000832   0.0004322   0.0000105
   10    0.0000433   0.0000191   0.0004322   0.0000105
   11    0.0000014   0.0000832   0.0000105   0.0004322
   12    0.0008007   0.0000191   0.0000104   0.0004322

 NOW USING MO OVERLAP COEFFICIENTS IN THE ANALYSIS... 


 FOR EACH MOLECULAR ORBITAL,
 1. THE MAXIMUM RELATIVE COEFFICIENT SQUARES ARE LOCATED.
 2. THESE MAXIMUM COEFFICIENTS ARE SUMMED UP.
 3. WHEN THE SUM IN POINT 2 REACHES THE CUTOFF
    WITHOUT ANY DEGENERACY IN THE COEFFICIENTS,
    THE ATOM LABELS ARE NO LONGER ASSIGNED.
    CUTOFF=  9.00E-01
 4. FOR MO OVERLAPS,
    VALUES OF 1 DO NOT NECCESARILY INDICATE
    ORBITAL OVERLAPS OF 1... QUITE THE CONTRARY.
 5. THE DISPLAYED ATOM LABELS ARE READ FROM
    THE SVD ITSELF.  FOR DAF534, THE MO OVERLAPS
    ARE STILL FORMED WITH SVD ORBITALS.
    SO SVD ATOM LABELS ARE SUFFICIENT FOR NOW.
 6. DO NOT APPLY TO MALMQ_CIDRIV RESULTS.
 MO=    1 HAS ATOM(S)=    2
          WITH WEIGHT(S)= 1.00
 MO=    2 HAS ATOM(S)=    1
          WITH WEIGHT(S)= 1.00
 MO=    3 HAS ATOM(S)=    4
          WITH WEIGHT(S)= 1.00
 MO=    4 HAS ATOM(S)=    3
          WITH WEIGHT(S)= 1.00
 MO=    5 HAS ATOM(S)=    5
          WITH WEIGHT(S)= 1.00
 MO=    6 HAS ATOM(S)=    7
          WITH WEIGHT(S)= 1.00
 MO=    7 HAS ATOM(S)=    6
          WITH WEIGHT(S)= 1.00
 MO=    8 HAS ATOM(S)=    8
          WITH WEIGHT(S)= 1.00
 MO=    9 HAS ATOM(S)=    2    4
          WITH WEIGHT(S)= 0.61 0.39
 MO=   10 HAS ATOM(S)=    1    3
          WITH WEIGHT(S)= 0.61 0.39
 MO=   11 HAS ATOM(S)=    5    6
          WITH WEIGHT(S)= 0.50 0.50
 MO=   12 HAS ATOM(S)=    7    8
          WITH WEIGHT(S)= 0.50 0.50
 MO=   13 HAS ATOM(S)=    4    6
          WITH WEIGHT(S)= 0.49 0.50
 MO=   14 HAS ATOM(S)=    4    8
          WITH WEIGHT(S)= 0.49 0.50
 MO=   15 HAS ATOM(S)=    3    5
          WITH WEIGHT(S)= 0.49 0.50
 MO=   16 HAS ATOM(S)=    3    7
          WITH WEIGHT(S)= 0.49 0.50
 MO=   17 HAS ATOM(S)=    2
          WITH WEIGHT(S)= 1.00
 MO=   18 HAS ATOM(S)=    1
          WITH WEIGHT(S)= 1.00
 MO=   19 HAS ATOM(S)=    6   12
          WITH WEIGHT(S)= 0.58 0.41
 MO=   20 HAS ATOM(S)=    5   11
          WITH WEIGHT(S)= 0.58 0.41
 MO=   21 HAS ATOM(S)=    7    9
          WITH WEIGHT(S)= 0.58 0.41
 MO=   22 HAS ATOM(S)=    2    4
          WITH WEIGHT(S)= 0.65 0.33
 MO=   23 HAS ATOM(S)=    8   10
          WITH WEIGHT(S)= 0.58 0.41
 MO=   24 HAS ATOM(S)=    1    3
          WITH WEIGHT(S)= 0.65 0.33
 MO=   25 HAS ATOM(S)=    2
          WITH WEIGHT(S)= 0.95
 MO=   26 HAS ATOM(S)=    1
          WITH WEIGHT(S)= 0.95
 MO=   27 HAS ATOM(S)=    5    6
          WITH WEIGHT(S)= 0.47 0.47
 MO=   28 HAS ATOM(S)=    7    8
          WITH WEIGHT(S)= 0.47 0.47
 MO=   29 HAS ATOM(S)=    5    6
          WITH WEIGHT(S)= 0.49 0.49
 MO=   30 HAS ATOM(S)=    7    8
          WITH WEIGHT(S)= 0.49 0.49
 MO=   31 HAS ATOM(S)=    1    3
          WITH WEIGHT(S)= 0.32 0.62
 MO=   32 HAS ATOM(S)=    2    4
          WITH WEIGHT(S)= 0.32 0.62
 MO=   33 HAS ATOM(S)=    5   11
          WITH WEIGHT(S)= 0.41 0.58
 MO=   34 HAS ATOM(S)=    8   10
          WITH WEIGHT(S)= 0.41 0.58
 MO=   35 HAS ATOM(S)=    4    6
          WITH WEIGHT(S)= 0.49 0.48
 MO=   36 HAS ATOM(S)=    6   12
          WITH WEIGHT(S)= 0.41 0.58
 MO=   37 HAS ATOM(S)=    7    9
          WITH WEIGHT(S)= 0.41 0.58
 MO=   38 HAS ATOM(S)=    3    7
          WITH WEIGHT(S)= 0.49 0.48
 MO=   39 HAS ATOM(S)=    2    4
          WITH WEIGHT(S)= 0.38 0.61
 MO=   40 HAS ATOM(S)=    3    5
          WITH WEIGHT(S)= 0.49 0.48
 MO=   41 HAS ATOM(S)=    4    8
          WITH WEIGHT(S)= 0.49 0.48
 MO=   42 HAS ATOM(S)=    1    3
          WITH WEIGHT(S)= 0.38 0.61
 MO=   43 HAS ATOM(S)=    7    8
          WITH WEIGHT(S)= 0.50 0.50
 MO=   44 HAS ATOM(S)=    5    6
          WITH WEIGHT(S)= 0.50 0.50
 ... DONE WITH LCAO RELATIVE ATOMIC WEIGHTS SQUARED ...
 STEP CPU TIME =     0.00 TOTAL CPU TIME =        7.8 (    0.1 MIN)
 TOTAL WALL CLOCK TIME=        8.1 SECONDS, CPU UTILIZATION IS  96.66%
               580000  WORDS OF DYNAMIC MEMORY USED
 EXECUTION OF GAMESS TERMINATED NORMALLY Tue Nov 29 02:42:53 2016
 DDI: 263640 bytes (0.3 MB / 0 MWords) used by master data server.

 ----------------------------------------
 CPU timing information for all processes
 ========================================
 0: 7.244 + 0.589 = 7.834
 ----------------------------------------
 ddikick.x: exited gracefully.
unset echo
----- accounting info -----
Files used on the master node compute-3-0 were:
-rw-rw-r-- 1 sarom sarom   1000436 Nov 29  2016 .//svd3.dat
-rw-rw-r-- 1 sarom sarom      4253 Nov 29  2016 .//svd3.F05
-rw-rw-r-- 1 sarom sarom 236000976 Nov 29  2016 .//svd3.F08
-rw-rw-r-- 1 sarom sarom   4711680 Nov 29  2016 .//svd3.F10
-rw-rw-r-- 1 sarom sarom      4253 Nov 28 17:27 .//svd3.inp
-rw-rw-r-- 1 sarom sarom   1064017 Nov 29  2016 .//svd3.log
Tue Nov 29 02:42:59 CST 2016
0.198u 0.235s 0:14.41 2.9%	0+0k 0+136io 0pf+0w
