-catch_rsh /opt/gridengine/default/spool/compute-1-7/active_jobs/35846.1/pe_hostfile
compute-1-7
The primary node assigned by SGE to this run is compute-1-7
Warning: no access to tty (Bad file descriptor).
Thus no job control in this shell.
source /home/sarom/dir.git.branch.saromleang-travis-ci/install.info
setenv GMS_PATH /home/sarom/dir.git.branch.saromleang-travis-ci
setenv GMS_BUILD_DIR /home/sarom/dir.git.branch.saromleang-travis-ci
setenv GMS_TARGET linux64
setenv GMS_FORTRAN gfortran
setenv GMS_GFORTRAN_VERNO 4.4
setenv GMS_MATHLIB mkl-so
setenv GMS_MATHLIB none
setenv GMS_MATHLIB_PATH /share/apps/intel/compilers_and_libraries_2017.1.132/linux/mkl/lib/intel64
setenv GMS_MKL_VERNO 12
setenv GMS_DDI_COMM sockets
setenv GMS_LIBCCHEM false
setenv GMS_EIGEN_PATH
setenv GMS_PHI false
setenv GMS_SHMTYPE sysv
setenv GMS_OPENMP false
unset echo
trf-local
/home/sarom/dir.git.branch.saromleang-travis-ci/tests/trf/parallel
----- GAMESS execution script 'rungms' -----
This job is running on host compute-1-7.local
under operating system Linux at Wed Aug 9 20:28:11 CDT 2017
Available scratch disk space (Kbyte units) at beginning of the job is
Filesystem           1K-blocks      Used Available Use% Mounted on
/dev/sda1             16126920   8505684   6802036  56% /
GAMESS temporary binary files will be written to /scratch
GAMESS supplementary output files will be written to /home/sarom/restart
Copying input file trf-local.inp to your run's scratch directory...
cp /home/sarom/dir.git.branch.saromleang-travis-ci/tests/trf/parallel/trf-local.inp /scratch/trf-local.F05
unset echo
The generated host list is
compute-1-7.local
/home/sarom/dir.git.branch.saromleang-travis-ci/ddikick.x /home/sarom/dir.git.branch.saromleang-travis-ci/gamess.00.x trf-local -ddi 1 1 compute-1-7.local -scr /scratch

 Distributed Data Interface kickoff program.
 Initiating 1 compute processes on 1 nodes to run the following command:
 /home/sarom/dir.git.branch.saromleang-travis-ci/gamess.00.x trf-local 

          ******************************************************
          *         GAMESS VERSION = 20 APR 2017 (R1)          *
          *             FROM IOWA STATE UNIVERSITY             *
          * M.W.SCHMIDT, K.K.BALDRIDGE, J.A.BOATZ, S.T.ELBERT, *
          *   M.S.GORDON, J.H.JENSEN, S.KOSEKI, N.MATSUNAGA,   *
          *          K.A.NGUYEN, S.J.SU, T.L.WINDUS,           *
          *       TOGETHER WITH M.DUPUIS, J.A.MONTGOMERY       *
          *         J.COMPUT.CHEM.  14, 1347-1363(1993)        *
          **************** 64 BIT LINUX VERSION ****************

  SINCE 1993, STUDENTS AND POSTDOCS WORKING AT IOWA STATE UNIVERSITY
  AND ALSO IN THEIR VARIOUS JOBS AFTER LEAVING ISU HAVE MADE IMPORTANT
  CONTRIBUTIONS TO THE CODE:
     IVANA ADAMOVIC, CHRISTINE AIKENS, YURI ALEXEEV, POOJA ARORA,
     ANDREY ASADCHEV, ROB BELL, PRADIPTA BANDYOPADHYAY, JONATHAN BENTZ,
     BRETT BODE, KURT BRORSEN, CALEB CARLIN, GALINA CHABAN, WEI CHEN,
     CHEOL HO CHOI, PAUL DAY, ALBERT DEFUSCO, NUWAN DESILVA, TIM DUDLEY,
     DMITRI FEDOROV, GRAHAM FLETCHER, MARK FREITAG, KURT GLAESEMANN,
     DAN KEMP, GRANT MERRILL, NORIYUKI MINEZAWA, JONATHAN MULLIN,
     TAKESHI NAGATA, SEAN NEDD, HEATHER NETZLOFF, BOSILJKA NJEGIC, RYAN OLSON,
     MIKE PAK, SPENCER PRUITT, LUKE ROSKOP, JIM SHOEMAKER, LYUDMILA SLIPCHENKO,
     TONY SMITH, SAROM SOK LEANG, JIE SONG, TETSUYA TAKETSUGU, SIMON WEBB,
     PENG XU, SOOHAENG YOO, FEDERICO ZAHARIEV

  ADDITIONAL CODE HAS BEEN PROVIDED BY COLLABORATORS IN OTHER GROUPS:
     IOWA STATE UNIVERSITY:
          JOE IVANIC, AARON WEST, LAIMUTIS BYTAUTAS, KLAUS RUEDENBERG
     UNIVERSITY OF TOKYO: KIMIHIKO HIRAO, TAKAHITO NAKAJIMA,
          TAKAO TSUNEDA, MUNEAKI KAMIYA, SUSUMU YANAGISAWA,
          KIYOSHI YAGI, MAHITO CHIBA, SEIKEN TOKURA, NAOAKI KAWAKAMI
     UNIVERSITY OF AARHUS: FRANK JENSEN
     UNIVERSITY OF IOWA: VISVALDAS KAIRYS, HUI LI
     NATIONAL INST. OF STANDARDS AND TECHNOLOGY: WALT STEVENS, DAVID GARMER
     UNIVERSITY OF PISA: BENEDETTA MENNUCCI, JACOPO TOMASI
     UNIVERSITY OF MEMPHIS: HENRY KURTZ, PRAKASHAN KORAMBATH
     UNIVERSITY OF ALBERTA: TOBY ZENG, MARIUSZ KLOBUKOWSKI
     UNIVERSITY OF NEW ENGLAND: MARK SPACKMAN
     MIE UNIVERSITY: HIROAKI UMEDA
     NAT. INST. OF ADVANCED INDUSTRIAL SCIENCE AND TECHNOLOGY: KAZUO KITAURA
     MICHIGAN STATE UNIVERSITY:
          KAROL KOWALSKI, MARTA WLOCH, JEFFREY GOUR, JESSE LUTZ,
          WEI LI, PIOTR PIECUCH
     UNIVERSITY OF SILESIA: MONIKA MUSIAL, STANISLAW KUCHARSKI
     FACULTES UNIVERSITAIRES NOTRE-DAME DE LA PAIX:
          OLIVIER QUINET, BENOIT CHAMPAGNE
     UNIVERSITY OF CALIFORNIA - SANTA BARBARA: BERNARD KIRTMAN
     INSTITUTE FOR MOLECULAR SCIENCE:
          KAZUYA ISHIMURA, MICHIO KATOUDA, AND SHIGERU NAGASE
     UNIVERSITY OF NOTRE DAME: ANNA POMOGAEVA, DAN CHIPMAN
     KYUSHU UNIVERSITY:
          HARUYUKI NAKANO,
          FENG LONG GU, JACEK KORCHOWIEC, MARCIN MAKOWSKI, AND YURIKO AOKI,
          HIROTOSHI MORI AND EISAKU MIYOSHI
     PENNSYLVANIA STATE UNIVERSITY:
          TZVETELIN IORDANOV, CHET SWALINA, JONATHAN SKONE,
          SHARON HAMMES-SCHIFFER
     WASEDA UNIVERSITY:
          MASATO KOBAYASHI, TOMOKO AKAMA, TSUGUKI TOUMA,
          TAKESHI YOSHIKAWA, YASUHIRO IKABATA, JUNJI SEINO,
          YUYA NAKAJIMA, HIROMI NAKAI
     NANJING UNIVERSITY: SHUHUA LI
     UNIVERSITY OF NEBRASKA:
          PEIFENG SU, DEJUN SI, NANDUN THELLAMUREGE, YALI WANG, HUI LI
     UNIVERSITY OF ZURICH: ROBERTO PEVERATI, KIM BALDRIDGE
     N. COPERNICUS UNIVERSITY AND JACKSON STATE UNIVERSITY:
          MARIA BARYSZ
     UNIVERSITY OF COPENHAGEN: Jimmy Kromann, CASPER STEINMANN
     TOKYO INSTITUTE OF TECHNOLOGY: HIROYA NAKATA
     NAGOYA UNIVERSITY: YOSHIO NISHIMOTO, STEPHAN IRLE
     MOSCOW STATE UNIVERSITY: VLADIMIR MIRONOV

 EXECUTION OF GAMESS BEGUN Wed Aug  9 20:28:11 2017

            ECHO OF THE FIRST FEW INPUT CARDS -
 INPUT CARD>!  Anthracene C14H10 localized orbital test...80 AOs, 47 MOs                    
 INPUT CARD>!  R.C.Raffenetti, K.Ruedenberg, C.L.Janssen, H.F.Schaefer                      
 INPUT CARD>!  Theoret.Chim.Acta, 1993, 86, 149-165.                                        
 INPUT CARD>!                                                                               
 INPUT CARD>!  FINAL energy= -534.6438211765 after 9 iterations                             
 INPUT CARD>!  initial DIAGONAL localization sum = 22.0028900573                            
 INPUT CARD>!    final DIAGONAL localization sum = 69.8197871100                            
 INPUT CARD>!                                                                               
 INPUT CARD>!  about 4200 Jacobi rotations are performed (this depends on machine)          
 INPUT CARD>!                                                                               
 INPUT CARD>!  This run takes 49 seconds on 2.66 GHz Cloverton (15 Apr 2015)                
 INPUT CARD>!      p=4 needed 14                                                            
 INPUT CARD>!  results haven't changed substantially since creation in 2010.                
 INPUT CARD>!                                                                               
 INPUT CARD>!  This job will run in parallel, but w/poor scalability, due to the            
 INPUT CARD>!  large number of core MOs, and the serial localization program.               
 INPUT CARD>!                                                                               
 INPUT CARD> $contrl scftyp=rhf runtyp=energy local=ruednbrg units=bohr $end                
 INPUT CARD> $system parall=.true. mwords=1 memddi=6 $end                                   
 INPUT CARD> $guess  guess=huckel $end                                                      
 INPUT CARD> $local  prtloc=.true. fcore=.false. $end                                       
 INPUT CARD> $scf    dirscf=.true. $end                                                     
 INPUT CARD> $data                                                                          
 INPUT CARD>Anthracene...Schmidt/Ruedenberg ET 8s4p or 3s basis, general contraction to MBS 
 INPUT CARD>Dnh  2                                                                          
 INPUT CARD>                                                                                
 INPUT CARD>Carbon   6.0    0.000000000    2.645667625  0.0                                 
 INPUT CARD>        S    8                                                                  
 INPUT CARD>    1  0.178584957E+00  0.754962630E-02                                         
 INPUT CARD>    2  0.626634968E+00 -0.193265195E-01                                         
 INPUT CARD>    3  0.219879317E+01  0.262460311E+00                                         
 INPUT CARD>    4  0.771532338E+01  0.555048245E+00                                         
 INPUT CARD>    5  0.270722211E+02  0.259856799E+00                                         
 INPUT CARD>    6  0.949934457E+02  0.713328252E-01                                         
 INPUT CARD>    7  0.333321552E+03  0.145266063E-01                                         
 INPUT CARD>    8  0.116958866E+04  0.467229380E-02                                         
 INPUT CARD>        S    8                                                                  
 INPUT CARD>    1  0.178584957E+00  0.674643301E+00                                         
 INPUT CARD>    2  0.626634968E+00  0.484006637E+00                                         
 INPUT CARD>    3  0.219879317E+01 -0.152816297E+00                                         
 INPUT CARD>    4  0.771532338E+01 -0.176411964E+00                                         
 INPUT CARD>    5  0.270722211E+02 -0.603364973E-01                                         
 INPUT CARD>    6  0.949934457E+02 -0.159998630E-01                                         
 INPUT CARD>    7  0.333321552E+03 -0.306628910E-02                                         
 INPUT CARD>    8  0.116958866E+04 -0.101102010E-02                                         
 INPUT CARD>        P    4                                                                  
 INPUT CARD>    1  0.158055186E+00  0.498518341E+00                                         
 INPUT CARD>    2  0.599348425E+00  0.512619431E+00                                         
 INPUT CARD>    3  0.227274121E+01  0.175334450E+00                                         
 INPUT CARD>    4  0.861828014E+01  0.365836476E-01                                         
    1000000 WORDS OF MEMORY AVAILABLE


     RUN TITLE
     ---------
 Anthracene...Schmidt/Ruedenberg ET 8s4p or 3s basis, general contraction to MBS 

 THE POINT GROUP OF THE MOLECULE IS DNH     
 THE ORDER OF THE PRINCIPAL AXIS IS     2

 ATOM      ATOMIC                      COORDINATES (BOHR)
           CHARGE         X                   Y                   Z
 CARBON      6.0    -0.0000000000       -2.6456676250        0.0000000000
 CARBON      6.0     0.0000000000        2.6456676250        0.0000000000
 CARBON      6.0    -2.2912152500       -1.3228338120        0.0000000000
 CARBON      6.0     2.2912152500       -1.3228338120        0.0000000000
 CARBON      6.0    -2.2912152500        1.3228338120        0.0000000000
 CARBON      6.0     2.2912152500        1.3228338120        0.0000000000
 CARBON      6.0    -4.5824304990       -2.6456676250        0.0000000000
 CARBON      6.0     4.5824304990       -2.6456676250        0.0000000000
 CARBON      6.0    -4.5824304990        2.6456676250        0.0000000000
 CARBON      6.0     4.5824304990        2.6456676250        0.0000000000
 CARBON      6.0    -6.8736459380       -1.3228338120        0.0000000000
 CARBON      6.0     6.8736459380       -1.3228338120        0.0000000000
 CARBON      6.0    -6.8736459380        1.3228338120        0.0000000000
 CARBON      6.0     6.8736459380        1.3228338120        0.0000000000
 HYDROGEN    1.0    -0.0000000000       -4.7244064730        0.0000000000
 HYDROGEN    1.0     0.0000000000        4.7244064730        0.0000000000
 HYDROGEN    1.0    -4.5824304990       -4.7244064730        0.0000000000
 HYDROGEN    1.0     4.5824304990       -4.7244064730        0.0000000000
 HYDROGEN    1.0    -4.5824304990        4.7244064730        0.0000000000
 HYDROGEN    1.0     4.5824304990        4.7244064730        0.0000000000
 HYDROGEN    1.0    -8.6738865050       -2.3622032360        0.0000000000
 HYDROGEN    1.0     8.6738865050       -2.3622032360        0.0000000000
 HYDROGEN    1.0    -8.6738865050        2.3622032360        0.0000000000
 HYDROGEN    1.0     8.6738865050        2.3622032360        0.0000000000

          INTERNUCLEAR DISTANCES (ANGS.)
          ------------------------------

                1 CARB       2 CARB       3 CARB       4 CARB       5 CARB  

   1 CARB    0.0000000    2.8000542 *  1.4000271 *  1.4000271 *  2.4249181 *
   2 CARB    2.8000542 *  0.0000000    2.4249181 *  2.4249181 *  1.4000271 *
   3 CARB    1.4000271 *  2.4249181 *  0.0000000    2.4249180 *  1.4000271 *
   4 CARB    1.4000271 *  2.4249181 *  2.4249180 *  0.0000000    2.8000541 *
   5 CARB    2.4249181 *  1.4000271 *  1.4000271 *  2.8000541 *  0.0000000  
   6 CARB    2.4249181 *  1.4000271 *  2.8000541 *  1.4000271 *  2.4249180 *
   7 CARB    2.4249180 *  3.7041235    1.4000271 *  3.7041234    2.4249181 *
   8 CARB    2.4249180 *  3.7041235    3.7041234    1.4000271 *  4.2000812  
   9 CARB    3.7041235    2.4249180 *  2.4249181 *  4.2000812    1.4000271 *
  10 CARB    3.7041235    2.4249180 *  4.2000812    2.4249181 *  3.7041234  
  11 CARB    3.7041235    4.2000813    2.4249181 *  4.8498360    2.8000542 *
  12 CARB    3.7041235    4.2000813    4.8498360    2.4249181 *  5.0478694  
  13 CARB    4.2000813    3.7041235    2.8000542 *  5.0478694    2.4249181 *
  14 CARB    4.2000813    3.7041235    5.0478694    2.8000542 *  4.8498360  
  15 HYDR    1.1000213 *  3.9000755    2.1702954 *  2.1702954 *  3.4220540  
  16 HYDR    3.9000755    1.1000213 *  3.4220540    3.4220540    2.1702954 *
  17 HYDR    2.6627568 *  4.5924739    2.1702954 *  4.0584032    3.4220540  
  18 HYDR    2.6627568 *  4.5924739    4.0584032    2.1702954 *  4.8446783  
  19 HYDR    4.5924739    2.6627568 *  3.4220540    4.8446783    2.1702954 *
  20 HYDR    4.5924739    2.6627568 *  4.8446783    3.4220540    4.0584032  
  21 HYDR    4.5924738    5.3001025    3.4220539    5.8284915    3.9000755  
  22 HYDR    4.5924738    5.3001025    5.8284915    3.4220539    6.1213927  
  23 HYDR    5.3001025    4.5924738    3.9000755    6.1213927    3.4220539  
  24 HYDR    5.3001025    4.5924738    6.1213927    3.9000755    5.8284915  

                6 CARB       7 CARB       8 CARB       9 CARB      10 CARB  

   1 CARB    2.4249181 *  2.4249180 *  2.4249180 *  3.7041235    3.7041235  
   2 CARB    1.4000271 *  3.7041235    3.7041235    2.4249180 *  2.4249180 *
   3 CARB    2.8000541 *  1.4000271 *  3.7041234    2.4249181 *  4.2000812  
   4 CARB    1.4000271 *  3.7041234    1.4000271 *  4.2000812    2.4249181 *
   5 CARB    2.4249180 *  2.4249181 *  4.2000812    1.4000271 *  3.7041234  
   6 CARB    0.0000000    4.2000812    2.4249181 *  3.7041234    1.4000271 *
   7 CARB    4.2000812    0.0000000    4.8498359    2.8000542 *  5.6001082  
   8 CARB    2.4249181 *  4.8498359    0.0000000    5.6001082    2.8000542 *
   9 CARB    3.7041234    2.8000542 *  5.6001082    0.0000000    4.8498359  
  10 CARB    1.4000271 *  5.6001082    2.8000542 *  4.8498359    0.0000000  
  11 CARB    5.0478694    1.4000271 *  6.1025765    2.4249181 *  6.4157300  
  12 CARB    2.8000542 *  6.1025765    1.4000271 *  6.4157300    2.4249181 *
  13 CARB    4.8498360    2.4249181 *  6.4157300    1.4000271 *  6.1025765  
  14 CARB    2.4249181 *  6.4157300    2.4249181 *  6.1025765    1.4000271 *
  15 HYDR    3.4220540    2.6627568 *  2.6627568 *  4.5924739    4.5924739  
  16 HYDR    2.1702954 *  4.5924739    4.5924739    2.6627568 *  2.6627568 *
  17 HYDR    4.8446783    1.1000213 *  4.9730228    3.9000755    6.2234635  
  18 HYDR    3.4220540    4.9730228    1.1000213 *  6.2234635    3.9000755  
  19 HYDR    4.0584032    3.9000755    6.2234635    1.1000213 *  4.9730228  
  20 HYDR    2.1702954 *  6.2234635    3.9000755    4.9730228    1.1000213 *
  21 HYDR    6.1213927    2.1702955 *  7.0165450    3.4220540    7.4988115  
  22 HYDR    3.9000755    7.0165450    2.1702955 *  7.4988115    3.4220540  
  23 HYDR    5.8284915    3.4220540    7.4988115    2.1702955 *  7.0165450  
  24 HYDR    3.4220539    7.4988115    3.4220540    7.0165450    2.1702955 *

               11 CARB      12 CARB      13 CARB      14 CARB      15 HYDR  

   1 CARB    3.7041235    3.7041235    4.2000813    4.2000813    1.1000213 *
   2 CARB    4.2000813    4.2000813    3.7041235    3.7041235    3.9000755  
   3 CARB    2.4249181 *  4.8498360    2.8000542 *  5.0478694    2.1702954 *
   4 CARB    4.8498360    2.4249181 *  5.0478694    2.8000542 *  2.1702954 *
   5 CARB    2.8000542 *  5.0478694    2.4249181 *  4.8498360    3.4220540  
   6 CARB    5.0478694    2.8000542 *  4.8498360    2.4249181 *  3.4220540  
   7 CARB    1.4000271 *  6.1025765    2.4249181 *  6.4157300    2.6627568 *
   8 CARB    6.1025765    1.4000271 *  6.4157300    2.4249181 *  2.6627568 *
   9 CARB    2.4249181 *  6.4157300    1.4000271 *  6.1025765    4.5924739  
  10 CARB    6.4157300    2.4249181 *  6.1025765    1.4000271 *  4.5924739  
  11 CARB    0.0000000    7.2747541    1.4000271 *  7.4082470    4.0584033  
  12 CARB    7.2747541    0.0000000    7.4082470    1.4000271 *  4.0584033  
  13 CARB    1.4000271 *  7.4082470    0.0000000    7.2747541    4.8446784  
  14 CARB    7.4082470    1.4000271 *  7.2747541    0.0000000    4.8446784  
  15 HYDR    4.0584033    4.0584033    4.8446784    4.8446784    0.0000000  
  16 HYDR    4.8446784    4.8446784    4.0584033    4.0584033    5.0000968  
  17 HYDR    2.1702955 *  6.3238870    3.4220540    6.8550578    2.4249180 *
  18 HYDR    6.3238870    2.1702955 *  6.8550578    3.4220540    2.4249180 *
  19 HYDR    3.4220540    6.8550578    2.1702955 *  6.3238870    5.5570852  
  20 HYDR    6.8550578    3.4220540    6.3238870    2.1702955 *  5.5570852  
  21 HYDR    1.1000213 *  8.2457644    2.1702955 *  8.4553395    4.7571920  
  22 HYDR    8.2457644    1.1000213 *  8.4553395    2.1702955 *  4.7571920  
  23 HYDR    2.1702955 *  8.4553395    1.1000213 *  8.2457644    5.9271713  
  24 HYDR    8.4553395    2.1702955 *  8.2457644    1.1000213 *  5.9271713  

               16 HYDR      17 HYDR      18 HYDR      19 HYDR      20 HYDR  

   1 CARB    3.9000755    2.6627568 *  2.6627568 *  4.5924739    4.5924739  
   2 CARB    1.1000213 *  4.5924739    4.5924739    2.6627568 *  2.6627568 *
   3 CARB    3.4220540    2.1702954 *  4.0584032    3.4220540    4.8446783  
   4 CARB    3.4220540    4.0584032    2.1702954 *  4.8446783    3.4220540  
   5 CARB    2.1702954 *  3.4220540    4.8446783    2.1702954 *  4.0584032  
   6 CARB    2.1702954 *  4.8446783    3.4220540    4.0584032    2.1702954 *
   7 CARB    4.5924739    1.1000213 *  4.9730228    3.9000755    6.2234635  
   8 CARB    4.5924739    4.9730228    1.1000213 *  6.2234635    3.9000755  
   9 CARB    2.6627568 *  3.9000755    6.2234635    1.1000213 *  4.9730228  
  10 CARB    2.6627568 *  6.2234635    3.9000755    4.9730228    1.1000213 *
  11 CARB    4.8446784    2.1702955 *  6.3238870    3.4220540    6.8550578  
  12 CARB    4.8446784    6.3238870    2.1702955 *  6.8550578    3.4220540  
  13 CARB    4.0584033    3.4220540    6.8550578    2.1702955 *  6.3238870  
  14 CARB    4.0584033    6.8550578    3.4220540    6.3238870    2.1702955 *
  15 HYDR    5.0000968    2.4249180 *  2.4249180 *  5.5570852    5.5570852  
  16 HYDR    0.0000000    5.5570852    5.5570852    2.4249180 *  2.4249180 *
  17 HYDR    5.5570852    0.0000000    4.8498359    5.0000968    6.9657646  
  18 HYDR    5.5570852    4.8498359    0.0000000    6.9657646    5.0000968  
  19 HYDR    2.4249180 *  5.0000968    6.9657646    0.0000000    4.8498359  
  20 HYDR    2.4249180 *  6.9657646    5.0000968    4.8498359    0.0000000  
  21 HYDR    5.9271713    2.5000484 *  7.1254448    4.3302109    7.9543980  
  22 HYDR    5.9271713    7.1254448    2.5000484 *  7.9543980    4.3302109  
  23 HYDR    4.7571920    4.3302109    7.9543980    2.5000484 *  7.1254448  
  24 HYDR    4.7571920    7.9543980    4.3302109    7.1254448    2.5000484 *

               21 HYDR      22 HYDR      23 HYDR      24 HYDR  

   1 CARB    4.5924738    4.5924738    5.3001025    5.3001025  
   2 CARB    5.3001025    5.3001025    4.5924738    4.5924738  
   3 CARB    3.4220539    5.8284915    3.9000755    6.1213927  
   4 CARB    5.8284915    3.4220539    6.1213927    3.9000755  
   5 CARB    3.9000755    6.1213927    3.4220539    5.8284915  
   6 CARB    6.1213927    3.9000755    5.8284915    3.4220539  
   7 CARB    2.1702955 *  7.0165450    3.4220540    7.4988115  
   8 CARB    7.0165450    2.1702955 *  7.4988115    3.4220540  
   9 CARB    3.4220540    7.4988115    2.1702955 *  7.0165450  
  10 CARB    7.4988115    3.4220540    7.0165450    2.1702955 *
  11 CARB    1.1000213 *  8.2457644    2.1702955 *  8.4553395  
  12 CARB    8.2457644    1.1000213 *  8.4553395    2.1702955 *
  13 CARB    2.1702955 *  8.4553395    1.1000213 *  8.2457644  
  14 CARB    8.4553395    2.1702955 *  8.2457644    1.1000213 *
  15 HYDR    4.7571920    4.7571920    5.9271713    5.9271713  
  16 HYDR    5.9271713    5.9271713    4.7571920    4.7571920  
  17 HYDR    2.5000484 *  7.1254448    4.3302109    7.9543980  
  18 HYDR    7.1254448    2.5000484 *  7.9543980    4.3302109  
  19 HYDR    4.3302109    7.9543980    2.5000484 *  7.1254448  
  20 HYDR    7.9543980    4.3302109    7.1254448    2.5000484 *
  21 HYDR    0.0000000    9.1800468    2.5000484 *  9.5143839  
  22 HYDR    9.1800468    0.0000000    9.5143839    2.5000484 *
  23 HYDR    2.5000484 *  9.5143839    0.0000000    9.1800468  
  24 HYDR    9.5143839    2.5000484 *  9.1800468    0.0000000  

  * ... LESS THAN  3.000


     ATOMIC BASIS SET
     ----------------
 THE CONTRACTED PRIMITIVE FUNCTIONS HAVE BEEN UNNORMALIZED
 THE CONTRACTED BASIS FUNCTIONS ARE NOW NORMALIZED TO UNITY

  SHELL TYPE  PRIMITIVE        EXPONENT          CONTRACTION COEFFICIENT(S)

 CARBON    

      4   S       1             0.1785850    0.007549626303
      4   S       2             0.6266350   -0.019326519507
      4   S       3             2.1987932    0.262460311094
      4   S       4             7.7153234    0.555048245198
      4   S       5            27.0722211    0.259856799093
      4   S       6            94.9934457    0.071332825225
      4   S       7           333.3215520    0.014526606305
      4   S       8          1169.5886600    0.004672293802

      5   S       9             0.1785850    0.674643301306
      5   S      10             0.6266350    0.484006637220
      5   S      11             2.1987932   -0.152816297069
      5   S      12             7.7153234   -0.176411964080
      5   S      13            27.0722211   -0.060336497327
      5   S      14            94.9934457   -0.015999863007
      5   S      15           333.3215520   -0.003066289101
      5   S      16          1169.5886600   -0.001011020100

      6   P      17             0.1580552    0.498518340695
      6   P      18             0.5993484    0.512619430686
      6   P      19             2.2727412    0.175334449893
      6   P      20             8.6182801    0.036583647578

 CARBON    

     16   S      21             0.1785850    0.007549626303
     16   S      22             0.6266350   -0.019326519507
     16   S      23             2.1987932    0.262460311094
     16   S      24             7.7153234    0.555048245198
     16   S      25            27.0722211    0.259856799093
     16   S      26            94.9934457    0.071332825225
     16   S      27           333.3215520    0.014526606305
     16   S      28          1169.5886600    0.004672293802

     17   S      29             0.1785850    0.674643301306
     17   S      30             0.6266350    0.484006637220
     17   S      31             2.1987932   -0.152816297069
     17   S      32             7.7153234   -0.176411964080
     17   S      33            27.0722211   -0.060336497327
     17   S      34            94.9934457   -0.015999863007
     17   S      35           333.3215520   -0.003066289101
     17   S      36          1169.5886600   -0.001011020100

     18   P      37             0.1580552    0.498518340695
     18   P      38             0.5993484    0.512619430686
     18   P      39             2.2727412    0.175334449893
     18   P      40             8.6182801    0.036583647578

 CARBON    

     28   S      41             0.1785850    0.007549626303
     28   S      42             0.6266350   -0.019326519507
     28   S      43             2.1987932    0.262460311094
     28   S      44             7.7153234    0.555048245198
     28   S      45            27.0722211    0.259856799093
     28   S      46            94.9934457    0.071332825225
     28   S      47           333.3215520    0.014526606305
     28   S      48          1169.5886600    0.004672293802

     29   S      49             0.1785850    0.674643301306
     29   S      50             0.6266350    0.484006637220
     29   S      51             2.1987932   -0.152816297069
     29   S      52             7.7153234   -0.176411964080
     29   S      53            27.0722211   -0.060336497327
     29   S      54            94.9934457   -0.015999863007
     29   S      55           333.3215520   -0.003066289101
     29   S      56          1169.5886600   -0.001011020100

     30   P      57             0.1580552    0.498518340695
     30   P      58             0.5993484    0.512619430686
     30   P      59             2.2727412    0.175334449893
     30   P      60             8.6182801    0.036583647578

 CARBON    

     40   S      61             0.1785850    0.007549626303
     40   S      62             0.6266350   -0.019326519507
     40   S      63             2.1987932    0.262460311094
     40   S      64             7.7153234    0.555048245198
     40   S      65            27.0722211    0.259856799093
     40   S      66            94.9934457    0.071332825225
     40   S      67           333.3215520    0.014526606305
     40   S      68          1169.5886600    0.004672293802

     41   S      69             0.1785850    0.674643301306
     41   S      70             0.6266350    0.484006637220
     41   S      71             2.1987932   -0.152816297069
     41   S      72             7.7153234   -0.176411964080
     41   S      73            27.0722211   -0.060336497327
     41   S      74            94.9934457   -0.015999863007
     41   S      75           333.3215520   -0.003066289101
     41   S      76          1169.5886600   -0.001011020100

     42   P      77             0.1580552    0.498518340695
     42   P      78             0.5993484    0.512619430686
     42   P      79             2.2727412    0.175334449893
     42   P      80             8.6182801    0.036583647578

 HYDROGEN  

     44   S      81             0.1630160    0.707913387039
     44   S      82             0.7956357    0.346004717019
     44   S      83             3.8832750    0.069150693304

 HYDROGEN  

     48   S      84             0.1630160    0.707913387039
     48   S      85             0.7956357    0.346004717019
     48   S      86             3.8832750    0.069150693304

 HYDROGEN  

     52   S      87             0.1630160    0.707913387039
     52   S      88             0.7956357    0.346004717019
     52   S      89             3.8832750    0.069150693304

 TOTAL NUMBER OF BASIS SET SHELLS             =   52
 NUMBER OF CARTESIAN GAUSSIAN BASIS FUNCTIONS =   80
 NUMBER OF ELECTRONS                          =   94
 CHARGE OF MOLECULE                           =    0
 SPIN MULTIPLICITY                            =    1
 NUMBER OF OCCUPIED ORBITALS (ALPHA)          =   47
 NUMBER OF OCCUPIED ORBITALS (BETA )          =   47
 TOTAL NUMBER OF ATOMS                        =   24
 THE NUCLEAR REPULSION ENERGY IS      771.0958872700

     $CONTRL OPTIONS
     ---------------
 SCFTYP=RHF          RUNTYP=ENERGY       EXETYP=RUN     
 MPLEVL=       0     CITYP =NONE         CCTYP =NONE         VBTYP =NONE    
 DFTTYP=NONE         TDDFT =NONE    
 MULT  =       1     ICHARG=       0     NZVAR =       0     COORD =UNIQUE  
 PP    =NONE         RELWFN=NONE         LOCAL =RUEDNBRG     NUMGRD=       F
 ISPHER=      -1     NOSYM =       0     MAXIT =      30     UNITS =BOHR    
 PLTORB=       F     MOLPLT=       F     AIMPAC=       F     FRIEND=        
 NPRINT=       7     IREST =       0     GEOM  =INPUT   
 NORMF =       0     NORMP =       0     ITOL  =      20     ICUT  =       9
 INTTYP=BEST         GRDTYP=BEST         QMTTOL= 1.0E-06

     $SYSTEM OPTIONS
     ---------------
  REPLICATED MEMORY=     1000000 WORDS (ON EVERY NODE).
 DISTRIBUTED MEMDDI=           6 MILLION WORDS IN AGGREGATE,
 MEMDDI DISTRIBUTED OVER   1 PROCESSORS IS     6000000 WORDS/PROCESSOR.
 TOTAL MEMORY REQUESTED ON EACH PROCESSOR=     7000000 WORDS.
 TIMLIM=      525600.00 MINUTES, OR     365.0 DAYS.
 PARALL= T  BALTYP=  DLB     KDIAG=    0  COREFL= F
 MXSEQ2=     300 MXSEQ3=     150  mem10=         0

          ----------------
          PROPERTIES INPUT
          ----------------

     MOMENTS            FIELD           POTENTIAL          DENSITY
 IEMOM =       1   IEFLD =       0   IEPOT =       0   IEDEN =       0
 WHERE =COMASS     WHERE =NUCLEI     WHERE =NUCLEI     WHERE =NUCLEI  
 OUTPUT=BOTH       OUTPUT=BOTH       OUTPUT=BOTH       OUTPUT=BOTH    
 IEMINT=       0   IEFINT=       0                     IEDINT=       0
                                                       MORB  =       0
          EXTRAPOLATION IN EFFECT
          SOSCF IN EFFECT
 ORBITAL PRINTING OPTION: NPREO=     1    80     2     1

     -------------------------------
     INTEGRAL TRANSFORMATION OPTIONS
     -------------------------------
     NWORD  =            0
     CUTOFF = 1.0E-09     MPTRAN =       0
     DIRTRF =       T     AOINTS =DUP     

          -----------------------------
          LOCALIZATION INPUT PARAMETERS
          -----------------------------
           LOCAL=RUEDNBRG      NOUTA=       0
          PRTLOC=       T      NOUTB=       0
          MAXLOC=     250     CVGLOC=1.00E-06
           FCORE=       F     SYMLOC=       F
          MOIDON=       F     EDCOMP=       F
          DIPDCM=       F      NPROT=       0
          QADDCM=       F     DEPRNT=       F
          POLNUM=       F     ORIENT=       F
          POLDYN=       F      VMTOL=1.50E-01
          NPRDTL=       2

          ----------------------
          INTEGRAL INPUT OPTIONS
          ----------------------
 NOPK  =       1 NORDER=       0 SCHWRZ=       T

     ------------------------------------------
     THE POINT GROUP IS DNH, NAXIS= 2, ORDER= 8
     ------------------------------------------

     DIMENSIONS OF THE SYMMETRY SUBSPACES ARE
 AG  =   18     AU  =    3     B3U =   15     B3G =    4     B1G =   15
 B1U =    4     B2U =   18     B2G =    3

 ..... DONE SETTING UP THE RUN .....
 CPU     0: STEP CPU TIME=     0.02 TOTAL CPU TIME=        0.0 (    0.0 MIN)
 TOTAL WALL CLOCK TIME=        0.0 SECONDS, CPU UTILIZATION IS  66.67%

          ********************
          1 ELECTRON INTEGRALS
          ********************
 ...... END OF ONE-ELECTRON INTEGRALS ......
 CPU     0: STEP CPU TIME=     0.05 TOTAL CPU TIME=        0.1 (    0.0 MIN)
 TOTAL WALL CLOCK TIME=        0.1 SECONDS, CPU UTILIZATION IS 100.00%

          -------------
          GUESS OPTIONS
          -------------
          GUESS =HUCKEL            NORB  =       0          NORDER=       0
          MIX   =       F          PRTMO =       F          PUNMO =       F
          TOLZ  = 1.0E-08          TOLE  = 1.0E-05
          SYMDEN=       F          PURIFY=       F

 INITIAL GUESS ORBITALS GENERATED BY HUCKEL   ROUTINE.
 HUCKEL GUESS REQUIRES     87672 WORDS.

 SYMMETRIES FOR INITIAL GUESS ORBITALS FOLLOW.   BOTH SET(S).
    47 ORBITALS ARE OCCUPIED (   14 CORE ORBITALS).
    15=AG      16=B3U     17=AG      18=B2U     19=B1G     20=B3U     21=B2U 
    22=AG      23=AG      24=B1G     25=B3U     26=B3U     27=AG      28=B2U 
    29=B1U     30=B2G     31=B1G     32=B2U     33=AG      34=B3U     35=B2U 
    36=B1G     37=B1U     38=B3G     39=AG      40=B3U     41=AU      42=B2U 
    43=B2G     44=B3U     45=AG      46=B3G     47=B1G     48=B1U     49=B2G 
    50=AU      51=B1U     52=B3G     53=AG      54=AG      55=AG      56=AG  
    57=AG  
 ...... END OF INITIAL ORBITAL SELECTION ......
 CPU     0: STEP CPU TIME=     0.03 TOTAL CPU TIME=        0.1 (    0.0 MIN)
 TOTAL WALL CLOCK TIME=        0.1 SECONDS, CPU UTILIZATION IS 100.00%

                    ----------------------
                    AO INTEGRAL TECHNOLOGY
                    ----------------------
     S,P,L SHELL ROTATED AXIS INTEGRALS, REPROGRAMMED BY
        KAZUYA ISHIMURA (IMS) AND JOSE SIERRA (SYNSTAR).
     S,P,D,L SHELL ROTATED AXIS INTEGRALS PROGRAMMED BY
        KAZUYA ISHIMURA (INSTITUTE FOR MOLECULAR SCIENCE).
     S,P,D,F,G SHELL TO TOTAL QUARTET ANGULAR MOMENTUM SUM 5,
        ERIC PROGRAM BY GRAHAM FLETCHER (ELORET AND NASA ADVANCED
        SUPERCOMPUTING DIVISION, AMES RESEARCH CENTER).
     S,P,D,F,G,L SHELL GENERAL RYS QUADRATURE PROGRAMMED BY
        MICHEL DUPUIS (PACIFIC NORTHWEST NATIONAL LABORATORY).

          --------------------
          2 ELECTRON INTEGRALS
          --------------------

 DIRECT SCF METHOD SKIPS INTEGRAL STORAGE ON DISK.
 DIRECT TRANSFORMATION SKIPS AO INTEGRAL STORAGE ON DISK.
  ...... END OF TWO-ELECTRON INTEGRALS .....
 CPU     0: STEP CPU TIME=     0.02 TOTAL CPU TIME=        0.1 (    0.0 MIN)
 TOTAL WALL CLOCK TIME=        0.1 SECONDS, CPU UTILIZATION IS 100.00%

          --------------------------
                 RHF SCF CALCULATION
          --------------------------

     NUCLEAR ENERGY =       771.0958872700
     MAXIT =   30     NPUNCH=    2
     EXTRAP=T  DAMP=F  SHIFT=F  RSTRCT=F  DIIS=F  DEM=F  SOSCF=T
     DENSITY MATRIX CONV=  2.00E-05
     SOSCF WILL OPTIMIZE    1551 ORBITAL ROTATIONS, SOGTOL=   0.250
     MEMORY REQUIRED FOR RHF ITERS=     99236 WORDS.

 DIRECT SCF CALCULATION, SCHWRZ=T   FDIFF=T,  DIRTHR=  0.00E+00 NITDIR=10
 SCHWARZ INEQUALITY OVERHEAD:      3240 INTEGRALS, T=        0.01

                                                                                   NONZERO     BLOCKS
 ITER EX DEM     TOTAL ENERGY        E CHANGE  DENSITY CHANGE     ORB. GRAD      INTEGRALS    SKIPPED
   1  0  0     -534.1795262042  -534.1795262042   0.231599860   0.000000000         675927      40956
          ---------------START SECOND ORDER SCF---------------
   2  1  0     -534.6329630574    -0.4534368531   0.057388739   0.018091011         667155      47116
   3  2  0     -534.6426970458    -0.0097339884   0.022828354   0.006682592         644317      59718
   4  3  0     -534.6437516695    -0.0010546237   0.003256088   0.002083409         631090      66271
   5  4  0     -534.6438082207    -0.0000565512   0.001915873   0.000732758         601344      79542
   6  5  0     -534.6438194198    -0.0000111992   0.001065355   0.000296811         580089      87864
   7  6  0     -534.6438211081    -0.0000016883   0.000164233   0.000055878         554216      98490
   8  7  0     -534.6438211748    -0.0000000667   0.000010835   0.000005772         525956     105685
   9  8  0     -534.6438211765    -0.0000000017   0.000004017   0.000001061         460928     125863

          -----------------
          DENSITY CONVERGED
          -----------------
     TIME TO FORM FOCK OPERATORS=      15.3 SECONDS (       1.7 SEC/ITER)
     FOCK TIME ON FIRST ITERATION=       1.9, LAST ITERATION=       1.4
     TIME TO SOLVE SCF EQUATIONS=       0.0 SECONDS (       0.0 SEC/ITER)

 FINAL RHF ENERGY IS     -534.6438211765 AFTER   9 ITERATIONS

          ------------
          EIGENVECTORS
          ------------

                      1          2          3          4          5
                  -11.4508   -11.4508   -11.4499   -11.4498   -11.4338
                     B3U        AG         B2U        B1G        B3U 
    1  C  1  S    0.000000   0.022395   0.025239   0.000000   0.000000
    2  C  1  S    0.000000  -0.000166  -0.000000   0.000000   0.000000
    3  C  1  X   -0.000942  -0.000000   0.000000  -0.000765   0.000206
    4  C  1  Y    0.000000   0.000095   0.001306   0.000000   0.000000
    5  C  1  Z    0.000000  -0.000000   0.000000   0.000000   0.000000
    6  C  2  S    0.000000   0.022395  -0.025239   0.000000   0.000000
    7  C  2  S    0.000000  -0.000166   0.000000   0.000000   0.000000
    8  C  2  X   -0.000942  -0.000000   0.000000   0.000765   0.000206
    9  C  2  Y    0.000000  -0.000095   0.001306   0.000000   0.000000
   10  C  2  Z    0.000000  -0.000000   0.000000   0.000000   0.000000
   11  C  3  S    0.499555   0.499360   0.499475   0.499880  -0.001726
   12  C  3  S    0.000339   0.000409   0.000359   0.000739   0.000035
   13  C  3  X    0.000307  -0.000350  -0.000220   0.000157   0.000275
   14  C  3  Y    0.000848   0.000390  -0.000714  -0.000402  -0.000326
   15  C  3  Z    0.000000  -0.000000   0.000000   0.000000   0.000000
   16  C  4  S   -0.499555   0.499360   0.499475  -0.499880   0.001726
   17  C  4  S   -0.000339   0.000409   0.000359  -0.000739  -0.000035
   18  C  4  X    0.000307   0.000350   0.000220   0.000157   0.000275
   19  C  4  Y   -0.000848   0.000390  -0.000714   0.000402   0.000326
   20  C  4  Z    0.000000  -0.000000   0.000000   0.000000   0.000000
   21  C  5  S    0.499555   0.499360  -0.499475  -0.499880  -0.001726
   22  C  5  S    0.000339   0.000409  -0.000359  -0.000739   0.000035
   23  C  5  X    0.000307  -0.000350   0.000220  -0.000157   0.000275
   24  C  5  Y   -0.000848  -0.000390  -0.000714  -0.000402   0.000326
   25  C  5  Z    0.000000  -0.000000   0.000000   0.000000   0.000000
   26  C  6  S   -0.499555   0.499360  -0.499475   0.499880   0.001726
   27  C  6  S   -0.000339   0.000409  -0.000359   0.000739  -0.000035
   28  C  6  X    0.000307   0.000350  -0.000220  -0.000157   0.000275
   29  C  6  Y    0.000848  -0.000390  -0.000714   0.000402  -0.000326
   30  C  6  Z    0.000000  -0.000000   0.000000   0.000000   0.000000
   31  C  7  S    0.011532   0.011974   0.013532   0.013352   0.110904
   32  C  7  S    0.000020  -0.000254  -0.000084   0.000010   0.000030
   33  C  7  X    0.000490   0.000429   0.000398   0.000333  -0.000451
   34  C  7  Y    0.000095  -0.000037   0.000605   0.000675  -0.000018
   35  C  7  Z    0.000000  -0.000000   0.000000   0.000000   0.000000
   36  C  8  S   -0.011532   0.011974   0.013532  -0.013352  -0.110904
   37  C  8  S   -0.000020  -0.000254  -0.000084  -0.000010  -0.000030
   38  C  8  X    0.000490  -0.000429  -0.000398   0.000333  -0.000451
   39  C  8  Y   -0.000095  -0.000037   0.000605  -0.000675   0.000018
   40  C  8  Z    0.000000  -0.000000   0.000000   0.000000   0.000000
   41  C  9  S    0.011532   0.011974  -0.013532  -0.013352   0.110904
   42  C  9  S    0.000020  -0.000254   0.000084  -0.000010   0.000030
   43  C  9  X    0.000490   0.000429  -0.000398  -0.000333  -0.000451
   44  C  9  Y   -0.000095   0.000037   0.000605   0.000675   0.000018
   45  C  9  Z    0.000000  -0.000000   0.000000   0.000000   0.000000
   46  C 10  S   -0.011532   0.011974  -0.013532   0.013352  -0.110904
   47  C 10  S   -0.000020  -0.000254   0.000084   0.000010  -0.000030
   48  C 10  X    0.000490  -0.000429   0.000398  -0.000333  -0.000451
   49  C 10  Y    0.000095   0.000037   0.000605  -0.000675  -0.000018
   50  C 10  Z    0.000000  -0.000000   0.000000   0.000000   0.000000
   51  C 11  S   -0.000831  -0.000893   0.000635   0.000749   0.487273
   52  C 11  S    0.000021   0.000039  -0.000171  -0.000210   0.000533
   53  C 11  X   -0.000312  -0.000305  -0.000167  -0.000191   0.000120
   54  C 11  Y   -0.000236  -0.000239  -0.000176  -0.000171   0.000466
   55  C 11  Z    0.000000  -0.000000   0.000000   0.000000   0.000000
   56  C 12  S    0.000831  -0.000893   0.000635  -0.000749  -0.487273
   57  C 12  S   -0.000021   0.000039  -0.000171   0.000210  -0.000533
   58  C 12  X   -0.000312   0.000305   0.000167  -0.000191   0.000120
   59  C 12  Y    0.000236  -0.000239  -0.000176   0.000171  -0.000466
   60  C 12  Z    0.000000  -0.000000   0.000000   0.000000   0.000000
   61  C 13  S   -0.000831  -0.000893  -0.000635  -0.000749   0.487273
   62  C 13  S    0.000021   0.000039   0.000171   0.000210   0.000533
   63  C 13  X   -0.000312  -0.000305   0.000167   0.000191   0.000120
   64  C 13  Y    0.000236   0.000239  -0.000176  -0.000171  -0.000466
   65  C 13  Z    0.000000  -0.000000   0.000000   0.000000   0.000000
   66  C 14  S    0.000831  -0.000893  -0.000635   0.000749  -0.487273
   67  C 14  S   -0.000021   0.000039   0.000171  -0.000210  -0.000533
   68  C 14  X   -0.000312   0.000305  -0.000167   0.000191   0.000120
   69  C 14  Y   -0.000236   0.000239  -0.000176   0.000171   0.000466
   70  C 14  Z    0.000000  -0.000000   0.000000   0.000000   0.000000
   71  H 15  S    0.000000  -0.000340  -0.000037   0.000000   0.000000
   72  H 16  S    0.000000  -0.000340   0.000037   0.000000   0.000000
   73  H 17  S   -0.000185  -0.000151   0.000018  -0.000046  -0.000220
   74  H 18  S    0.000185  -0.000151   0.000018   0.000046   0.000220
   75  H 19  S   -0.000185  -0.000151  -0.000018   0.000046  -0.000220
   76  H 20  S    0.000185  -0.000151  -0.000018  -0.000046   0.000220
   77  H 21  S   -0.000123  -0.000129  -0.000016  -0.000017  -0.000353
   78  H 22  S    0.000123  -0.000129  -0.000016   0.000017   0.000353
   79  H 23  S   -0.000123  -0.000129   0.000016   0.000017  -0.000353
   80  H 24  S    0.000123  -0.000129   0.000016  -0.000017   0.000353

                      6          7          8          9         10
                  -11.4338   -11.4329   -11.4329   -11.4314   -11.4314
                     AG         B2U        B1G        B3U        AG  
    1  C  1  S    0.000928  -0.003877   0.000000   0.000000  -0.013335
    2  C  1  S   -0.000313  -0.000051   0.000000   0.000000  -0.000161
    3  C  1  X   -0.000000   0.000000   0.000119   0.000677   0.000000
    4  C  1  Y   -0.000058   0.000036   0.000000   0.000000   0.000376
    5  C  1  Z   -0.000000   0.000000   0.000000   0.000000   0.000000
    6  C  2  S    0.000928   0.003877   0.000000   0.000000  -0.013335
    7  C  2  S   -0.000313   0.000051   0.000000   0.000000  -0.000161
    8  C  2  X   -0.000000   0.000000  -0.000119   0.000677   0.000000
    9  C  2  Y    0.000058   0.000036   0.000000   0.000000  -0.000376
   10  C  2  Z   -0.000000   0.000000   0.000000   0.000000   0.000000
   11  C  3  S   -0.001799  -0.005819  -0.005946  -0.011651  -0.011912
   12  C  3  S    0.000005  -0.000215  -0.000201  -0.000036  -0.000266
   13  C  3  X    0.000283  -0.000105  -0.000093  -0.000265  -0.000264
   14  C  3  Y   -0.000304  -0.000183  -0.000209  -0.000446  -0.000299
   15  C  3  Z   -0.000000   0.000000   0.000000   0.000000   0.000000
   16  C  4  S   -0.001799  -0.005819   0.005946   0.011651  -0.011912
   17  C  4  S    0.000005  -0.000215   0.000201   0.000036  -0.000266
   18  C  4  X   -0.000283   0.000105  -0.000093  -0.000265   0.000264
   19  C  4  Y   -0.000304  -0.000183   0.000209   0.000446  -0.000299
   20  C  4  Z   -0.000000   0.000000   0.000000   0.000000   0.000000
   21  C  5  S   -0.001799   0.005819   0.005946  -0.011651  -0.011912
   22  C  5  S    0.000005   0.000215   0.000201  -0.000036  -0.000266
   23  C  5  X    0.000283   0.000105   0.000093  -0.000265  -0.000264
   24  C  5  Y    0.000304  -0.000183  -0.000209   0.000446   0.000299
   25  C  5  Z   -0.000000   0.000000   0.000000   0.000000   0.000000
   26  C  6  S   -0.001799   0.005819  -0.005946   0.011651  -0.011912
   27  C  6  S    0.000005   0.000215  -0.000201   0.000036  -0.000266
   28  C  6  X   -0.000283  -0.000105   0.000093  -0.000265   0.000264
   29  C  6  Y    0.000304  -0.000183   0.000209  -0.000446   0.000299
   30  C  6  Z   -0.000000   0.000000   0.000000   0.000000   0.000000
   31  C  7  S    0.110756   0.189478   0.189449   0.487386   0.487338
   32  C  7  S    0.000037   0.000225   0.000224   0.000814   0.000847
   33  C  7  X   -0.000455  -0.000339  -0.000338   0.000129   0.000163
   34  C  7  Y   -0.000013   0.000615   0.000615  -0.000022  -0.000016
   35  C  7  Z   -0.000000   0.000000   0.000000   0.000000   0.000000
   36  C  8  S    0.110756   0.189478  -0.189449  -0.487386   0.487338
   37  C  8  S    0.000037   0.000225  -0.000224  -0.000814   0.000847
   38  C  8  X    0.000455   0.000339  -0.000338   0.000129  -0.000163
   39  C  8  Y   -0.000013   0.000615  -0.000615   0.000022  -0.000016
   40  C  8  Z   -0.000000   0.000000   0.000000   0.000000   0.000000
   41  C  9  S    0.110756  -0.189478  -0.189449   0.487386   0.487338
   42  C  9  S    0.000037  -0.000225  -0.000224   0.000814   0.000847
   43  C  9  X   -0.000455   0.000339   0.000338   0.000129   0.000163
   44  C  9  Y    0.000013   0.000615   0.000615   0.000022   0.000016
   45  C  9  Z   -0.000000   0.000000   0.000000   0.000000   0.000000
   46  C 10  S    0.110756  -0.189478   0.189449  -0.487386   0.487338
   47  C 10  S    0.000037  -0.000225   0.000224  -0.000814   0.000847
   48  C 10  X    0.000455  -0.000339   0.000338   0.000129  -0.000163
   49  C 10  Y    0.000013   0.000615  -0.000615  -0.000022   0.000016
   50  C 10  Z   -0.000000   0.000000   0.000000   0.000000   0.000000
   51  C 11  S    0.487306   0.462635   0.462654  -0.111158  -0.110976
   52  C 11  S    0.000530   0.000800   0.000800  -0.000280  -0.000272
   53  C 11  X    0.000118   0.000262   0.000262   0.000162   0.000161
   54  C 11  Y    0.000466  -0.000418  -0.000418  -0.000445  -0.000451
   55  C 11  Z   -0.000000   0.000000   0.000000   0.000000   0.000000
   56  C 12  S    0.487306   0.462635  -0.462654   0.111158  -0.110976
   57  C 12  S    0.000530   0.000800  -0.000800   0.000280  -0.000272
   58  C 12  X   -0.000118  -0.000262   0.000262   0.000162  -0.000161
   59  C 12  Y    0.000466  -0.000418   0.000418   0.000445  -0.000451
   60  C 12  Z   -0.000000   0.000000   0.000000   0.000000   0.000000
   61  C 13  S    0.487306  -0.462635  -0.462654  -0.111158  -0.110976
   62  C 13  S    0.000530  -0.000800  -0.000800  -0.000280  -0.000272
   63  C 13  X    0.000118  -0.000262  -0.000262   0.000162   0.000161
   64  C 13  Y   -0.000466  -0.000418  -0.000418   0.000445   0.000451
   65  C 13  Z   -0.000000   0.000000   0.000000   0.000000   0.000000
   66  C 14  S    0.487306  -0.462635   0.462654   0.111158  -0.110976
   67  C 14  S    0.000530  -0.000800   0.000800   0.000280  -0.000272
   68  C 14  X   -0.000118   0.000262  -0.000262   0.000162  -0.000161
   69  C 14  Y   -0.000466  -0.000418   0.000418  -0.000445   0.000451
   70  C 14  Z   -0.000000   0.000000   0.000000   0.000000   0.000000
   71  H 15  S    0.000016   0.000026   0.000000   0.000000  -0.000074
   72  H 16  S    0.000016  -0.000026   0.000000   0.000000  -0.000074
   73  H 17  S   -0.000226  -0.000088  -0.000086  -0.000220  -0.000213
   74  H 18  S   -0.000226  -0.000088   0.000086   0.000220  -0.000213
   75  H 19  S   -0.000226   0.000088   0.000086  -0.000220  -0.000213
   76  H 20  S   -0.000226   0.000088  -0.000086   0.000220  -0.000213
   77  H 21  S   -0.000353  -0.000134  -0.000134  -0.000086  -0.000087
   78  H 22  S   -0.000353  -0.000134   0.000134   0.000086  -0.000087
   79  H 23  S   -0.000353   0.000134   0.000134  -0.000086  -0.000087
   80  H 24  S   -0.000353   0.000134  -0.000134   0.000086  -0.000087

                     11         12         13         14         15
                  -11.4314   -11.4314   -11.4296   -11.4296    -1.2796
                     B2U        B1G        B2U        AG         AG  
    1  C  1  S   -0.023165  -0.000000   0.706131   0.706585  -0.027011
    2  C  1  S    0.000118  -0.000000   0.000851   0.001116   0.178288
    3  C  1  X    0.000000   0.000487  -0.000000   0.000000   0.000000
    4  C  1  Y    0.000293  -0.000000   0.000115  -0.000050   0.044215
    5  C  1  Z    0.000000  -0.000000  -0.000000   0.000000   0.000000
    6  C  2  S    0.023165  -0.000000  -0.706131   0.706585  -0.027011
    7  C  2  S   -0.000118  -0.000000  -0.000851   0.001116   0.178288
    8  C  2  X    0.000000  -0.000487  -0.000000   0.000000   0.000000
    9  C  2  Y    0.000293  -0.000000   0.000115   0.000050  -0.044215
   10  C  2  Z    0.000000  -0.000000  -0.000000   0.000000   0.000000
   11  C  3  S   -0.011988  -0.012320  -0.018729  -0.016426  -0.035845
   12  C  3  S   -0.000081   0.000065  -0.000070  -0.000156   0.223950
   13  C  3  X   -0.000860  -0.000741   0.001082   0.000304   0.008810
   14  C  3  Y   -0.000035  -0.000122  -0.000231  -0.000637   0.017229
   15  C  3  Z    0.000000  -0.000000  -0.000000   0.000000   0.000000
   16  C  4  S   -0.011988   0.012320  -0.018729  -0.016426  -0.035845
   17  C  4  S   -0.000081  -0.000065  -0.000070  -0.000156   0.223950
   18  C  4  X    0.000860  -0.000741  -0.001082  -0.000304  -0.008810
   19  C  4  Y   -0.000035   0.000122  -0.000231  -0.000637   0.017229
   20  C  4  Z    0.000000  -0.000000  -0.000000   0.000000   0.000000
   21  C  5  S    0.011988   0.012320   0.018729  -0.016426  -0.035845
   22  C  5  S    0.000081  -0.000065   0.000070  -0.000156   0.223950
   23  C  5  X    0.000860   0.000741  -0.001082   0.000304   0.008810
   24  C  5  Y   -0.000035  -0.000122  -0.000231   0.000637  -0.017229
   25  C  5  Z    0.000000  -0.000000  -0.000000   0.000000   0.000000
   26  C  6  S    0.011988  -0.012320   0.018729  -0.016426  -0.035845
   27  C  6  S    0.000081   0.000065   0.000070  -0.000156   0.223950
   28  C  6  X   -0.000860   0.000741   0.001082  -0.000304  -0.008810
   29  C  6  Y   -0.000035   0.000122  -0.000231   0.000637  -0.017229
   30  C  6  Z    0.000000  -0.000000  -0.000000   0.000000   0.000000
   31  C  7  S    0.462139   0.462430   0.015815   0.008658  -0.018375
   32  C  7  S    0.000547   0.000565   0.000102  -0.000127   0.121035
   33  C  7  X    0.000203   0.000190  -0.000347  -0.000496   0.018862
   34  C  7  Y   -0.000153  -0.000144   0.000205   0.000254   0.030063
   35  C  7  Z    0.000000  -0.000000  -0.000000   0.000000   0.000000
   36  C  8  S    0.462139  -0.462430   0.015815   0.008658  -0.018375
   37  C  8  S    0.000547  -0.000565   0.000102  -0.000127   0.121035
   38  C  8  X   -0.000203   0.000190   0.000347   0.000496  -0.018862
   39  C  8  Y   -0.000153   0.000144   0.000205   0.000254   0.030063
   40  C  8  Z    0.000000  -0.000000  -0.000000   0.000000   0.000000
   41  C  9  S   -0.462139  -0.462430  -0.015815   0.008658  -0.018375
   42  C  9  S   -0.000547  -0.000565  -0.000102  -0.000127   0.121035
   43  C  9  X   -0.000203  -0.000190   0.000347  -0.000496   0.018862
   44  C  9  Y   -0.000153  -0.000144   0.000205  -0.000254  -0.030063
   45  C  9  Z    0.000000  -0.000000  -0.000000   0.000000   0.000000
   46  C 10  S   -0.462139   0.462430  -0.015815   0.008658  -0.018375
   47  C 10  S   -0.000547   0.000565  -0.000102  -0.000127   0.121035
   48  C 10  X    0.000203  -0.000190  -0.000347   0.000496  -0.018862
   49  C 10  Y   -0.000153   0.000144   0.000205  -0.000254  -0.030063
   50  C 10  Z    0.000000  -0.000000  -0.000000   0.000000   0.000000
   51  C 11  S   -0.189909  -0.189901  -0.003756  -0.002788  -0.013006
   52  C 11  S   -0.000324  -0.000331  -0.000109  -0.000166   0.084995
   53  C 11  X    0.000743   0.000739  -0.000030   0.000006   0.020776
   54  C 11  Y    0.000069   0.000072   0.000058   0.000086   0.006893
   55  C 11  Z    0.000000  -0.000000  -0.000000   0.000000   0.000000
   56  C 12  S   -0.189909   0.189901  -0.003756  -0.002788  -0.013006
   57  C 12  S   -0.000324   0.000331  -0.000109  -0.000166   0.084995
   58  C 12  X   -0.000743   0.000739   0.000030  -0.000006  -0.020776
   59  C 12  Y    0.000069  -0.000072   0.000058   0.000086   0.006893
   60  C 12  Z    0.000000  -0.000000  -0.000000   0.000000   0.000000
   61  C 13  S    0.189909   0.189901   0.003756  -0.002788  -0.013006
   62  C 13  S    0.000324   0.000331   0.000109  -0.000166   0.084995
   63  C 13  X   -0.000743  -0.000739   0.000030   0.000006   0.020776
   64  C 13  Y    0.000069   0.000072   0.000058  -0.000086  -0.006893
   65  C 13  Z    0.000000  -0.000000  -0.000000   0.000000   0.000000
   66  C 14  S    0.189909  -0.189901   0.003756  -0.002788  -0.013006
   67  C 14  S    0.000324  -0.000331   0.000109  -0.000166   0.084995
   68  C 14  X    0.000743  -0.000739  -0.000030  -0.000006  -0.020776
   69  C 14  Y    0.000069  -0.000072   0.000058  -0.000086  -0.006893
   70  C 14  Z    0.000000  -0.000000  -0.000000   0.000000   0.000000
   71  H 15  S   -0.000112  -0.000000  -0.000210  -0.000346   0.018542
   72  H 16  S    0.000112  -0.000000   0.000210  -0.000346   0.018542
   73  H 17  S   -0.000128  -0.000139  -0.000076  -0.000057   0.012916
   74  H 18  S   -0.000128   0.000139  -0.000076  -0.000057   0.012916
   75  H 19  S    0.000128   0.000139   0.000076  -0.000057   0.012916
   76  H 20  S    0.000128  -0.000139   0.000076  -0.000057   0.012916
   77  H 21  S    0.000028   0.000028  -0.000006   0.000024   0.009082
   78  H 22  S    0.000028  -0.000028  -0.000006   0.000024   0.009082
   79  H 23  S   -0.000028  -0.000028   0.000006   0.000024   0.009082
   80  H 24  S   -0.000028   0.000028   0.000006   0.000024   0.009082

                     16         17         18         19         20
                   -1.2334    -1.1620    -1.1482    -1.1006    -1.0963
                     B3U        AG         B2U        B1G        B3U 
    1  C  1  S   -0.000000   0.021591  -0.033268  -0.000000  -0.000000
    2  C  1  S   -0.000000  -0.155155   0.263167  -0.000000  -0.000000
    3  C  1  X   -0.052058   0.000000  -0.000000  -0.065780   0.094545
    4  C  1  Y   -0.000000  -0.035889   0.047612  -0.000000  -0.000000
    5  C  1  Z   -0.000000   0.000000  -0.000000  -0.000000  -0.000000
    6  C  2  S   -0.000000   0.021591   0.033268  -0.000000  -0.000000
    7  C  2  S   -0.000000  -0.155155  -0.263167  -0.000000  -0.000000
    8  C  2  X   -0.052058   0.000000  -0.000000   0.065780   0.094545
    9  C  2  Y   -0.000000   0.035889   0.047612  -0.000000  -0.000000
   10  C  2  Z   -0.000000   0.000000  -0.000000  -0.000000  -0.000000
   11  C  3  S   -0.027580   0.012775  -0.024759  -0.018673   0.028299
   12  C  3  S    0.180049  -0.092236   0.184320   0.144652  -0.226104
   13  C  3  X   -0.032682  -0.064298   0.016315  -0.056562  -0.002070
   14  C  3  Y    0.021301  -0.017418  -0.091230  -0.071900  -0.060059
   15  C  3  Z   -0.000000   0.000000  -0.000000  -0.000000  -0.000000
   16  C  4  S    0.027580   0.012775  -0.024759   0.018673  -0.028299
   17  C  4  S   -0.180049  -0.092236   0.184320  -0.144652   0.226104
   18  C  4  X   -0.032682   0.064298  -0.016315  -0.056562  -0.002070
   19  C  4  Y   -0.021301  -0.017418  -0.091230   0.071900   0.060059
   20  C  4  Z   -0.000000   0.000000  -0.000000  -0.000000  -0.000000
   21  C  5  S   -0.027580   0.012775   0.024759   0.018673   0.028299
   22  C  5  S    0.180049  -0.092236  -0.184320  -0.144652  -0.226104
   23  C  5  X   -0.032682  -0.064298  -0.016315   0.056562  -0.002070
   24  C  5  Y   -0.021301   0.017418  -0.091230  -0.071900   0.060059
   25  C  5  Z   -0.000000   0.000000  -0.000000  -0.000000  -0.000000
   26  C  6  S    0.027580   0.012775   0.024759  -0.018673  -0.028299
   27  C  6  S   -0.180049  -0.092236  -0.184320   0.144652   0.226104
   28  C  6  X   -0.032682   0.064298   0.016315   0.056562  -0.002070
   29  C  6  Y    0.021301   0.017418  -0.091230   0.071900  -0.060059
   30  C  6  Z   -0.000000   0.000000  -0.000000  -0.000000  -0.000000
   31  C  7  S   -0.025008  -0.016149  -0.021723  -0.030759  -0.000967
   32  C  7  S    0.171412   0.117750   0.174020   0.260052   0.008197
   33  C  7  X    0.003532  -0.056266   0.025953   0.008626  -0.095795
   34  C  7  Y    0.041842   0.027099   0.031797   0.044356   0.001251
   35  C  7  Z   -0.000000   0.000000  -0.000000  -0.000000  -0.000000
   36  C  8  S    0.025008  -0.016149  -0.021723   0.030759   0.000967
   37  C  8  S   -0.171412   0.117750   0.174020  -0.260052  -0.008197
   38  C  8  X    0.003532   0.056266  -0.025953   0.008626  -0.095795
   39  C  8  Y   -0.041842   0.027099   0.031797  -0.044356  -0.001251
   40  C  8  Z   -0.000000   0.000000  -0.000000  -0.000000  -0.000000
   41  C  9  S   -0.025008  -0.016149   0.021723   0.030759  -0.000967
   42  C  9  S    0.171412   0.117750  -0.174020  -0.260052   0.008197
   43  C  9  X    0.003532  -0.056266  -0.025953  -0.008626  -0.095795
   44  C  9  Y   -0.041842  -0.027099   0.031797   0.044356  -0.001251
   45  C  9  Z   -0.000000   0.000000  -0.000000  -0.000000  -0.000000
   46  C 10  S    0.025008  -0.016149   0.021723  -0.030759   0.000967
   47  C 10  S   -0.171412   0.117750  -0.174020   0.260052  -0.008197
   48  C 10  X    0.003532   0.056266   0.025953  -0.008626  -0.095795
   49  C 10  Y    0.041842  -0.027099   0.031797  -0.044356   0.001251
   50  C 10  Z   -0.000000   0.000000  -0.000000  -0.000000  -0.000000
   51  C 11  S   -0.024059  -0.031601  -0.007875  -0.014164  -0.027581
   52  C 11  S    0.165128   0.241025   0.065904   0.124674   0.238468
   53  C 11  X    0.034763   0.033966   0.032972   0.057379   0.011354
   54  C 11  Y    0.020034   0.045954  -0.029731  -0.056057   0.062922
   55  C 11  Z   -0.000000   0.000000  -0.000000  -0.000000  -0.000000
   56  C 12  S    0.024059  -0.031601  -0.007875   0.014164   0.027581
   57  C 12  S   -0.165128   0.241025   0.065904  -0.124674  -0.238468
   58  C 12  X    0.034763  -0.033966  -0.032972   0.057379   0.011354
   59  C 12  Y   -0.020034   0.045954  -0.029731   0.056057  -0.062922
   60  C 12  Z   -0.000000   0.000000  -0.000000  -0.000000  -0.000000
   61  C 13  S   -0.024059  -0.031601   0.007875   0.014164  -0.027581
   62  C 13  S    0.165128   0.241025  -0.065904  -0.124674   0.238468
   63  C 13  X    0.034763   0.033966  -0.032972  -0.057379   0.011354
   64  C 13  Y   -0.020034  -0.045954  -0.029731  -0.056057  -0.062922
   65  C 13  Z   -0.000000   0.000000  -0.000000  -0.000000  -0.000000
   66  C 14  S    0.024059  -0.031601   0.007875  -0.014164   0.027581
   67  C 14  S   -0.165128   0.241025  -0.065904   0.124674  -0.238468
   68  C 14  X    0.034763  -0.033966   0.032972  -0.057379   0.011354
   69  C 14  Y    0.020034  -0.045954  -0.029731   0.056057   0.062922
   70  C 14  Z   -0.000000   0.000000  -0.000000  -0.000000  -0.000000
   71  H 15  S   -0.000000  -0.020352   0.037898  -0.000000  -0.000000
   72  H 16  S   -0.000000  -0.020352  -0.037898  -0.000000  -0.000000
   73  H 17  S    0.019448   0.016266   0.025073   0.042191   0.002512
   74  H 18  S   -0.019448   0.016266   0.025073  -0.042191  -0.002512
   75  H 19  S    0.019448   0.016266  -0.025073  -0.042191   0.002512
   76  H 20  S   -0.019448   0.016266  -0.025073   0.042191  -0.002512
   77  H 21  S    0.019297   0.033096   0.009907   0.020399   0.039003
   78  H 22  S   -0.019297   0.033096   0.009907  -0.020399  -0.039003
   79  H 23  S    0.019297   0.033096  -0.009907  -0.020399   0.039003
   80  H 24  S   -0.019297   0.033096  -0.009907   0.020399  -0.039003

                     21         22         23         24         25
                   -1.0290    -0.9622    -0.9102    -0.8916    -0.8862
                     B2U        AG         B1G        AG         B3U 
    1  C  1  S   -0.028691  -0.024240  -0.000000   0.015306  -0.000000
    2  C  1  S    0.261180   0.214991  -0.000000  -0.222834  -0.000000
    3  C  1  X    0.000000  -0.000000   0.172100   0.000000   0.075972
    4  C  1  Y    0.037314   0.022917  -0.000000   0.097820  -0.000000
    5  C  1  Z    0.000000  -0.000000  -0.000000   0.000000  -0.000000
    6  C  2  S    0.028691  -0.024240  -0.000000   0.015306  -0.000000
    7  C  2  S   -0.261180   0.214991  -0.000000  -0.222834  -0.000000
    8  C  2  X    0.000000  -0.000000  -0.172100   0.000000   0.075972
    9  C  2  Y    0.037314  -0.022917  -0.000000  -0.097820  -0.000000
   10  C  2  Z    0.000000  -0.000000  -0.000000   0.000000  -0.000000
   11  C  3  S   -0.006299   0.007254   0.018746  -0.013415   0.011624
   12  C  3  S    0.054561  -0.073922  -0.190566   0.101634  -0.126785
   13  C  3  X    0.126426   0.172588  -0.016528  -0.014605  -0.103492
   14  C  3  Y   -0.027313  -0.038028   0.100014   0.226960  -0.158266
   15  C  3  Z    0.000000  -0.000000  -0.000000   0.000000  -0.000000
   16  C  4  S   -0.006299   0.007254  -0.018746  -0.013415  -0.011624
   17  C  4  S    0.054561  -0.073922   0.190566   0.101634   0.126785
   18  C  4  X   -0.126426  -0.172588  -0.016528   0.014605  -0.103492
   19  C  4  Y   -0.027313  -0.038028  -0.100014   0.226960   0.158266
   20  C  4  Z    0.000000  -0.000000  -0.000000   0.000000  -0.000000
   21  C  5  S    0.006299   0.007254  -0.018746  -0.013415   0.011624
   22  C  5  S   -0.054561  -0.073922   0.190566   0.101634  -0.126785
   23  C  5  X   -0.126426   0.172588   0.016528  -0.014605  -0.103492
   24  C  5  Y   -0.027313   0.038028   0.100014  -0.226960   0.158266
   25  C  5  Z    0.000000  -0.000000  -0.000000   0.000000  -0.000000
   26  C  6  S    0.006299   0.007254   0.018746  -0.013415  -0.011624
   27  C  6  S   -0.054561  -0.073922  -0.190566   0.101634   0.126785
   28  C  6  X    0.126426  -0.172588   0.016528   0.014605  -0.103492
   29  C  6  Y   -0.027313   0.038028  -0.100014  -0.226960  -0.158266
   30  C  6  Z    0.000000  -0.000000  -0.000000   0.000000  -0.000000
   31  C  7  S    0.022111   0.016846  -0.002431   0.009830  -0.018669
   32  C  7  S   -0.210904  -0.153593   0.045406  -0.150264   0.237357
   33  C  7  X    0.055037  -0.082465  -0.166045  -0.000378   0.003745
   34  C  7  Y   -0.031022  -0.017378   0.004752   0.062200  -0.046687
   35  C  7  Z    0.000000  -0.000000  -0.000000   0.000000  -0.000000
   36  C  8  S    0.022111   0.016846   0.002431   0.009830   0.018669
   37  C  8  S   -0.210904  -0.153593  -0.045406  -0.150264  -0.237357
   38  C  8  X   -0.055037   0.082465  -0.166045   0.000378   0.003745
   39  C  8  Y   -0.031022  -0.017378  -0.004752   0.062200   0.046687
   40  C  8  Z    0.000000  -0.000000  -0.000000   0.000000  -0.000000
   41  C  9  S   -0.022111   0.016846   0.002431   0.009830  -0.018669
   42  C  9  S    0.210904  -0.153593  -0.045406  -0.150264   0.237357
   43  C  9  X   -0.055037  -0.082465   0.166045  -0.000378   0.003745
   44  C  9  Y   -0.031022   0.017378   0.004752  -0.062200   0.046687
   45  C  9  Z    0.000000  -0.000000  -0.000000   0.000000  -0.000000
   46  C 10  S   -0.022111   0.016846  -0.002431   0.009830   0.018669
   47  C 10  S    0.210904  -0.153593   0.045406  -0.150264  -0.237357
   48  C 10  X    0.055037   0.082465   0.166045   0.000378   0.003745
   49  C 10  Y   -0.031022   0.017378  -0.004752  -0.062200  -0.046687
   50  C 10  Z    0.000000  -0.000000  -0.000000   0.000000  -0.000000
   51  C 11  S    0.016270  -0.015110  -0.015925  -0.004424   0.009019
   52  C 11  S   -0.159350   0.183430   0.199701   0.031025  -0.112133
   53  C 11  X   -0.060029  -0.058557   0.029825  -0.032351   0.094399
   54  C 11  Y    0.071813   0.092562  -0.092523   0.066675  -0.128425
   55  C 11  Z    0.000000  -0.000000  -0.000000   0.000000  -0.000000
   56  C 12  S    0.016270  -0.015110   0.015925  -0.004424  -0.009019
   57  C 12  S   -0.159350   0.183430  -0.199701   0.031025   0.112133
   58  C 12  X    0.060029   0.058557   0.029825   0.032351   0.094399
   59  C 12  Y    0.071813   0.092562   0.092523   0.066675   0.128425
   60  C 12  Z    0.000000  -0.000000  -0.000000   0.000000  -0.000000
   61  C 13  S   -0.016270  -0.015110   0.015925  -0.004424   0.009019
   62  C 13  S    0.159350   0.183430  -0.199701   0.031025  -0.112133
   63  C 13  X    0.060029  -0.058557  -0.029825  -0.032351   0.094399
   64  C 13  Y    0.071813  -0.092562  -0.092523  -0.066675   0.128425
   65  C 13  Z    0.000000  -0.000000  -0.000000   0.000000  -0.000000
   66  C 14  S   -0.016270  -0.015110  -0.015925  -0.004424  -0.009019
   67  C 14  S    0.159350   0.183430   0.199701   0.031025   0.112133
   68  C 14  X   -0.060029   0.058557  -0.029825   0.032351   0.094399
   69  C 14  Y    0.071813  -0.092562   0.092523  -0.066675  -0.128425
   70  C 14  Z    0.000000  -0.000000  -0.000000   0.000000  -0.000000
   71  H 15  S    0.053356   0.052256  -0.000000  -0.093639  -0.000000
   72  H 16  S   -0.053356   0.052256  -0.000000  -0.093639  -0.000000
   73  H 17  S   -0.042601  -0.035473   0.012735  -0.060438   0.083913
   74  H 18  S   -0.042601  -0.035473  -0.012735  -0.060438  -0.083913
   75  H 19  S    0.042601  -0.035473  -0.012735  -0.060438   0.083913
   76  H 20  S    0.042601  -0.035473   0.012735  -0.060438  -0.083913
   77  H 21  S   -0.031090   0.047358   0.059891   0.006217  -0.037275
   78  H 22  S   -0.031090   0.047358  -0.059891   0.006217   0.037275
   79  H 23  S    0.031090   0.047358  -0.059891   0.006217  -0.037275
   80  H 24  S    0.031090   0.047358   0.059891   0.006217   0.037275

                     26         27         28         29         30
                   -0.8157    -0.7832    -0.7562    -0.7114    -0.7105
                     B2U        B3U        AG         B3U        AG  
    1  C  1  S   -0.011536  -0.000000   0.002242  -0.000000  -0.004887
    2  C  1  S    0.202768  -0.000000   0.086909  -0.000000   0.106221
    3  C  1  X    0.000000   0.241575  -0.000000   0.040585  -0.000000
    4  C  1  Y    0.001734  -0.000000  -0.174111  -0.000000  -0.008308
    5  C  1  Z    0.000000  -0.000000  -0.000000  -0.000000  -0.000000
    6  C  2  S    0.011536  -0.000000   0.002242  -0.000000  -0.004887
    7  C  2  S   -0.202768  -0.000000   0.086909  -0.000000   0.106221
    8  C  2  X    0.000000   0.241575  -0.000000   0.040585  -0.000000
    9  C  2  Y    0.001734  -0.000000   0.174111  -0.000000   0.008308
   10  C  2  Z    0.000000  -0.000000  -0.000000  -0.000000  -0.000000
   11  C  3  S    0.007239  -0.000167  -0.000207   0.000071   0.001455
   12  C  3  S   -0.087615  -0.048529   0.029873   0.045564  -0.088016
   13  C  3  X    0.180435  -0.153890  -0.132590   0.102828   0.089515
   14  C  3  Y    0.047930   0.170546  -0.086914   0.251162  -0.001273
   15  C  3  Z    0.000000  -0.000000  -0.000000  -0.000000  -0.000000
   16  C  4  S    0.007239   0.000167  -0.000207  -0.000071   0.001455
   17  C  4  S   -0.087615   0.048529   0.029873  -0.045564  -0.088016
   18  C  4  X   -0.180435  -0.153890   0.132590   0.102828  -0.089515
   19  C  4  Y    0.047930  -0.170546  -0.086914  -0.251162  -0.001273
   20  C  4  Z    0.000000  -0.000000  -0.000000  -0.000000  -0.000000
   21  C  5  S   -0.007239  -0.000167  -0.000207   0.000071   0.001455
   22  C  5  S    0.087615  -0.048529   0.029873   0.045564  -0.088016
   23  C  5  X   -0.180435  -0.153890  -0.132590   0.102828   0.089515
   24  C  5  Y    0.047930  -0.170546   0.086914  -0.251162   0.001273
   25  C  5  Z    0.000000  -0.000000  -0.000000  -0.000000  -0.000000
   26  C  6  S   -0.007239   0.000167  -0.000207  -0.000071   0.001455
   27  C  6  S    0.087615   0.048529   0.029873  -0.045564  -0.088016
   28  C  6  X    0.180435  -0.153890   0.132590   0.102828  -0.089515
   29  C  6  Y    0.047930   0.170546   0.086914   0.251162   0.001273
   30  C  6  Z    0.000000  -0.000000  -0.000000  -0.000000  -0.000000
   31  C  7  S    0.007502  -0.004819   0.000513   0.002941  -0.004095
   32  C  7  S   -0.106194  -0.018783  -0.108256   0.031841  -0.015191
   33  C  7  X   -0.196009  -0.038553   0.157362  -0.179036  -0.172778
   34  C  7  Y   -0.001366   0.132296   0.116687  -0.083286   0.123205
   35  C  7  Z    0.000000  -0.000000  -0.000000  -0.000000  -0.000000
   36  C  8  S    0.007502   0.004819   0.000513  -0.002941  -0.004095
   37  C  8  S   -0.106194   0.018783  -0.108256  -0.031841  -0.015191
   38  C  8  X    0.196009  -0.038553  -0.157362  -0.179036   0.172778
   39  C  8  Y   -0.001366  -0.132296   0.116687   0.083286   0.123205
   40  C  8  Z    0.000000  -0.000000  -0.000000  -0.000000  -0.000000
   41  C  9  S   -0.007502  -0.004819   0.000513   0.002941  -0.004095
   42  C  9  S    0.106194  -0.018783  -0.108256   0.031841  -0.015191
   43  C  9  X    0.196009  -0.038553   0.157362  -0.179036  -0.172778
   44  C  9  Y   -0.001366  -0.132296  -0.116687   0.083286  -0.123205
   45  C  9  Z    0.000000  -0.000000  -0.000000  -0.000000  -0.000000
   46  C 10  S   -0.007502   0.004819   0.000513  -0.002941  -0.004095
   47  C 10  S    0.106194   0.018783  -0.108256  -0.031841  -0.015191
   48  C 10  X   -0.196009  -0.038553  -0.157362  -0.179036   0.172778
   49  C 10  Y   -0.001366   0.132296  -0.116687  -0.083286  -0.123205
   50  C 10  Z    0.000000  -0.000000  -0.000000  -0.000000  -0.000000
   51  C 11  S   -0.012441  -0.002580  -0.003738   0.003451  -0.005996
   52  C 11  S    0.213103  -0.068732  -0.003406   0.010501  -0.025747
   53  C 11  X   -0.035519   0.144412  -0.031406  -0.015927   0.284761
   54  C 11  Y   -0.101325   0.008917   0.199069  -0.248107   0.020618
   55  C 11  Z    0.000000  -0.000000  -0.000000  -0.000000  -0.000000
   56  C 12  S   -0.012441   0.002580  -0.003738  -0.003451  -0.005996
   57  C 12  S    0.213103   0.068732  -0.003406  -0.010501  -0.025747
   58  C 12  X    0.035519   0.144412   0.031406  -0.015927  -0.284761
   59  C 12  Y   -0.101325  -0.008917   0.199069   0.248107   0.020618
   60  C 12  Z    0.000000  -0.000000  -0.000000  -0.000000  -0.000000
   61  C 13  S    0.012441  -0.002580  -0.003738   0.003451  -0.005996
   62  C 13  S   -0.213103  -0.068732  -0.003406   0.010501  -0.025747
   63  C 13  X    0.035519   0.144412  -0.031406  -0.015927   0.284761
   64  C 13  Y   -0.101325  -0.008917  -0.199069   0.248107  -0.020618
   65  C 13  Z    0.000000  -0.000000  -0.000000  -0.000000  -0.000000
   66  C 14  S    0.012441   0.002580  -0.003738  -0.003451  -0.005996
   67  C 14  S   -0.213103   0.068732  -0.003406  -0.010501  -0.025747
   68  C 14  X   -0.035519   0.144412   0.031406  -0.015927  -0.284761
   69  C 14  Y   -0.101325   0.008917  -0.199069  -0.248107  -0.020618
   70  C 14  Z    0.000000  -0.000000  -0.000000  -0.000000  -0.000000
   71  H 15  S    0.075863  -0.000000   0.108640  -0.000000   0.049313
   72  H 16  S   -0.075863  -0.000000   0.108640  -0.000000   0.049313
   73  H 17  S   -0.039399  -0.057865  -0.090745   0.053700  -0.067076
   74  H 18  S   -0.039399   0.057865  -0.090745  -0.053700  -0.067076
   75  H 19  S    0.039399  -0.057865  -0.090745   0.053700  -0.067076
   76  H 20  S    0.039399   0.057865  -0.090745  -0.053700  -0.067076
   77  H 21  S    0.101109  -0.075414  -0.031402   0.070549  -0.133608
   78  H 22  S    0.101109   0.075414  -0.031402  -0.070549  -0.133608
   79  H 23  S   -0.101109  -0.075414  -0.031402   0.070549  -0.133608
   80  H 24  S   -0.101109   0.075414  -0.031402  -0.070549  -0.133608

                     31         32         33         34         35
                   -0.7096    -0.6898    -0.6617    -0.6612    -0.6473
                     B1G        B2U        B3U        B1G        B2U 
    1  C  1  S    0.000000  -0.001585  -0.000000   0.000000  -0.005424
    2  C  1  S    0.000000  -0.075607  -0.000000   0.000000  -0.051053
    3  C  1  X    0.278726   0.000000   0.266755   0.110231  -0.000000
    4  C  1  Y    0.000000   0.322153  -0.000000   0.000000   0.334627
    5  C  1  Z    0.000000   0.000000  -0.000000   0.000000  -0.000000
    6  C  2  S    0.000000   0.001585  -0.000000   0.000000   0.005424
    7  C  2  S    0.000000   0.075607  -0.000000   0.000000   0.051053
    8  C  2  X   -0.278726   0.000000   0.266755  -0.110231  -0.000000
    9  C  2  Y    0.000000   0.322153  -0.000000   0.000000   0.334627
   10  C  2  Z    0.000000   0.000000  -0.000000   0.000000  -0.000000
   11  C  3  S    0.006552  -0.006736   0.000619  -0.001843  -0.000827
   12  C  3  S   -0.121283   0.164906   0.002303   0.052901   0.013330
   13  C  3  X   -0.174403   0.015203  -0.261985  -0.161109   0.166820
   14  C  3  Y    0.060705  -0.043335   0.069029   0.002763   0.000641
   15  C  3  Z    0.000000   0.000000  -0.000000   0.000000  -0.000000
   16  C  4  S   -0.006552  -0.006736  -0.000619   0.001843  -0.000827
   17  C  4  S    0.121283   0.164906  -0.002303  -0.052901   0.013330
   18  C  4  X   -0.174403  -0.015203  -0.261985  -0.161109  -0.166820
   19  C  4  Y   -0.060705  -0.043335  -0.069029  -0.002763   0.000641
   20  C  4  Z    0.000000   0.000000  -0.000000   0.000000  -0.000000
   21  C  5  S   -0.006552   0.006736   0.000619   0.001843   0.000827
   22  C  5  S    0.121283  -0.164906   0.002303  -0.052901  -0.013330
   23  C  5  X    0.174403  -0.015203  -0.261985   0.161109  -0.166820
   24  C  5  Y    0.060705  -0.043335  -0.069029   0.002763   0.000641
   25  C  5  Z    0.000000   0.000000  -0.000000   0.000000  -0.000000
   26  C  6  S    0.006552   0.006736  -0.000619  -0.001843   0.000827
   27  C  6  S   -0.121283  -0.164906  -0.002303   0.052901  -0.013330
   28  C  6  X    0.174403   0.015203  -0.261985   0.161109   0.166820
   29  C  6  Y   -0.060705  -0.043335   0.069029  -0.002763   0.000641
   30  C  6  Z    0.000000   0.000000  -0.000000   0.000000  -0.000000
   31  C  7  S   -0.005055  -0.000578   0.000375  -0.004727   0.003715
   32  C  7  S    0.181238  -0.054594   0.028108  -0.001059   0.046478
   33  C  7  X    0.050331   0.025773   0.193100   0.018039  -0.019244
   34  C  7  Y   -0.086457   0.210879  -0.043024   0.320676  -0.249845
   35  C  7  Z    0.000000   0.000000  -0.000000   0.000000  -0.000000
   36  C  8  S    0.005055  -0.000578  -0.000375   0.004727   0.003715
   37  C  8  S   -0.181238  -0.054594  -0.028108   0.001059   0.046478
   38  C  8  X    0.050331  -0.025773   0.193100   0.018039   0.019244
   39  C  8  Y    0.086457   0.210879   0.043024  -0.320676  -0.249845
   40  C  8  Z    0.000000   0.000000  -0.000000   0.000000  -0.000000
   41  C  9  S    0.005055   0.000578   0.000375   0.004727  -0.003715
   42  C  9  S   -0.181238   0.054594   0.028108   0.001059  -0.046478
   43  C  9  X   -0.050331  -0.025773   0.193100  -0.018039   0.019244
   44  C  9  Y   -0.086457   0.210879   0.043024   0.320676  -0.249845
   45  C  9  Z    0.000000   0.000000  -0.000000   0.000000  -0.000000
   46  C 10  S   -0.005055   0.000578  -0.000375  -0.004727  -0.003715
   47  C 10  S    0.181238   0.054594  -0.028108  -0.001059  -0.046478
   48  C 10  X   -0.050331   0.025773   0.193100  -0.018039  -0.019244
   49  C 10  Y    0.086457   0.210879  -0.043024  -0.320676  -0.249845
   50  C 10  Z    0.000000   0.000000  -0.000000   0.000000  -0.000000
   51  C 11  S    0.005239  -0.002423   0.004733  -0.002930   0.002772
   52  C 11  S   -0.177551   0.073912  -0.020918   0.030579  -0.055922
   53  C 11  X    0.124967   0.011112  -0.246062   0.132515  -0.053803
   54  C 11  Y    0.078530  -0.020745  -0.031724   0.007834   0.007723
   55  C 11  Z    0.000000   0.000000  -0.000000   0.000000  -0.000000
   56  C 12  S   -0.005239  -0.002423  -0.004733   0.002930   0.002772
   57  C 12  S    0.177551   0.073912   0.020918  -0.030579  -0.055922
   58  C 12  X    0.124967  -0.011112  -0.246062   0.132515   0.053803
   59  C 12  Y   -0.078530  -0.020745   0.031724  -0.007834   0.007723
   60  C 12  Z    0.000000   0.000000  -0.000000   0.000000  -0.000000
   61  C 13  S   -0.005239   0.002423   0.004733   0.002930  -0.002772
   62  C 13  S    0.177551  -0.073912  -0.020918  -0.030579   0.055922
   63  C 13  X   -0.124967  -0.011112  -0.246062  -0.132515   0.053803
   64  C 13  Y    0.078530  -0.020745   0.031724   0.007834   0.007723
   65  C 13  Z    0.000000   0.000000  -0.000000   0.000000  -0.000000
   66  C 14  S    0.005239   0.002423  -0.004733  -0.002930  -0.002772
   67  C 14  S   -0.177551  -0.073912   0.020918   0.030579   0.055922
   68  C 14  X   -0.124967   0.011112  -0.246062  -0.132515  -0.053803
   69  C 14  Y   -0.078530  -0.020745  -0.031724  -0.007834   0.007723
   70  C 14  Z    0.000000   0.000000  -0.000000   0.000000  -0.000000
   71  H 15  S    0.000000  -0.216565  -0.000000   0.000000  -0.218915
   72  H 16  S    0.000000   0.216565  -0.000000   0.000000   0.218915
   73  H 17  S    0.124242  -0.141711   0.038070  -0.184434   0.165170
   74  H 18  S   -0.124242  -0.141711  -0.038070   0.184434   0.165170
   75  H 19  S   -0.124242   0.141711   0.038070   0.184434  -0.165170
   76  H 20  S    0.124242   0.141711  -0.038070  -0.184434  -0.165170
   77  H 21  S   -0.149998   0.034766   0.117129  -0.051411  -0.003860
   78  H 22  S    0.149998   0.034766  -0.117129   0.051411  -0.003860
   79  H 23  S    0.149998  -0.034766   0.117129   0.051411   0.003860
   80  H 24  S   -0.149998  -0.034766  -0.117129  -0.051411   0.003860

                     36         37         38         39         40
                   -0.6363    -0.6277    -0.6035    -0.5840    -0.5784
                     B1U        AG         B2U        B2G        B3U 
    1  C  1  S   -0.000000  -0.006703  -0.000665   0.000000  -0.000000
    2  C  1  S   -0.000000  -0.095892   0.102044   0.000000  -0.000000
    3  C  1  X   -0.000000  -0.000000  -0.000000   0.000000   0.105974
    4  C  1  Y   -0.000000   0.293350   0.057756   0.000000  -0.000000
    5  C  1  Z    0.210163  -0.000000  -0.000000   0.000000  -0.000000
    6  C  2  S   -0.000000  -0.006703   0.000665   0.000000  -0.000000
    7  C  2  S   -0.000000  -0.095892  -0.102044   0.000000  -0.000000
    8  C  2  X   -0.000000  -0.000000  -0.000000   0.000000   0.105974
    9  C  2  Y   -0.000000  -0.293350   0.057756   0.000000  -0.000000
   10  C  2  Z    0.210163  -0.000000  -0.000000   0.000000  -0.000000
   11  C  3  S   -0.000000  -0.001375   0.002070   0.000000   0.001087
   12  C  3  S   -0.000000  -0.025156  -0.059026   0.000000  -0.000845
   13  C  3  X   -0.000000   0.072444   0.114525   0.000000   0.048081
   14  C  3  Y   -0.000000  -0.175058   0.048127   0.000000   0.194962
   15  C  3  Z    0.258037  -0.000000  -0.000000   0.209489  -0.000000
   16  C  4  S   -0.000000  -0.001375   0.002070   0.000000  -0.001087
   17  C  4  S   -0.000000  -0.025156  -0.059026   0.000000   0.000845
   18  C  4  X   -0.000000  -0.072444  -0.114525   0.000000   0.048081
   19  C  4  Y   -0.000000  -0.175058   0.048127   0.000000  -0.194962
   20  C  4  Z    0.258037  -0.000000  -0.000000  -0.209489  -0.000000
   21  C  5  S   -0.000000  -0.001375  -0.002070   0.000000   0.001087
   22  C  5  S   -0.000000  -0.025156   0.059026   0.000000  -0.000845
   23  C  5  X   -0.000000   0.072444  -0.114525   0.000000   0.048081
   24  C  5  Y   -0.000000   0.175058   0.048127   0.000000  -0.194962
   25  C  5  Z    0.258037  -0.000000  -0.000000   0.209489  -0.000000
   26  C  6  S   -0.000000  -0.001375  -0.002070   0.000000  -0.001087
   27  C  6  S   -0.000000  -0.025156   0.059026   0.000000   0.000845
   28  C  6  X   -0.000000  -0.072444   0.114525   0.000000   0.048081
   29  C  6  Y   -0.000000   0.175058   0.048127   0.000000   0.194962
   30  C  6  Z    0.258037  -0.000000  -0.000000  -0.209489  -0.000000
   31  C  7  S   -0.000000   0.001063  -0.001913   0.000000   0.004508
   32  C  7  S   -0.000000   0.062955   0.071745   0.000000   0.037193
[...]
   21  C  5  S    0.005413  -0.000491  -0.002447  -0.006106   0.006102
   22  C  5  S    0.048768   0.001688  -0.016113  -0.040553   0.040503
   23  C  5  X    0.022383   0.005484   0.011796   0.002542   0.002930
   24  C  5  Y   -0.063305   0.002745   0.007830   0.041238  -0.040267
   25  C  5  Z    0.000001  -0.000000  -0.000000  -0.000000   0.000001
   26  C  6  S    0.002318  -0.005776  -0.000223   0.000800   0.006155
   27  C  6  S    0.021497  -0.051071  -0.001211   0.005218   0.041035
   28  C  6  X   -0.010348  -0.044644   0.000041  -0.003012  -0.003473
   29  C  6  Y   -0.027645  -0.043626   0.001805  -0.000929  -0.040609
   30  C  6  Z   -0.000000   0.000000  -0.000000  -0.000000   0.000000
   31  C  7  S    0.004950  -0.000051   0.005760  -0.039233  -0.005139
   32  C  7  S    0.047398  -0.000028   0.057209  -0.392987  -0.040781
   33  C  7  X    0.069534   0.000817  -0.068977  -0.017993  -0.037200
   34  C  7  Y    0.005073   0.001006   0.018475   0.539274   0.006849
   35  C  7  Z    0.000001  -0.000000   0.000001   0.000001  -0.000000
   36  C  8  S   -0.005409   0.002477   0.000331   0.000233  -0.004967
   37  C  8  S   -0.039648   0.016724   0.002299   0.001432  -0.039489
   38  C  8  X    0.037555  -0.000938  -0.001982  -0.001228   0.035690
   39  C  8  Y   -0.006480   0.014670   0.001265   0.000466   0.007137
   40  C  8  Z   -0.000001  -0.000000   0.000000  -0.000000   0.000001
   41  C  9  S   -0.004753  -0.000239  -0.006219  -0.002484  -0.001658
   42  C  9  S   -0.034013  -0.001458  -0.043006  -0.016766  -0.012074
   43  C  9  X   -0.028436  -0.001220   0.036691  -0.000955  -0.009580
   44  C  9  Y    0.022087   0.000470   0.024082   0.014744   0.005610
   45  C  9  Z   -0.000000   0.000000  -0.000000  -0.000001   0.000000
   46  C 10  S    0.001406   0.039233  -0.000079   0.000042  -0.001764
   47  C 10  S    0.005546   0.393077  -0.000323  -0.000044  -0.012787
   48  C 10  X   -0.002921  -0.018541   0.000138   0.000887   0.010181
   49  C 10  Y   -0.000176   0.539221   0.000093   0.001041   0.006015
   50  C 10  Z    0.000001   0.000000  -0.000000   0.000000  -0.000001
   51  C 11  S   -0.004400   0.000067  -0.039053   0.005331  -0.000493
   52  C 11  S   -0.033370   0.000491  -0.390948   0.055785   0.001970
   53  C 11  X   -0.034380   0.000305   0.473866   0.049768   0.005503
   54  C 11  Y    0.014177  -0.000038   0.262336  -0.050915  -0.002781
   55  C 11  Z   -0.000000  -0.000000   0.000000   0.000000  -0.000000
   56  C 12  S    0.001482   0.006241  -0.000141  -0.000085  -0.000584
   57  C 12  S    0.012418   0.042670  -0.000990  -0.000584   0.001339
   58  C 12  X   -0.012090  -0.003540   0.000846   0.000702  -0.004903
   59  C 12  Y   -0.006782   0.042379   0.000554   0.000486  -0.002480
   60  C 12  Z   -0.000000  -0.000000   0.000000   0.000000   0.000000
   61  C 13  S   -0.001846   0.000083   0.005856  -0.006250  -0.000753
   62  C 13  S   -0.013537   0.000573   0.052377  -0.042734  -0.005024
   63  C 13  X   -0.011520   0.000688  -0.021023  -0.003610  -0.002949
   64  C 13  Y    0.005877   0.000482  -0.061371   0.042350   0.001012
   65  C 13  Z   -0.000001   0.000000  -0.000000  -0.000000  -0.000000
   66  C 14  S    0.000294  -0.005352  -0.000026  -0.000067  -0.000785
   67  C 14  S    0.001551  -0.056034  -0.000161  -0.000492  -0.005238
   68  C 14  X   -0.000385   0.050073   0.000006   0.000305   0.003101
   69  C 14  Y   -0.001914  -0.051053   0.000267  -0.000027   0.001153
   70  C 14  Z    0.000001  -0.000000   0.000000   0.000000  -0.000000
   71  H 15  S    0.069514   0.009223   0.004641   0.014772   0.451592
   72  H 16  S    0.006223  -0.014482  -0.000794  -0.009143   0.006197
   73  H 17  S    0.043327  -0.000629   0.049605  -0.448698  -0.014922
   74  H 18  S   -0.019149   0.007286   0.000771   0.000458  -0.014015
   75  H 19  S    0.014770  -0.000445   0.015616  -0.007182   0.008918
   76  H 20  S    0.003466   0.448763  -0.000221   0.000636   0.009077
   77  H 21  S    0.013070   0.000218  -0.446124   0.048672  -0.002014
   78  H 22  S   -0.006977  -0.016622   0.000678   0.000323  -0.001720
   79  H 23  S   -0.007022  -0.000320   0.051752   0.016586   0.000979
   80  H 24  S    0.001755  -0.048602  -0.000128  -0.000230   0.000836

                     36         37         38         39         40

    1  C  1  S    0.003683   0.002587  -0.001493  -0.003708  -0.005364
    2  C  1  S    0.025595   0.017495  -0.010733  -0.026136  -0.042738
    3  C  1  X   -0.022806   0.000573  -0.009581  -0.023073  -0.037813
    4  C  1  Y    0.005073   0.015397  -0.007116  -0.005563   0.005892
    5  C  1  Z    0.051540  -0.000001   0.000000   0.089005   0.000000
    6  C  2  S   -0.000891   0.039385   0.001369   0.000892  -0.001688
    7  C  2  S   -0.003196   0.395367   0.006781   0.003079  -0.012462
    8  C  2  X    0.001242  -0.006754   0.002834   0.001034  -0.010241
    9  C  2  Y   -0.000296   0.536540  -0.000335   0.000372   0.005588
   10  C  2  Z   -0.007821   0.000001   0.000000  -0.042618  -0.000001
   11  C  3  S   -0.004322   0.006102   0.000940   0.000953  -0.000490
   12  C  3  S   -0.031894   0.040504   0.006091   0.007399   0.001688
   13  C  3  X    0.041805   0.002930   0.004945   0.006995   0.005484
   14  C  3  Y    0.006898   0.040267  -0.002661  -0.004194  -0.002746
   15  C  3  Z   -0.092076  -0.000000  -0.000000   0.044672   0.000000
   16  C  4  S   -0.000953   0.006154   0.006277   0.004324  -0.005777
   17  C  4  S   -0.007513   0.041035   0.042241   0.031994  -0.051070
   18  C  4  X    0.007160  -0.003473   0.040141   0.042714  -0.044643
   19  C  4  Y    0.004339   0.040609  -0.018783  -0.006740   0.043626
   20  C  4  Z    0.022207  -0.000000   0.000000  -0.077032  -0.000001
   21  C  5  S   -0.001768  -0.005084   0.000229   0.000186  -0.000779
   22  C  5  S   -0.016244  -0.048133   0.001273   0.000899  -0.005041
   23  C  5  X    0.008212  -0.044536   0.000093   0.000015  -0.002869
   24  C  5  Y    0.020595  -0.042617  -0.001830  -0.001400   0.000819
   25  C  5  Z    0.098089   0.000001  -0.000000  -0.052154  -0.000000
   26  C  6  S   -0.000173  -0.005464   0.002448   0.001757   0.006108
   27  C  6  S   -0.000798  -0.054566   0.016090   0.016102   0.040507
   28  C  6  X   -0.000061   0.052705   0.011880   0.008378   0.002901
   29  C  6  Y    0.001325  -0.046782  -0.007961  -0.020872  -0.041852
   30  C  6  Z   -0.040357  -0.000000   0.000000   0.077874  -0.000000
   31  C  7  S    0.013724  -0.001658  -0.000334  -0.000465  -0.000239
   32  C  7  S    0.234745  -0.012074  -0.002309  -0.002986  -0.001457
   33  C  7  X   -0.280299  -0.009580  -0.001985  -0.002344  -0.001220
   34  C  7  Y    0.170904  -0.005609  -0.001268  -0.001553  -0.000470
   35  C  7  Z   -0.405743  -0.000000   0.000000  -0.014369  -0.000000
   36  C  8  S    0.000460  -0.001764  -0.005770  -0.013716   0.039233
   37  C  8  S    0.002961  -0.012787  -0.057383  -0.234510   0.393078
   38  C  8  X   -0.002334   0.010181  -0.069389  -0.280737  -0.018541
   39  C  8  Y    0.001546  -0.006015  -0.018616  -0.170501  -0.539221
   40  C  8  Z   -0.013981   0.000001  -0.000000  -0.407055  -0.000001
   41  C  9  S   -0.001874  -0.005139   0.000077   0.000098  -0.000051
   42  C  9  S   -0.017731  -0.040781   0.000305   0.000467  -0.000029
   43  C  9  X    0.013480  -0.037200   0.000120   0.000354   0.000817
   44  C  9  Y    0.018209  -0.006848  -0.000085  -0.000292  -0.001006
   45  C  9  Z    0.127203   0.000000  -0.000000   0.002879  -0.000000
   46  C 10  S   -0.000102  -0.004967   0.006219   0.001863   0.002477
   47  C 10  S   -0.000503  -0.039489   0.043009   0.017639   0.016724
   48  C 10  X    0.000390   0.035690   0.036704   0.013508  -0.000938
   49  C 10  Y    0.000310  -0.007137  -0.024069  -0.018120  -0.014670
   50  C 10  Z    0.000265  -0.000000  -0.000000   0.126851   0.000001
   51  C 11  S    0.013546  -0.000754   0.000141   0.000197   0.000083
   52  C 11  S    0.234472  -0.005024   0.000990   0.001316   0.000573
   53  C 11  X    0.287627  -0.002949   0.000845   0.001099   0.000688
   54  C 11  Y   -0.155111  -0.001012  -0.000555  -0.000723  -0.000482
   55  C 11  Z   -0.402307  -0.000000   0.000000  -0.015254  -0.000000
   56  C 12  S   -0.000197  -0.000785   0.039035  -0.013597  -0.005352
   57  C 12  S   -0.001317  -0.005238   0.390703  -0.234751  -0.056034
   58  C 12  X    0.001101   0.003102   0.474204   0.287491   0.050073
   59  C 12  Y    0.000723  -0.001153  -0.262116   0.155276   0.051053
   60  C 12  Z   -0.008708   0.000001  -0.000001  -0.405425  -0.000000
   61  C 13  S   -0.004294  -0.000493   0.000026   0.000054   0.000067
   62  C 13  S   -0.032036   0.001970   0.000161   0.000351   0.000491
   63  C 13  X   -0.016762   0.005502   0.000006   0.000110   0.000305
   64  C 13  Y    0.037292   0.002781  -0.000264  -0.000259   0.000038
   65  C 13  Z   -0.087059   0.000000   0.000000   0.023710  -0.000000
   66  C 14  S   -0.000054  -0.000585  -0.005853   0.004287   0.006241
   67  C 14  S   -0.000350   0.001340  -0.052335   0.032002   0.042670
   68  C 14  X    0.000110  -0.004902  -0.021021  -0.016706  -0.003540
   69  C 14  Y    0.000264   0.002480   0.061287  -0.037303  -0.042379
   70  C 14  Z    0.020958  -0.000000  -0.000001  -0.082004   0.000001
   71  H 15  S    0.011811   0.006197  -0.004589  -0.011662  -0.014482
   72  H 16  S   -0.002796   0.451592   0.000813   0.002839   0.009223
   73  H 17  S   -0.043855   0.008918  -0.000769  -0.000939  -0.000445
   74  H 18  S    0.000942   0.009077  -0.049542   0.043731   0.448763
   75  H 19  S   -0.004302  -0.014922   0.000222  -0.000077  -0.000629
   76  H 20  S    0.000082  -0.014015  -0.015580   0.004361   0.007286
   77  H 21  S   -0.044151   0.000978  -0.000679  -0.000802  -0.000320
   78  H 22  S    0.000800   0.000836   0.446178   0.043996  -0.048601
   79  H 23  S    0.036993  -0.002014   0.000125   0.000157   0.000218
   80  H 24  S   -0.000163  -0.001720  -0.051801  -0.036979  -0.016622

                     41         42         43         44         45

    1  C  1  S   -0.004757   0.001684   0.012311  -0.001862   0.000890
    2  C  1  S   -0.034076   0.012242   0.228391  -0.017193   0.003197
    3  C  1  X    0.028369  -0.009831   0.280833  -0.013455  -0.001243
    4  C  1  Y   -0.021872   0.005464   0.168060  -0.018410  -0.000295
    5  C  1  Z   -0.000000  -0.000000  -0.381921   0.145591  -0.007820
    6  C  2  S    0.004836   0.005319  -0.001861   0.012311  -0.003682
    7  C  2  S    0.046698   0.041797  -0.017193   0.228391  -0.025595
    8  C  2  X   -0.068811  -0.037488  -0.013455   0.280833   0.022806
    9  C  2  Y   -0.005690   0.006748   0.018409  -0.168059   0.005073
   10  C  2  Z    0.000001  -0.000000   0.145588  -0.381924   0.051538
   11  C  3  S    0.005376  -0.006106  -0.004039  -0.001797   0.001768
   12  C  3  S    0.048641  -0.040553  -0.030862  -0.016436   0.016246
   13  C  3  X   -0.022562   0.002542  -0.042150  -0.008650  -0.008213
   14  C  3  Y    0.063267  -0.041238   0.006395  -0.019825   0.020594
   15  C  3  Z    0.000001  -0.000000  -0.127118   0.112117   0.098088
   16  C  4  S   -0.001933   0.000800   0.014522  -0.003797   0.000173
   17  C  4  S   -0.013851   0.005217   0.236521  -0.030533   0.000799
   18  C  4  X    0.011669  -0.003012  -0.299315   0.015397   0.000061
   19  C  4  Y   -0.006293   0.000929  -0.165049  -0.037550   0.001324
   20  C  4  Z   -0.000001   0.000000  -0.375813  -0.102199  -0.040355
   21  C  5  S   -0.020926   0.005779  -0.001797  -0.004040   0.004322
   22  C  5  S   -0.325184   0.051035  -0.016436  -0.030862   0.031891
   23  C  5  X    0.436204  -0.045740  -0.008650  -0.042149  -0.041804
   24  C  5  Y   -0.242480   0.043074   0.019826  -0.006395   0.006897
   25  C  5  Z    0.000003  -0.000000   0.112118  -0.127124  -0.092080
   26  C  6  S   -0.004527   0.000483  -0.003798   0.014521   0.000953
   27  C  6  S   -0.033563  -0.001969  -0.030533   0.236519   0.007513
   28  C  6  X    0.034902   0.005871   0.015396  -0.299315  -0.007160
   29  C  6  Y   -0.014182  -0.003030   0.037549   0.165049   0.004340
   30  C  6  Z   -0.000001  -0.000000  -0.102203  -0.375811   0.022209
   31  C  7  S    0.002236  -0.002484   0.003582  -0.000879   0.001874
   32  C  7  S    0.021087  -0.016767   0.025146  -0.003161   0.017732
   33  C  7  X    0.021090  -0.000954   0.022800  -0.001345  -0.013479
   34  C  7  Y    0.023737  -0.014745   0.004610   0.000330   0.018210
   35  C  7  Z   -0.000001   0.000000   0.034469  -0.007393   0.127205
   36  C  8  S   -0.001158   0.000041  -0.003382   0.003250   0.000102
   37  C  8  S   -0.005639  -0.000045  -0.029657   0.022450   0.000503
   38  C  8  X    0.002499   0.000887   0.043551  -0.018679  -0.000391
   39  C  8  Y   -0.000212  -0.001041  -0.002152   0.013674   0.000310
   40  C  8  Z    0.000001   0.000000  -0.061839  -0.033153   0.000264
   41  C  9  S   -0.016304  -0.039233  -0.000879   0.003582  -0.013724
   42  C  9  S   -0.302555  -0.392986  -0.003161   0.025145  -0.234746
   43  C  9  X   -0.416665  -0.017993  -0.001345   0.022799   0.280297
   44  C  9  Y    0.236477  -0.539274  -0.000330  -0.004609   0.170904
   45  C  9  Z    0.000002  -0.000000  -0.007394   0.034468  -0.405745
   46  C 10  S    0.001153   0.000233   0.003249  -0.003382  -0.000461
   47  C 10  S    0.008587   0.001432   0.022450  -0.029658  -0.002960
   48  C 10  X   -0.008025  -0.001228  -0.018679   0.043551   0.002334
   49  C 10  Y   -0.005111  -0.000466  -0.013673   0.002152   0.001546
   50  C 10  Z   -0.000001  -0.000000  -0.033151  -0.061835  -0.013979
   51  C 11  S    0.002186  -0.006250  -0.000921  -0.000169   0.004294
   52  C 11  S    0.021663  -0.042734  -0.007460  -0.000801   0.032036
   53  C 11  X    0.010473  -0.003610  -0.006898  -0.000052   0.016762
   54  C 11  Y    0.027485  -0.042350   0.004149  -0.001178   0.037292
   55  C 11  Z   -0.000001   0.000000   0.035540  -0.042863  -0.087057
   56  C 12  S   -0.000187  -0.000066   0.002994   0.001255   0.000054
   57  C 12  S   -0.001077  -0.000492   0.021825   0.008683   0.000350
   58  C 12  X    0.000294   0.000306  -0.021898  -0.007268  -0.000110
   59  C 12  Y   -0.001360   0.000027  -0.009545   0.003779   0.000264
   60  C 12  Z    0.000001   0.000000   0.092293   0.052728   0.020957
   61  C 13  S    0.005908   0.005331  -0.000169  -0.000921  -0.013545
   62  C 13  S    0.056846   0.055785  -0.000801  -0.007459  -0.234471
   63  C 13  X    0.078225   0.049769  -0.000052  -0.006898  -0.287626
   64  C 13  Y    0.014022   0.050915   0.001178  -0.004149  -0.155110
   65  C 13  Z    0.000001   0.000000  -0.042866   0.035542  -0.402307
   66  C 14  S   -0.000772  -0.000085   0.001255   0.002994   0.000197
   67  C 14  S   -0.005244  -0.000585   0.008683   0.021825   0.001318
   68  C 14  X    0.004390   0.000702  -0.007268  -0.021898  -0.001101
   69  C 14  Y   -0.002060  -0.000486  -0.003779   0.009545   0.000723
   70  C 14  Z   -0.000000  -0.000000   0.052731   0.092294  -0.008708
   71  H 15  S    0.014677  -0.009142  -0.045449  -0.003782   0.002795
   72  H 16  S    0.043651   0.014773  -0.003783  -0.045448  -0.011811
   73  H 17  S    0.006624  -0.007182   0.011744  -0.002627   0.004301
   74  H 18  S   -0.000751   0.000636  -0.029575  -0.009259  -0.000082
   75  H 19  S    0.069518  -0.448698  -0.002627   0.011744   0.043854
   76  H 20  S    0.003272   0.000458  -0.009258  -0.029575  -0.000942
   77  H 21  S    0.009037   0.016586   0.004265  -0.000920  -0.036993
   78  H 22  S   -0.000456  -0.000230  -0.008307   0.004632   0.000163
   79  H 23  S   -0.056419   0.048672  -0.000920   0.004265   0.044151
   80  H 24  S    0.002883   0.000322   0.004632  -0.008307  -0.000800

                     46         47

    1  C  1  S   -0.000000  -0.000891
    2  C  1  S   -0.000000  -0.003079
    3  C  1  X   -0.000000  -0.001034
    4  C  1  Y   -0.000000   0.000373
    5  C  1  Z    0.160564  -0.042619
    6  C  2  S   -0.000000   0.003708
    7  C  2  S   -0.000000   0.026136
    8  C  2  X   -0.000000   0.023072
    9  C  2  Y   -0.000000  -0.005563
   10  C  2  Z    0.160556   0.089005
   11  C  3  S    0.000000  -0.000186
   12  C  3  S    0.000010  -0.000900
   13  C  3  X    0.000000  -0.000015
   14  C  3  Y    0.000010  -0.001400
   15  C  3  Z    0.507360  -0.052154
   16  C  4  S   -0.000000  -0.001758
   17  C  4  S   -0.000001  -0.016103
   18  C  4  X    0.000001  -0.008380
   19  C  4  Y   -0.000001  -0.020872
   20  C  4  Z   -0.169995   0.077872
   21  C  5  S    0.000000  -0.000954
   22  C  5  S    0.000010  -0.007398
   23  C  5  X    0.000000  -0.006995
   24  C  5  Y   -0.000009  -0.004193
   25  C  5  Z    0.507354   0.044674
   26  C  6  S   -0.000000  -0.004324
   27  C  6  S   -0.000001  -0.031994
   28  C  6  X    0.000001  -0.042712
   29  C  6  Y    0.000001  -0.006740
   30  C  6  Z   -0.169997  -0.077036
   31  C  7  S   -0.000001  -0.000098
   32  C  7  S   -0.000000  -0.000468
   33  C  7  X    0.000000  -0.000354
   34  C  7  Y   -0.000000  -0.000292
   35  C  7  Z    0.113708   0.002879
   36  C  8  S   -0.000000  -0.001863
   37  C  8  S    0.000000  -0.017639
   38  C  8  X    0.000000  -0.013507
   39  C  8  Y    0.000000  -0.018121
   40  C  8  Z   -0.060443   0.126853
   41  C  9  S   -0.000001   0.000465
   42  C  9  S   -0.000000   0.002987
   43  C  9  X    0.000001   0.002344
   44  C  9  Y    0.000000  -0.001553
   45  C  9  Z    0.113704  -0.014369
   46  C 10  S    0.000000   0.013717
   47  C 10  S    0.000000   0.234510
   48  C 10  X   -0.000000   0.280735
   49  C 10  Y    0.000000  -0.170501
   50  C 10  Z   -0.060441  -0.407058
   51  C 11  S    0.000000  -0.000054
   52  C 11  S   -0.000001  -0.000351
   53  C 11  X   -0.000001  -0.000110
   54  C 11  Y    0.000000  -0.000259
   55  C 11  Z   -0.156959   0.023709
   56  C 12  S   -0.000000  -0.004288
   57  C 12  S   -0.000000  -0.032001
   58  C 12  X   -0.000000   0.016705
   59  C 12  Y   -0.000001  -0.037301
   60  C 12  Z    0.073965  -0.082002
   61  C 13  S   -0.000000  -0.000197
   62  C 13  S   -0.000000  -0.001316
   63  C 13  X   -0.000001  -0.001099
   64  C 13  Y   -0.000000  -0.000723
   65  C 13  Z   -0.156960  -0.015256
   66  C 14  S   -0.000000   0.013595
   67  C 14  S   -0.000000   0.234751
   68  C 14  X    0.000000  -0.287491
   69  C 14  Y    0.000000   0.155273
   70  C 14  Z    0.073968  -0.405425
   71  H 15  S    0.000001  -0.002839
   72  H 16  S    0.000000   0.011661
   73  H 17  S    0.000001   0.000077
   74  H 18  S   -0.000000  -0.004361
   75  H 19  S    0.000001   0.000939
   76  H 20  S    0.000000  -0.043731
   77  H 21  S   -0.000000  -0.000157
   78  H 22  S    0.000000   0.036978
   79  H 23  S    0.000000   0.000802
   80  H 24  S    0.000000  -0.043997
 ... DONE WITH ENERGY LOCALIZATION ...
 CPU     0: STEP CPU TIME=     0.72 TOTAL CPU TIME=       20.7 (    0.3 MIN)
 TOTAL WALL CLOCK TIME=       20.8 SECONDS, CPU UTILIZATION IS  99.62%
               665154  WORDS OF DYNAMIC MEMORY USED
 EXECUTION OF GAMESS TERMINATED NORMALLY Wed Aug  9 20:28:32 2017
 DDI: 39680472 bytes (37.8 MB / 4 MWords) used by master data server.

 ----------------------------------------
 CPU timing information for all processes
 ========================================
 0: 20.719 + 0.27 = 20.747
 ----------------------------------------
 ddikick.x: exited gracefully.
unset echo
----- accounting info -----
Files used on the master node compute-1-7.local were:
-rw-rw-r-- 1 sarom sarom 5.1K Aug  9 20:28 /scratch/trf-local.F05
-rw-rw-r-- 1 sarom sarom  26K Aug  9 20:28 /scratch/trf-local.F09
-rw-rw-r-- 1 sarom sarom 1.8M Aug  9 20:28 /scratch/trf-local.F10
rm: cannot remove `/scratch/tmp': Is a directory
ls: No match.
ls: No match.
ls: No match.
Wed Aug  9 20:28:35 CDT 2017
0.242u 0.164s 0:24.29 1.6%	0+0k 16+368io 0pf+0w
/opt/gridengine/default/spool/compute-1-7/active_jobs/35846.1/pe_hostfile compute-1-7.local
