-catch_rsh /opt/gridengine/default/spool/compute-1-2/active_jobs/36067.1/pe_hostfile
compute-1-2
The primary node assigned by SGE to this run is compute-1-2
Warning: no access to tty (Bad file descriptor).
Thus no job control in this shell.
source /home/sarom/dir.git.branch.saromleang-travis-ci/install.info
setenv GMS_PATH /home/sarom/dir.git.branch.saromleang-travis-ci
setenv GMS_BUILD_DIR /home/sarom/dir.git.branch.saromleang-travis-ci
setenv GMS_TARGET linux64
setenv GMS_FORTRAN gfortran
setenv GMS_GFORTRAN_VERNO 4.4
setenv GMS_MATHLIB mkl-so
setenv GMS_MATHLIB none
setenv GMS_MATHLIB_PATH /share/apps/intel/compilers_and_libraries_2017.1.132/linux/mkl/lib/intel64
setenv GMS_MKL_VERNO 12
setenv GMS_DDI_COMM sockets
setenv GMS_LIBCCHEM false
setenv GMS_EIGEN_PATH
setenv GMS_PHI false
setenv GMS_SHMTYPE sysv
setenv GMS_OPENMP false
unset echo
tddft-ch2nh2-conint
/home/sarom/dir.git.branch.saromleang-travis-ci/tests/tddft/parallel
----- GAMESS execution script 'rungms' -----
This job is running on host compute-1-2.local
under operating system Linux at Wed Aug 9 21:28:41 CDT 2017
Available scratch disk space (Kbyte units) at beginning of the job is
Filesystem           1K-blocks      Used Available Use% Mounted on
/dev/sda1             16126920   9109424   6198296  60% /
GAMESS temporary binary files will be written to /scratch
GAMESS supplementary output files will be written to /home/sarom/restart
Copying input file tddft-ch2nh2-conint.inp to your run's scratch directory...
cp /home/sarom/dir.git.branch.saromleang-travis-ci/tests/tddft/parallel/tddft-ch2nh2-conint.inp /scratch/tddft-ch2nh2-conint.F05
unset echo
The generated host list is
compute-1-2.local
/home/sarom/dir.git.branch.saromleang-travis-ci/ddikick.x /home/sarom/dir.git.branch.saromleang-travis-ci/gamess.00.x tddft-ch2nh2-conint -ddi 1 1 compute-1-2.local -scr /scratch

 Distributed Data Interface kickoff program.
 Initiating 1 compute processes on 1 nodes to run the following command:
 /home/sarom/dir.git.branch.saromleang-travis-ci/gamess.00.x tddft-ch2nh2-conint 

          ******************************************************
          *         GAMESS VERSION = 20 APR 2017 (R1)          *
          *             FROM IOWA STATE UNIVERSITY             *
          * M.W.SCHMIDT, K.K.BALDRIDGE, J.A.BOATZ, S.T.ELBERT, *
          *   M.S.GORDON, J.H.JENSEN, S.KOSEKI, N.MATSUNAGA,   *
          *          K.A.NGUYEN, S.J.SU, T.L.WINDUS,           *
          *       TOGETHER WITH M.DUPUIS, J.A.MONTGOMERY       *
          *         J.COMPUT.CHEM.  14, 1347-1363(1993)        *
          **************** 64 BIT LINUX VERSION ****************

  SINCE 1993, STUDENTS AND POSTDOCS WORKING AT IOWA STATE UNIVERSITY
  AND ALSO IN THEIR VARIOUS JOBS AFTER LEAVING ISU HAVE MADE IMPORTANT
  CONTRIBUTIONS TO THE CODE:
     IVANA ADAMOVIC, CHRISTINE AIKENS, YURI ALEXEEV, POOJA ARORA,
     ANDREY ASADCHEV, ROB BELL, PRADIPTA BANDYOPADHYAY, JONATHAN BENTZ,
     BRETT BODE, KURT BRORSEN, CALEB CARLIN, GALINA CHABAN, WEI CHEN,
     CHEOL HO CHOI, PAUL DAY, ALBERT DEFUSCO, NUWAN DESILVA, TIM DUDLEY,
     DMITRI FEDOROV, GRAHAM FLETCHER, MARK FREITAG, KURT GLAESEMANN,
     DAN KEMP, GRANT MERRILL, NORIYUKI MINEZAWA, JONATHAN MULLIN,
     TAKESHI NAGATA, SEAN NEDD, HEATHER NETZLOFF, BOSILJKA NJEGIC, RYAN OLSON,
     MIKE PAK, SPENCER PRUITT, LUKE ROSKOP, JIM SHOEMAKER, LYUDMILA SLIPCHENKO,
     TONY SMITH, SAROM SOK LEANG, JIE SONG, TETSUYA TAKETSUGU, SIMON WEBB,
     PENG XU, SOOHAENG YOO, FEDERICO ZAHARIEV

  ADDITIONAL CODE HAS BEEN PROVIDED BY COLLABORATORS IN OTHER GROUPS:
     IOWA STATE UNIVERSITY:
          JOE IVANIC, AARON WEST, LAIMUTIS BYTAUTAS, KLAUS RUEDENBERG
     UNIVERSITY OF TOKYO: KIMIHIKO HIRAO, TAKAHITO NAKAJIMA,
          TAKAO TSUNEDA, MUNEAKI KAMIYA, SUSUMU YANAGISAWA,
          KIYOSHI YAGI, MAHITO CHIBA, SEIKEN TOKURA, NAOAKI KAWAKAMI
     UNIVERSITY OF AARHUS: FRANK JENSEN
     UNIVERSITY OF IOWA: VISVALDAS KAIRYS, HUI LI
     NATIONAL INST. OF STANDARDS AND TECHNOLOGY: WALT STEVENS, DAVID GARMER
     UNIVERSITY OF PISA: BENEDETTA MENNUCCI, JACOPO TOMASI
     UNIVERSITY OF MEMPHIS: HENRY KURTZ, PRAKASHAN KORAMBATH
     UNIVERSITY OF ALBERTA: TOBY ZENG, MARIUSZ KLOBUKOWSKI
     UNIVERSITY OF NEW ENGLAND: MARK SPACKMAN
     MIE UNIVERSITY: HIROAKI UMEDA
     NAT. INST. OF ADVANCED INDUSTRIAL SCIENCE AND TECHNOLOGY: KAZUO KITAURA
     MICHIGAN STATE UNIVERSITY:
          KAROL KOWALSKI, MARTA WLOCH, JEFFREY GOUR, JESSE LUTZ,
          WEI LI, PIOTR PIECUCH
     UNIVERSITY OF SILESIA: MONIKA MUSIAL, STANISLAW KUCHARSKI
     FACULTES UNIVERSITAIRES NOTRE-DAME DE LA PAIX:
          OLIVIER QUINET, BENOIT CHAMPAGNE
     UNIVERSITY OF CALIFORNIA - SANTA BARBARA: BERNARD KIRTMAN
     INSTITUTE FOR MOLECULAR SCIENCE:
          KAZUYA ISHIMURA, MICHIO KATOUDA, AND SHIGERU NAGASE
     UNIVERSITY OF NOTRE DAME: ANNA POMOGAEVA, DAN CHIPMAN
     KYUSHU UNIVERSITY:
          HARUYUKI NAKANO,
          FENG LONG GU, JACEK KORCHOWIEC, MARCIN MAKOWSKI, AND YURIKO AOKI,
          HIROTOSHI MORI AND EISAKU MIYOSHI
     PENNSYLVANIA STATE UNIVERSITY:
          TZVETELIN IORDANOV, CHET SWALINA, JONATHAN SKONE,
          SHARON HAMMES-SCHIFFER
     WASEDA UNIVERSITY:
          MASATO KOBAYASHI, TOMOKO AKAMA, TSUGUKI TOUMA,
          TAKESHI YOSHIKAWA, YASUHIRO IKABATA, JUNJI SEINO,
          YUYA NAKAJIMA, HIROMI NAKAI
     NANJING UNIVERSITY: SHUHUA LI
     UNIVERSITY OF NEBRASKA:
          PEIFENG SU, DEJUN SI, NANDUN THELLAMUREGE, YALI WANG, HUI LI
     UNIVERSITY OF ZURICH: ROBERTO PEVERATI, KIM BALDRIDGE
     N. COPERNICUS UNIVERSITY AND JACKSON STATE UNIVERSITY:
          MARIA BARYSZ
     UNIVERSITY OF COPENHAGEN: Jimmy Kromann, CASPER STEINMANN
     TOKYO INSTITUTE OF TECHNOLOGY: HIROYA NAKATA
     NAGOYA UNIVERSITY: YOSHIO NISHIMOTO, STEPHAN IRLE
     MOSCOW STATE UNIVERSITY: VLADIMIR MIRONOV

 EXECUTION OF GAMESS BEGUN Wed Aug  9 21:28:41 2017

            ECHO OF THE FIRST FEW INPUT CARDS -
 INPUT CARD>!  CH2NH2+...test case from Noriyuki...April 2011                               
 INPUT CARD>!  conical intersection search, using Tamm/Dancoff TD-DFT potential surfaces    
 INPUT CARD>!                                                                               
 INPUT CARD>!  the search for intersection between G.S. and 1st E.S. goes like:             
 INPUT CARD>!     NSERCH:   0  E= -94.7961010950  R.M.S.=  0.0004100                        
 INPUT CARD>!     NSERCH:   1  E= -94.7970525288  R.M.S.=  0.0000463                        
 INPUT CARD>!     NSERCH:   2  E= -94.7969682264  R.M.S.=  0.0000094                        
 INPUT CARD>!                                                                               
 INPUT CARD>!  the initial geometry has these states,                                       
 INPUT CARD>!       STATE       ENERGY     EXCITATION  TRANSITION DIPOLE, A.U.  OSCILLATOR  
 INPUT CARD>!                  HARTREE          EV         X       Y       Z     STRENGTH   
 INPUT CARD>!       0  A    -94.7969708316    0.000                                         
 INPUT CARD>!       1  A    -94.7961010950    0.024     0.0242  0.0073 -0.0984    0.000     
 INPUT CARD>!       2  A    -94.5473539042    6.792     0.0065  0.0083  0.0383    0.000     
 INPUT CARD>!       3  A    -94.5185296800    7.577     0.0048  0.0017 -0.0536    0.001     
 INPUT CARD>!  while the final geometry is                                                  
 INPUT CARD>!       STATE       ENERGY     EXCITATION  TRANSITION DIPOLE, A.U.  OSCILLATOR  
 INPUT CARD>!                  HARTREE          EV         X       Y       Z     STRENGTH   
 INPUT CARD>!       0  A    -94.7969643377    0.000                                         
 INPUT CARD>!       1  A    -94.7969682325    0.000     0.0241  0.0061 -0.0741    0.000     
 INPUT CARD>!       2  A    -94.5474790844    6.789     0.0064  0.0077  0.0280    0.000     
 INPUT CARD>!       3  A    -94.5186688151    7.573    -0.0035 -0.0011  0.0535    0.001     
 INPUT CARD>!                                                                               
 INPUT CARD>!  this run takes 119 seconds on 2.66 GHz Cloverton (22 July 2014)              
 INPUT CARD>!      (results unchanged since 2011)                                           
 INPUT CARD>!                                                                               
 INPUT CARD> $CONTRL RUNTYP=CONICAL SCFTYP=RHF DFTTYP=B3LYP TDDFT=EXCITE icharg=+1 $end     
 INPUT CARD> $SYSTEM MWORDS=10 MEMDDI=5 $END                                                
 INPUT CARD> $STATPT METHOD=RFO DXMAX=0.2 UPHESS=BFGS $END                                  
 INPUT CARD> $CONICL OPTTYP=BPUPD IXROOT(1)=0,1, DEBUG=.F. $END                             
 INPUT CARD>!-----------------------------------------------------------------------        
 INPUT CARD>! Wave function                                                                 
 INPUT CARD>!-----------------------------------------------------------------------        
 INPUT CARD> $GUESS GUESS=MOREAD $END                                                       
 INPUT CARD> $BASIS GBASIS=N31 NGAUSS=6 NDFUNC=1 NPFUNC=1 $END                              
 INPUT CARD> $TDDFT NSTATE=3 IROOT=1 TAMMD=.T. $END                                         
 INPUT CARD>!-----------------------------------------------------------------------        
 INPUT CARD>! Geometry                                                                      
 INPUT CARD>!-----------------------------------------------------------------------        
 INPUT CARD> $DATA                                                                          
 INPUT CARD>CH2NH2+ TDA-B3LYP/6-31G(d,p) S0/S1                                              
 INPUT CARD>C1                                                                              
 INPUT CARD>C    6.0  -0.0010881502   0.0123230620   0.6539897525                           
 INPUT CARD>N    7.0   0.0045461786   0.0011067826  -0.6883826624                           
 INPUT CARD>H    1.0   0.9318262038   0.1711599201   1.2240242374                           
 INPUT CARD>H    1.0  -0.9298008600   0.1170336600   1.2185050133                           
 INPUT CARD>H    1.0  -0.0277332367   0.8617165148  -1.2068867647                           
 INPUT CARD>H    1.0   0.0222498644  -0.8633399395  -1.2012495760                           
 INPUT CARD> $END                                                                           
 INPUT CARD>                                                                                
   10000000 WORDS OF MEMORY AVAILABLE

     BASIS OPTIONS
     -------------
     GBASIS=N31          IGAUSS=       6      POLAR=POPN31  
     NDFUNC=       1     NFFUNC=       0     DIFFSP=       F
     NPFUNC=       1      DIFFS=       F     BASNAM=        


     RUN TITLE
     ---------
 CH2NH2+ TDA-B3LYP/6-31G(d,p) S0/S1                                              

 THE POINT GROUP OF THE MOLECULE IS C1      
 THE ORDER OF THE PRINCIPAL AXIS IS     0

 ATOM      ATOMIC                      COORDINATES (BOHR)
           CHARGE         X                   Y                   Z
 C           6.0    -0.0020563057        0.0232872105        1.2358614310
 N           7.0     0.0085910318        0.0020915158       -1.3008546066
 H           1.0     1.7608961934        0.3234453491        2.3130704110
 H           1.0    -1.7570688485        0.2211615487        2.3026405898
 H           1.0    -0.0524082181        1.6284080921       -2.2806852835
 H           1.0     0.0420461470       -1.6314759199       -2.2700325415

          INTERNUCLEAR DISTANCES (ANGS.)
          ------------------------------

                1 C          2 N          3 H          4 H          5 H     

   1 C       0.0000000    1.3424311 *  1.1047614 *  1.0918558 *  2.0457372 *
   2 N       1.3424311 *  0.0000000    2.1321507 *  2.1266556 *  1.0052550 *
   3 H       1.1047614 *  2.1321507 *  0.0000000    1.8624219 *  2.7031373 *
   4 H       1.0918558 *  2.1266556 *  1.8624219 *  0.0000000    2.6927317 *
   5 H       2.0457372 *  1.0052550 *  2.7031373 *  2.6927317 *  0.0000000  
   6 H       2.0516441 *  1.0052930 *  2.7891705 *  2.7789828 *  1.7257896 *

                6 H     

   1 C       2.0516441 *
   2 N       1.0052930 *
   3 H       2.7891705 *
   4 H       2.7789828 *
   5 H       1.7257896 *
   6 H       0.0000000  

  * ... LESS THAN  3.000


     ATOMIC BASIS SET
     ----------------
 THE CONTRACTED PRIMITIVE FUNCTIONS HAVE BEEN UNNORMALIZED
 THE CONTRACTED BASIS FUNCTIONS ARE NOW NORMALIZED TO UNITY

  SHELL TYPE  PRIMITIVE        EXPONENT          CONTRACTION COEFFICIENT(S)

 C         

      1   S       1          3047.5248800    0.001834737132
      1   S       2           457.3695180    0.014037322813
      1   S       3           103.9486850    0.068842622264
      1   S       4            29.2101553    0.232184443216
      1   S       5             9.2866630    0.467941348435
      1   S       6             3.1639270    0.362311985337

      2   L       7             7.8682723   -0.119332419775    0.068999066591
      2   L       8             1.8812885   -0.160854151696    0.316423960957
      2   L       9             0.5442493    1.143456437840    0.744308290898

      3   L      10             0.1687145    1.000000000000    1.000000000000

      4   D      11             0.8000000    1.000000000000

 N         

      5   S      12          4173.5114600    0.001834772160
      5   S      13           627.4579110    0.013994627002
      5   S      14           142.9020930    0.068586551812
      5   S      15            40.2343293    0.232240873040
      5   S      16            12.8202129    0.469069948082
      5   S      17             4.3904370    0.360455199063

      6   L      18            11.6263619   -0.114961181702    0.067579743878
      6   L      19             2.7162798   -0.169117478561    0.323907295893
      6   L      20             0.7722184    1.145851947027    0.740895139755

      7   L      21             0.2120315    1.000000000000    1.000000000000

      8   D      22             0.8000000    1.000000000000

 H         

      9   S      23            18.7311370    0.033494604338
      9   S      24             2.8253944    0.234726953484
      9   S      25             0.6401217    0.813757326146

     10   S      26             0.1612778    1.000000000000

     11   P      27             1.1000000    1.000000000000

 H         

     12   S      28            18.7311370    0.033494604338
     12   S      29             2.8253944    0.234726953484
     12   S      30             0.6401217    0.813757326146

     13   S      31             0.1612778    1.000000000000

     14   P      32             1.1000000    1.000000000000

 H         

     15   S      33            18.7311370    0.033494604338
     15   S      34             2.8253944    0.234726953484
     15   S      35             0.6401217    0.813757326146

     16   S      36             0.1612778    1.000000000000

     17   P      37             1.1000000    1.000000000000

 H         

     18   S      38            18.7311370    0.033494604338
     18   S      39             2.8253944    0.234726953484
     18   S      40             0.6401217    0.813757326146

     19   S      41             0.1612778    1.000000000000

     20   P      42             1.1000000    1.000000000000

 TOTAL NUMBER OF BASIS SET SHELLS             =   20
 NUMBER OF CARTESIAN GAUSSIAN BASIS FUNCTIONS =   50
 NUMBER OF ELECTRONS                          =   16
 CHARGE OF MOLECULE                           =    1
 SPIN MULTIPLICITY                            =    1
 NUMBER OF OCCUPIED ORBITALS (ALPHA)          =    8
 NUMBER OF OCCUPIED ORBITALS (BETA )          =    8
 TOTAL NUMBER OF ATOMS                        =    6
 THE NUCLEAR REPULSION ENERGY IS       37.6496072031

     LEBEDEV GRID-BASED DFT OPTIONS
     ------------------------------
     DFTTYP=B3LYP   
     NRAD  =      96     NLEB  =     302
     NRAD0 =      24     NLEB0 =     110
     SWOFF =    5.00E-03 (PURE SCF -> DFT)
     SWITCH=    3.00E-04 (COARSE -> TIGHT GRID)
     THRESH=    0.00E+00 GTHRE=    1.00E+00

 GRIMME'S EMPIRICAL DISPERSION CORRECTION= F

     $CONTRL OPTIONS
     ---------------
 SCFTYP=RHF          RUNTYP=CONICAL      EXETYP=RUN     
 MPLEVL=       0     CITYP =NONE         CCTYP =NONE         VBTYP =NONE    
 DFTTYP=B3LYP        TDDFT =EXCITE  
 MULT  =       1     ICHARG=       1     NZVAR =       0     COORD =UNIQUE  
 PP    =NONE         RELWFN=NONE         LOCAL =NONE         NUMGRD=       F
 ISPHER=      -1     NOSYM =       0     MAXIT =      30     UNITS =ANGS    
 PLTORB=       F     MOLPLT=       F     AIMPAC=       F     FRIEND=        
 NPRINT=       7     IREST =       0     GEOM  =INPUT   
 NORMF =       0     NORMP =       0     ITOL  =      20     ICUT  =       9
 INTTYP=BEST         GRDTYP=BEST         QMTTOL= 1.0E-06

     $SYSTEM OPTIONS
     ---------------
  REPLICATED MEMORY=    10000000 WORDS (ON EVERY NODE).
 DISTRIBUTED MEMDDI=           5 MILLION WORDS IN AGGREGATE,
 MEMDDI DISTRIBUTED OVER   1 PROCESSORS IS     5000000 WORDS/PROCESSOR.
 TOTAL MEMORY REQUESTED ON EACH PROCESSOR=    15000000 WORDS.
 TIMLIM=      525600.00 MINUTES, OR     365.0 DAYS.
 PARALL= F  BALTYP=  DLB     KDIAG=    0  COREFL= F
 MXSEQ2=     300 MXSEQ3=     150  mem10=         0

          ----------------
          PROPERTIES INPUT
          ----------------

     MOMENTS            FIELD           POTENTIAL          DENSITY
 IEMOM =       1   IEFLD =       0   IEPOT =       0   IEDEN =       0
 WHERE =COMASS     WHERE =NUCLEI     WHERE =NUCLEI     WHERE =NUCLEI  
 OUTPUT=BOTH       OUTPUT=BOTH       OUTPUT=BOTH       OUTPUT=BOTH    
 IEMINT=       0   IEFINT=       0                     IEDINT=       0
                                                       MORB  =       0
          EXTRAPOLATION IN EFFECT
          DIIS IN EFFECT
 ORBITAL PRINTING OPTION: NPREO=     1    50     2     1

     -------------------------------
     INTEGRAL TRANSFORMATION OPTIONS
     -------------------------------
     NWORD  =            0
     CUTOFF = 1.0E-09     MPTRAN =       0
     DIRTRF =       F     AOINTS =DUP     

          ----------------------
          INTEGRAL INPUT OPTIONS
          ----------------------
 NOPK  =       1 NORDER=       0 SCHWRZ=       T

          ----------------------
          TDDFT INPUT PARAMETERS
          ----------------------
 NSTATE=       3  IROOT=       1   MULT=       1
 MAXVEC=      50 NTRIAL=       5 CNVTOL=  1.00E-07
 TDPRP =       F  TAMMD=       T    TPA=       F
 ALPHA =       F   BETA=       F  PFREQ=    0.00    0.00
   NRAD=      48   NLEB=     110

     ------------------------------------------
     THE POINT GROUP IS C1 , NAXIS= 0, ORDER= 1
     ------------------------------------------

     DIMENSIONS OF THE SYMMETRY SUBSPACES ARE
 A   =   50

 ..... DONE SETTING UP THE RUN .....
 STEP CPU TIME =     0.02 TOTAL CPU TIME =        0.0 (    0.0 MIN)
 TOTAL WALL CLOCK TIME=        0.0 SECONDS, CPU UTILIZATION IS  66.67%


          -----------------------------
          STATIONARY POINT LOCATION RUN
          -----------------------------

 OBTAINING INITIAL HESSIAN, HESS=GUESS   
 CARTESIAN COORDINATE OPTIMIZATION USING BADGER'S RULE FORCE CONSTANT GUESS

          PARAMETERS CONTROLLING GEOMETRY SEARCH ARE
          METHOD =RFO                 UPHESS =BFGS    
          NNEG   =         0          NFRZ   =         0
          NSTEP  =        50          IFOLOW =         1
          HESS   =GUESS               RESTAR =         F
          IHREP  =         0          HSSEND =         F
          NPRT   =         0          NPUN   =         0
          OPTTOL = 1.000E-04          RMIN   = 1.500E-03
          RMAX   = 1.000E-01          RLIM   = 7.000E-02
          DXMAX  = 2.000E-01          PURIFY =         F
          MOVIE  =         F          TRUPD  =         T
          TRMAX  = 3.000E-01          TRMIN  = 5.000E-02
          ITBMAT =         5          STPT   =         F
          STSTEP = 1.000E-02          PROJCT=          T


          ---------------------------------------
          CONICAL INTERSECTION POINT LOCATION RUN
          ---------------------------------------

          IXROOT(1)=          0          IXROOT(2)=          1
          SYMOFF   =          T          DEBUG    =          F
          TOLSTP   =  1.000E-06          TOLGRD   =  5.000E-03
          ALPHA    =  2.000E-02          SIGMA    =  3.500E+00

 CONICAL INTERSECTION SEARCH BY BRANCHING PLANE UPDATING METHOD

 REFERENCE: S. MAEDA, K. OHNO, AND K. MOROKUMA,
            J. CHEM. THEORY COMPUT. 6, 1538 (2010).

 PROGRAMMED BY NORIYUKI MINEZAWA


 BEGINNING GEOMETRY SEARCH POINT NSERCH=   0 ...

 COORDINATES OF ALL ATOMS ARE (ANGS)
   ATOM   CHARGE       X              Y              Z
 ------------------------------------------------------------
 C           6.0  -0.0010881502   0.0123230620   0.6539897525
 N           7.0   0.0045461786   0.0011067826  -0.6883826624
 H           1.0   0.9318262038   0.1711599201   1.2240242374
 H           1.0  -0.9298008600   0.1170336600   1.2185050133
 H           1.0  -0.0277332367   0.8617165148  -1.2068867647
 H           1.0   0.0222498644  -0.8633399395  -1.2012495760

          ********************
          1 ELECTRON INTEGRALS
          ********************
 ...... END OF ONE-ELECTRON INTEGRALS ......
 STEP CPU TIME =     0.00 TOTAL CPU TIME =        0.0 (    0.0 MIN)
 TOTAL WALL CLOCK TIME=        0.0 SECONDS, CPU UTILIZATION IS  66.67%

          -------------
          GUESS OPTIONS
          -------------
          GUESS =MOREAD            NORB  =       0          NORDER=       0
          MIX   =       F          PRTMO =       F          PUNMO =       F
          TOLZ  = 1.0E-08          TOLE  = 1.0E-05
          SYMDEN=       F          PURIFY=       F

 INITIAL GUESS ORBITALS GENERATED BY MOREAD   ROUTINE.

 SYMMETRIES FOR INITIAL GUESS ORBITALS FOLLOW.   BOTH SET(S).
     8 ORBITALS ARE OCCUPIED (    2 CORE ORBITALS).
     1=A        2=A        3=A        4=A        5=A        6=A        7=A   
     8=A        9=A       10=A       11=A       12=A       13=A       14=A   
    15=A       16=A       17=A       18=A       19=A       20=A       21=A   
    22=A       23=A       24=A       25=A       26=A       27=A       28=A   
    29=A       30=A       31=A       32=A       33=A       34=A       35=A   
    36=A       37=A       38=A       39=A       40=A       41=A       42=A   
    43=A       44=A       45=A       46=A       47=A       48=A       49=A   
    50=A   
 ...... END OF INITIAL ORBITAL SELECTION ......
 STEP CPU TIME =     0.01 TOTAL CPU TIME =        0.0 (    0.0 MIN)
 TOTAL WALL CLOCK TIME=        0.0 SECONDS, CPU UTILIZATION IS 100.00%

                    ----------------------
                    AO INTEGRAL TECHNOLOGY
                    ----------------------
     S,P,L SHELL ROTATED AXIS INTEGRALS, REPROGRAMMED BY
        KAZUYA ISHIMURA (IMS) AND JOSE SIERRA (SYNSTAR).
     S,P,D,L SHELL ROTATED AXIS INTEGRALS PROGRAMMED BY
        KAZUYA ISHIMURA (INSTITUTE FOR MOLECULAR SCIENCE).
     S,P,D,F,G SHELL TO TOTAL QUARTET ANGULAR MOMENTUM SUM 5,
        ERIC PROGRAM BY GRAHAM FLETCHER (ELORET AND NASA ADVANCED
        SUPERCOMPUTING DIVISION, AMES RESEARCH CENTER).
     S,P,D,F,G,L SHELL GENERAL RYS QUADRATURE PROGRAMMED BY
        MICHEL DUPUIS (PACIFIC NORTHWEST NATIONAL LABORATORY).

          --------------------
          2 ELECTRON INTEGRALS
          --------------------

 THE -PK- OPTION IS OFF, THE INTEGRALS ARE NOT IN SUPERMATRIX FORM.
 STORING   15000 INTEGRALS/RECORD ON DISK, USING 12 BYTES/INTEGRAL.
 TWO ELECTRON INTEGRAL EVALUATION REQUIRES   90606 WORDS OF MEMORY.
 SCHWARZ INEQUALITY OVERHEAD:      1275 INTEGRALS, T=        0.00
 II,JST,KST,LST =  1  1  1  1 NREC =         1 INTLOC =    1
 II,JST,KST,LST =  2  1  1  1 NREC =         1 INTLOC =    2
 II,JST,KST,LST =  3  1  1  1 NREC =         1 INTLOC =   34
 II,JST,KST,LST =  4  1  1  1 NREC =         1 INTLOC =  214
 II,JST,KST,LST =  5  1  1  1 NREC =         1 INTLOC = 1189
 II,JST,KST,LST =  6  1  1  1 NREC =         1 INTLOC = 3180
 II,JST,KST,LST =  7  1  1  1 NREC =         2 INTLOC =  911
 II,JST,KST,LST =  8  1  1  1 NREC =         3 INTLOC = 8134
 II,JST,KST,LST =  9  1  1  1 NREC =         7 INTLOC = 5968
 II,JST,KST,LST = 10  1  1  1 NREC =         8 INTLOC = 5862
 II,JST,KST,LST = 11  1  1  1 NREC =         9 INTLOC = 7261
 II,JST,KST,LST = 12  1  1  1 NREC =        13 INTLOC = 5845
 II,JST,KST,LST = 13  1  1  1 NREC =        14 INTLOC =14123
 II,JST,KST,LST = 14  1  1  1 NREC =        16 INTLOC = 9448
 II,JST,KST,LST = 15  1  1  1 NREC =        22 INTLOC = 7612
 II,JST,KST,LST = 16  1  1  1 NREC =        24 INTLOC =11911
 II,JST,KST,LST = 17  1  1  1 NREC =        27 INTLOC = 3939
 II,JST,KST,LST = 18  1  1  1 NREC =        35 INTLOC = 9479
 II,JST,KST,LST = 19  1  1  1 NREC =        38 INTLOC =12599
 II,JST,KST,LST = 20  1  1  1 NREC =        42 INTLOC = 4486
 SCHWARZ INEQUALITY TEST SKIPPED         160 INTEGRAL BLOCKS.
 TOTAL NUMBER OF NONZERO TWO-ELECTRON INTEGRALS =              790812
         53 INTEGRAL RECORDS WERE STORED ON DISK FILE  8.
  ...... END OF TWO-ELECTRON INTEGRALS .....
 STEP CPU TIME =     0.06 TOTAL CPU TIME =        0.1 (    0.0 MIN)
 TOTAL WALL CLOCK TIME=        0.1 SECONDS, CPU UTILIZATION IS  90.00%

          --------------------------
             R-B3LYP SCF CALCULATION
          --------------------------

     NUCLEAR ENERGY =        37.6496072031
     MAXIT =   30     NPUNCH=    2
     EXTRAP=T  DAMP=F  SHIFT=F  RSTRCT=F  DIIS=T  DEM=F  SOSCF=F
         DENSITY MATRIX CONVERGENCE THRESHOLD=  1.00E-06
     COARSE -> FINE DFT GRID SWITCH THRESHOLD=  3.00E-04 (SWITCH IN $DFT)
                   HF -> DFT SWITCH THRESHOLD=  0.00E+00 (SWOFF IN $DFT)
     MEMORY REQUIRED FOR RHF ITERS=    274737 WORDS.

 DFT CODE IS SWITCHING FROM THE FINE GRID NRAD= 96,  NLEB=  302
                      TO THE COARSE GRID NRAD0= 24, NLEB0=  110

     EXCHANGE FUNCTIONAL   =B88&HFX   
     CORRELATION FUNCTIONAL=LYP88&VWN5
     DFT THRESHOLD         =.230E-07
     GRID CHANGE THRESHOLD =.300E-03
 FOR AN EULER-MACLAURIN QUADRATURE USING  96 RADIAL POINTS:
 SMALLEST GAUSSIAN PRIMITIVE EXPONENT=        0.1612777588 OF TYPE -S-
 ON ATOM NUMBER   3 HAS RADIAL NORMALIZATION=  1.000000
  LARGEST GAUSSIAN PRIMITIVE EXPONENT=     4173.5114600000 OF TYPE -S-
 ON ATOM NUMBER   2 HAS RADIAL NORMALIZATION=  1.000000

 ITER EX DEM     TOTAL ENERGY        E CHANGE  DENSITY CHANGE    DIIS ERROR
          * * *   INITIATING DIIS PROCEDURE   * * *
   1  0  0      -94.7960706693   -94.7960706693   0.000844782   0.001015110
   2  1  0      -94.7960729623    -0.0000022931   0.000186034   0.000145153
 DFT CODE IS SWITCHING BACK TO THE FINE GRID
          * * *   INITIATING DIIS PROCEDURE   * * *
   3  2  0      -94.7969685548    -0.0008955924   0.000853415   0.000999834
   4  3  0      -94.7969707926    -0.0000022378   0.000220957   0.000123322
   5  4  0      -94.7969708016    -0.0000000091   0.000108439   0.000112311
   6  5  0      -94.7969708281    -0.0000000265   0.000026695   0.000025528
   7  6  0      -94.7969708308    -0.0000000027   0.000010135   0.000001752
   8  7  0      -94.7969708309    -0.0000000001   0.000007515   0.000001400
   9  8  0      -94.7969708309    -0.0000000000   0.000009312   0.000001355
  10  9  0      -94.7969708309    -0.0000000001   0.000049161   0.000001300
  11 10  0      -94.7969708312    -0.0000000002   0.000153145   0.000001017
  12 11  0      -94.7969708316    -0.0000000004   0.000023864   0.000000144
  13 12  0      -94.7969708316    -0.0000000000   0.000001372   0.000000016
  14 13  0      -94.7969708316    -0.0000000000   0.000000059   0.000000001

          -----------------
          DENSITY CONVERGED
          -----------------
     TIME TO FORM FOCK OPERATORS=       7.7 SECONDS (       0.6 SEC/ITER)
     TIME TO SOLVE SCF EQUATIONS=       0.0 SECONDS (       0.0 SEC/ITER)

 FINAL R-B3LYP ENERGY IS      -94.7969708316 AFTER  14 ITERATIONS
 DFT EXCHANGE + CORRELATION ENERGY =       -10.8576527696
 TOTAL ELECTRON NUMBER             =        16.0000875741

          ------------
          EIGENVECTORS
          ------------

                      1          2          3          4          5
                  -14.5980   -10.6284    -1.2007    -0.9532    -0.7900
                     A          A          A          A          A   
    1  C  1  S    0.000038   0.992897  -0.122429  -0.165751   0.000502
    2  C  1  S    0.000266   0.047474   0.259547   0.372156  -0.008446
    3  C  1  X    0.000001  -0.000009  -0.000091  -0.004332  -0.015949
    4  C  1  Y   -0.000001  -0.000162  -0.000069   0.019633   0.163874
    5  C  1  Z   -0.000262  -0.000606  -0.151048   0.117081   0.160669
    6  C  1  S   -0.000370  -0.009781   0.123877   0.332246   0.018817
    7  C  1  X   -0.000011   0.000036  -0.000310  -0.000908  -0.004644
    8  C  1  Y    0.000021  -0.000234   0.002410   0.007968   0.062511
    9  C  1  Z    0.000307  -0.000271   0.013264   0.034294   0.042550
   10  C  1 XX    0.000032  -0.009079  -0.016447   0.000268   0.007809
   11  C  1 YY   -0.000029  -0.009535  -0.014761  -0.014785   0.000918
   12  C  1 ZZ   -0.000045  -0.008633   0.015806  -0.015218  -0.006581
   13  C  1 XY    0.000003   0.000011   0.000110   0.000501   0.000082
   14  C  1 XZ   -0.000002  -0.000014  -0.000070  -0.000260   0.000202
   15  C  1 YZ    0.000004   0.000075   0.000621   0.001239  -0.018829
   16  N  2  S    0.992572  -0.000197  -0.183661   0.093030  -0.003293
   17  N  2  S    0.034962  -0.000101   0.378274  -0.197931   0.005245
   18  N  2  X   -0.000035   0.000003  -0.001956   0.000635  -0.016438
   19  N  2  Y    0.000007  -0.000017   0.002148   0.006430   0.440864
   20  N  2  Z    0.000387  -0.000320   0.086044   0.200983  -0.159404
   21  N  2  S    0.004677   0.000993   0.361782  -0.251165   0.018530
   22  N  2  X    0.000012  -0.000008  -0.000859   0.000473  -0.008412
   23  N  2  Y   -0.000009   0.000165   0.000018   0.000959   0.232089
   24  N  2  Z   -0.000160   0.000208   0.036912   0.063224  -0.065376
   25  N  2 XX   -0.008481  -0.000040  -0.018625   0.007437  -0.000077
   26  N  2 YY   -0.008474  -0.000237  -0.003683  -0.005878   0.004477
   27  N  2 ZZ   -0.008422  -0.000644   0.007141   0.014399  -0.003684
   28  N  2 XY   -0.000001   0.000009  -0.000241   0.000405  -0.000779
   29  N  2 XZ    0.000001  -0.000002  -0.000136  -0.000337  -0.000023
   30  N  2 YZ    0.000001   0.000033   0.000026   0.000641   0.000191
   31  H  3  S   -0.000020  -0.000356   0.045638   0.146899   0.043177
   32  H  3  S   -0.000091   0.002056  -0.006176   0.032889   0.020372
   33  H  3  X    0.000018   0.000100  -0.005055  -0.011381  -0.002824
   34  H  3  Y    0.000003   0.000049  -0.000911  -0.001567   0.002035
   35  H  3  Z    0.000063   0.000052  -0.004855  -0.005136   0.000440
   36  H  4  S   -0.000025  -0.000371   0.046780   0.151820   0.053220
   37  H  4  S   -0.000098   0.002124  -0.006550   0.033813   0.026020
   38  H  4  X   -0.000019  -0.000093   0.005129   0.011560   0.002986
   39  H  4  Y    0.000003   0.000045  -0.000664  -0.001094   0.002101
   40  H  4  Z    0.000064   0.000042  -0.004930  -0.005245   0.000130
   41  H  5  S    0.000346   0.000056   0.103397  -0.122521   0.261507
   42  H  5  S   -0.000637   0.000311   0.002410  -0.027380   0.096515
   43  H  5  X    0.000001   0.000004   0.000436  -0.000492   0.000563
   44  H  5  Y   -0.000038  -0.000120  -0.011957   0.012236  -0.011545
   45  H  5  Z    0.000026   0.000181   0.008919  -0.003413   0.010775
   46  H  6  S    0.000346   0.000082   0.101590  -0.126500  -0.160301
   47  H  6  S   -0.000642   0.000440   0.001739  -0.028455  -0.052723
   48  H  6  X    0.000001  -0.000002  -0.000305   0.000326  -0.000010
   49  H  6  Y    0.000039   0.000106   0.011927  -0.012483  -0.004036
   50  H  6  Z    0.000026   0.000193   0.008675  -0.003706  -0.013151

                      6          7          8          9         10
                   -0.7799    -0.7609    -0.5021    -0.4356    -0.1379
                     A          A          A          A          A   
    1  C  1  S   -0.012272  -0.001634   0.001122   0.015410   0.075448
    2  C  1  S    0.012895   0.002383  -0.002406  -0.035712  -0.109820
    3  C  1  X   -0.034721   0.499335  -0.120769  -0.010787  -0.007979
    4  C  1  Y   -0.032863   0.015364   0.034909   0.613868  -0.024536
    5  C  1  Z    0.416489   0.033598  -0.001920  -0.045647   0.051609
    6  C  1  S    0.073983   0.009798  -0.005828  -0.071350  -1.036902
    7  C  1  X   -0.011457   0.184627  -0.024712  -0.011164  -0.011586
    8  C  1  Y   -0.013997   0.005990   0.027718   0.486683  -0.049063
    9  C  1  Z    0.115375   0.010477  -0.002688  -0.037997   0.282802
   10  C  1 XX    0.018485   0.001226   0.000564   0.002107   0.014530
   11  C  1 YY    0.002933   0.000444  -0.000230  -0.000481  -0.016477
   12  C  1 ZZ   -0.018063  -0.001324   0.000055   0.002731   0.037302
   13  C  1 XY    0.000105   0.004400  -0.003739   0.000107   0.001051
   14  C  1 XZ   -0.000998   0.010865  -0.048630   0.002566   0.000171
   15  C  1 YZ    0.008821   0.000347  -0.001384   0.004287   0.002752
   16  N  2  S   -0.005344  -0.000355  -0.001565  -0.003677  -0.137155
   17  N  2  S    0.005543   0.000408   0.003873   0.010497   0.240773
   18  N  2  X   -0.006582   0.179871   0.598085  -0.032822  -0.001399
   19  N  2  Y   -0.186305   0.001824   0.009398  -0.122276  -0.005408
   20  N  2  Z   -0.383509  -0.028285   0.000981   0.020138  -0.052766
   21  N  2  S    0.041121   0.002415   0.005462   0.008467   1.833482
   22  N  2  X   -0.003153   0.087204   0.483759  -0.027702  -0.002839
   23  N  2  Y   -0.099416   0.001316   0.009502  -0.098343  -0.009529
   24  N  2  Z   -0.156224  -0.012172  -0.000085   0.006004  -0.080282
   25  N  2 XX   -0.000277  -0.000277  -0.000648   0.000545  -0.021013
   26  N  2 YY    0.009797   0.000877   0.000351   0.000179  -0.038125
   27  N  2 ZZ   -0.007912  -0.000409   0.000242  -0.000918  -0.030767
   28  N  2 XY   -0.000157   0.000388  -0.000049   0.000201   0.000723
   29  N  2 XZ   -0.000621   0.014179   0.004825  -0.001148  -0.000317
   30  N  2 YZ    0.000827   0.000562   0.002618   0.037575  -0.002851
   31  H  3  S    0.102346   0.227576  -0.141988   0.029677   0.076853
   32  H  3  S    0.053036   0.118043  -0.169040   0.030689   0.418186
   33  H  3  X   -0.006178  -0.006494   0.001511  -0.001642   0.002356
   34  H  3  Y   -0.001302  -0.001617   0.001313   0.015285  -0.000842
   35  H  3  Z    0.001863  -0.007456  -0.000061  -0.001530   0.006435
   36  H  4  S    0.133133  -0.207315   0.142753   0.012821   0.073005
   37  H  4  S    0.068125  -0.106835   0.168956   0.010089   0.388772
   38  H  4  X    0.007051  -0.005295   0.001265   0.000585  -0.002311
   39  H  4  Y   -0.001314   0.001460   0.000454   0.015571  -0.001201
   40  H  4  Z    0.000904   0.007618  -0.000040  -0.001590   0.006177
   41  H  5  S    0.030280   0.006538  -0.009824  -0.131356  -0.106796
   42  H  5  S    0.020721   0.003031  -0.009506  -0.135439  -0.929445
   43  H  5  X   -0.000118   0.005205   0.019543  -0.001327   0.000451
   44  H  5  Y   -0.005972  -0.000371   0.000760   0.000112  -0.013313
   45  H  5  Z   -0.008302  -0.000401  -0.000068   0.001568   0.003799
   46  H  6  S    0.208217   0.010199   0.006933   0.123357  -0.120259
   47  H  6  S    0.085738   0.005078   0.006953   0.118697  -0.982571
   48  H  6  X   -0.000670   0.005124   0.019414  -0.001253  -0.000161
   49  H  6  Y    0.012166   0.000774   0.000402  -0.000328   0.013577
   50  H  6  Z    0.001557  -0.000212  -0.000087  -0.000342   0.004598

                     11         12         13         14         15
                   -0.1247    -0.0687    -0.0625     0.0064     0.2442
                     A          A          A          A          A   
    1  C  1  S   -0.112318   0.005386   0.011865   0.072279  -0.028737
    2  C  1  S    0.277771  -0.011438  -0.031533  -0.110822   0.438504
    3  C  1  X    0.019725   0.544792   0.024122  -0.009228   0.002283
    4  C  1  Y    0.057392   0.012977   0.021688   0.014193  -0.072683
    5  C  1  Z    0.244615  -0.002033  -0.019684   0.241389  -0.934857
    6  C  1  S    1.481996  -0.105420  -0.194030  -1.689814  -0.121289
    7  C  1  X    0.031398   1.208228   0.064708  -0.032693  -0.010593
    8  C  1  Y    0.133518   0.043460  -0.344785   0.054779   0.126304
    9  C  1  Z    0.663995  -0.002340  -0.036093   2.033887   1.276389
   10  C  1 XX   -0.028163   0.000575   0.001951  -0.047276   0.014601
   11  C  1 YY    0.004774  -0.000594  -0.002131  -0.009709   0.035613
   12  C  1 ZZ   -0.001401   0.001268   0.000569   0.050254  -0.003891
   13  C  1 XY   -0.001306  -0.008399   0.000141  -0.001266  -0.000702
   14  C  1 XZ   -0.000594  -0.023116  -0.000203  -0.000333   0.000427
   15  C  1 YZ   -0.004956   0.000860  -0.029349   0.000592   0.000267
   16  N  2  S   -0.036080  -0.001102  -0.000108  -0.055418   0.047135
   17  N  2  S    0.066865   0.001613  -0.003294   0.059784  -0.086163
   18  N  2  X   -0.007609  -0.109189  -0.016978   0.001326   0.002580
   19  N  2  Y    0.031434  -0.023659   0.423090  -0.002479   0.003466
   20  N  2  Z   -0.103640   0.008368   0.006637   0.423381  -0.079932
   21  N  2  S    0.624370   0.016045   0.002594   1.409082   0.458976
   22  N  2  X   -0.016656  -0.343939  -0.046832   0.004737   0.000405
   23  N  2  Y    0.054999  -0.060411   1.071711  -0.012048  -0.019836
   24  N  2  Z   -0.164128   0.020814   0.024213   1.594190  -0.342931
   25  N  2 XX   -0.017109   0.000163   0.000587  -0.027001  -0.052795
   26  N  2 YY   -0.003825  -0.000280  -0.001093   0.012664  -0.026730
   27  N  2 ZZ    0.006426  -0.000609  -0.002134  -0.014364   0.163286
   28  N  2 XY   -0.000481  -0.002950  -0.000228  -0.001257  -0.001056
   29  N  2 XZ    0.000789   0.026191   0.000436  -0.000732  -0.000887
   30  N  2 YZ    0.007026  -0.000720   0.026302   0.001114   0.004170
   31  H  3  S   -0.115864  -0.094540   0.000452  -0.041062  -0.079681
   32  H  3  S   -1.247673  -1.403197   0.076021  -0.248808  -0.183175
   33  H  3  X   -0.012885  -0.005658   0.001275  -0.012950   0.015361
   34  H  3  Y   -0.001072  -0.004325  -0.004388  -0.000613   0.004071
   35  H  3  Z    0.000560  -0.012000  -0.000900   0.022133   0.014409
   36  H  4  S   -0.105358   0.097100   0.008395  -0.040353  -0.084999
   37  H  4  S   -1.173812   1.516094   0.211363  -0.311049  -0.187655
   38  H  4  X    0.012651  -0.006220  -0.001581   0.013535  -0.016068
   39  H  4  Y    0.000160   0.004267  -0.004186  -0.000079   0.003118
   40  H  4  Z    0.001493   0.012824   0.000237   0.021744   0.013390
   41  H  5  S   -0.034981   0.005250  -0.096629   0.049364  -0.006409
   42  H  5  S   -0.495627   0.073109  -1.359515   0.673102  -0.007426
   43  H  5  X   -0.000112  -0.006775   0.000133  -0.000248   0.000553
   44  H  5  Y   -0.004669   0.000301  -0.009094   0.010138  -0.005722
   45  H  5  Z   -0.001020  -0.000238   0.008204   0.006181  -0.049849
   46  H  6  S   -0.003599  -0.004762   0.093955   0.047840   0.018030
   47  H  6  S   -0.276791  -0.059740   1.397209   0.635729  -0.016331
   48  H  6  X   -0.000296  -0.005218  -0.000265   0.000281   0.000169
   49  H  6  Y    0.002597   0.000234  -0.008752  -0.010281   0.004997
   50  H  6  Z   -0.003947   0.000597  -0.007275   0.005679  -0.055252

                     16         17         18         19         20
                    0.2615     0.3543     0.3791     0.4655     0.5256
                     A          A          A          A          A   
    1  C  1  S   -0.002363   0.004308  -0.071888  -0.017082  -0.000014
    2  C  1  S    0.047214   0.047598  -0.727543   0.156825  -0.031636
    3  C  1  X    0.027836  -0.586278  -0.035089  -0.008342  -0.668930
    4  C  1  Y   -1.024839  -0.015188  -0.022173  -0.000453  -0.020854
    5  C  1  Z    0.099671  -0.002257  -0.079054  -0.165062  -0.004006
    6  C  1  S   -0.019336  -0.091474   1.142766  -1.046453   0.062650
    7  C  1  X   -0.031981   1.826517   0.084866   0.028660   2.287124
    8  C  1  Y    1.211151   0.042724   0.094971   0.014847   0.068927
    9  C  1  Z   -0.073317  -0.045911   0.631819   0.529924  -0.001850
   10  C  1 XX    0.001310   0.012529  -0.195047   0.057575  -0.000848
   11  C  1 YY    0.003863  -0.007147   0.103398   0.027184  -0.001836
   12  C  1 ZZ    0.010207   0.008583  -0.159266  -0.133420  -0.000872
   13  C  1 XY    0.000149  -0.030482  -0.011140   0.000691  -0.017618
   14  C  1 XZ   -0.000236  -0.051817   0.000091  -0.001552  -0.005502
   15  C  1 YZ    0.011398   0.000591  -0.037170   0.014678  -0.000580
   16  N  2  S   -0.001954   0.001466  -0.008647   0.050547  -0.001888
   17  N  2  S    0.016886   0.007365  -0.164235  -0.122589   0.003978
   18  N  2  X   -0.004101  -0.559192  -0.038787   0.024530   0.763613
   19  N  2  Y    0.120988  -0.014514  -0.029244   0.004696   0.025253
   20  N  2  Z    0.018703   0.023084  -0.412478  -0.361049   0.001733
   21  N  2  S   -0.037989  -0.032867   0.386885   0.314280  -0.010637
   22  N  2  X    0.005776   0.079885   0.014700  -0.029705  -1.388917
   23  N  2  Y   -0.170593   0.000005   0.070787  -0.039628  -0.047128
   24  N  2  Z    0.024371  -0.036452   0.602443   1.286802  -0.027912
   25  N  2 XX    0.002979   0.000460  -0.018552  -0.131700   0.005426
   26  N  2 YY    0.007784   0.002204  -0.034406   0.210163  -0.006537
   27  N  2 ZZ   -0.006278   0.002283  -0.032882   0.042718  -0.000759
   28  N  2 XY    0.000438  -0.006821   0.000702  -0.011871  -0.010305
   29  N  2 XZ    0.000206   0.019009  -0.000937   0.002607   0.043133
   30  N  2 YZ   -0.014147  -0.001557   0.031919  -0.019921   0.001990
   31  H  3  S   -0.001003  -0.309876  -0.597777   0.162422   0.091305
   32  H  3  S   -0.039301  -0.673692  -0.103672  -0.068049  -1.305889
   33  H  3  X    0.002590   0.048419  -0.021198   0.013926   0.043875
   34  H  3  Y   -0.002494  -0.003877   0.004177   0.001921  -0.005160
   35  H  3  Z    0.005110  -0.016120  -0.000097  -0.020185   0.030744
   36  H  4  S   -0.000801   0.380956  -0.553078   0.159983  -0.087623
   37  H  4  S   -0.035807   0.708858  -0.054808  -0.034752   1.278033
   38  H  4  X   -0.002386   0.043402   0.029554  -0.013601   0.042194
   39  H  4  Y   -0.003883   0.005762   0.005888   0.001289   0.008136
   40  H  4  Z    0.005257   0.015946  -0.000064  -0.021039  -0.029826
   41  H  5  S   -0.049729   0.013161  -0.132532   0.730373  -0.022348
   42  H  5  S   -0.154074  -0.007048   0.090974  -0.143894   0.007642
   43  H  5  X   -0.000031  -0.018579  -0.000239  -0.001547  -0.013010
   44  H  5  Y    0.002759   0.000592  -0.021289   0.065281  -0.002841
   45  H  5  Z    0.030887  -0.002389   0.037062   0.010442  -0.000093
   46  H  6  S    0.066996   0.002456   0.040326   0.626401  -0.020968
   47  H  6  S    0.166007   0.001587  -0.004254  -0.076782  -0.001442
   48  H  6  X   -0.000055  -0.016920  -0.001527   0.002028  -0.008192
   49  H  6  Y   -0.001526  -0.001643   0.022038  -0.063560   0.001562
   50  H  6  Z   -0.026550  -0.001305   0.021092   0.020052  -0.000768

                     21         22         23         24         25
                    0.5458     0.5565     0.6183     0.6385     0.6666
                     A          A          A          A          A   
    1  C  1  S    0.008562  -0.001110   0.015069   0.005609  -0.003785
    2  C  1  S    0.174995   0.064840  -1.122958  -0.297509  -1.131269
    3  C  1  X    0.012715   0.491948   0.041652   0.008760   0.007241
    4  C  1  Y   -0.021401   0.017322  -0.058246  -0.130008  -0.011754
    5  C  1  Z    0.055605   0.018744  -0.413924  -0.075090  -0.075897
    6  C  1  S   -0.348431  -0.136717   2.210271   0.720028   3.798123
    7  C  1  X    0.001135  -0.731383  -0.093163   0.002682  -0.017682
    8  C  1  Y   -0.416161  -0.016624   0.202189  -0.312524   0.163764
    9  C  1  Z   -0.225854  -0.037747   0.996358   0.081106  -0.741611
   10  C  1 XX    0.032360  -0.002027   0.136492   0.037148  -0.083213
   11  C  1 YY   -0.025456   0.003084  -0.101120  -0.037257  -0.017640
   12  C  1 ZZ    0.026599   0.003048  -0.101069  -0.007813   0.060905
   13  C  1 XY    0.001358  -0.059062   0.004431   0.003208  -0.003414
   14  C  1 XZ   -0.002518  -0.273364  -0.017535  -0.002810  -0.006198
   15  C  1 YZ   -0.197574  -0.002296   0.007252  -0.046543   0.019766
   16  N  2  S    0.007914   0.000277  -0.018419   0.000322   0.030229
   17  N  2  S   -0.002683  -0.005513   0.199249   0.011947  -0.341958
   18  N  2  X    0.008072   0.269939  -0.007426   0.029025  -0.000488
   19  N  2  Y    0.068913   0.004548   0.184211  -0.930179   0.104092
   20  N  2  Z    0.091623   0.003592  -0.296151   0.040281   0.697319
   21  N  2  S   -0.043034   0.022811  -0.396508  -0.100641  -0.103221
   22  N  2  X   -0.030295  -0.397255   0.018792  -0.070567   0.005634
   23  N  2  Y    0.471565  -0.024275  -0.385291   2.285465  -0.317585
   24  N  2  Z   -0.133631  -0.007499   0.550435  -0.137496  -2.118527
   25  N  2 XX   -0.014337  -0.001775   0.078191   0.005357  -0.102631
   26  N  2 YY    0.035893  -0.001989  -0.052163   0.008458   0.145245
   27  N  2 ZZ   -0.001174   0.002614   0.008888  -0.007659  -0.099854
   28  N  2 XY    0.002000   0.001812   0.005372   0.000063  -0.008533
   29  N  2 XZ   -0.003498   0.144450   0.005838   0.004818   0.003635
   30  N  2 YZ    0.292119  -0.005499   0.046190  -0.089458  -0.005684
   31  H  3  S    0.010924  -0.721044   0.494889   0.111689  -0.013177
   32  H  3  S    0.207536   1.314433  -1.289116  -0.283078  -0.621865
   33  H  3  X    0.009595  -0.030539   0.065283   0.025280   0.025601
   34  H  3  Y   -0.052106  -0.013868   0.007243  -0.025038   0.017563
   35  H  3  Z   -0.009805  -0.049510   0.012330  -0.003037   0.021303
   36  H  4  S    0.049005   0.654110   0.568580   0.124781   0.004032
   37  H  4  S    0.151501  -1.163510  -1.481407  -0.307597  -0.669055
   38  H  4  X   -0.008125  -0.027423  -0.072926  -0.025087  -0.027575
   39  H  4  Y   -0.052275   0.014998   0.004608  -0.027587   0.016443
   40  H  4  Z   -0.006918   0.050334   0.020669  -0.001242   0.022116
   41  H  5  S   -0.623555   0.024394  -0.297732   0.014443   0.343441
   42  H  5  S    0.489826  -0.030095   0.785836  -1.418342  -1.021344
   43  H  5  X    0.000332  -0.029548   0.000852  -0.004350  -0.003131
   44  H  5  Y   -0.009039   0.000047  -0.068465   0.126455   0.076433
   45  H  5  Z    0.065554  -0.004842   0.059592  -0.044130  -0.030428
   46  H  6  S    0.813981  -0.023958  -0.130429  -0.002566   0.281962
   47  H  6  S   -0.703578   0.011892   0.155524   1.342549  -1.288175
   48  H  6  X   -0.001276  -0.032931  -0.002387  -0.003629   0.001758
   49  H  6  Y   -0.042615  -0.000044   0.020748   0.120288  -0.101037
   50  H  6  Z   -0.078501   0.000422   0.018341   0.049420  -0.036980

                     26         27         28         29         30
                    0.9163     1.0576     1.2144     1.4498     1.4626
                     A          A          A          A          A   
    1  C  1  S    0.005545  -0.000010   0.000207  -0.000473   0.014688
    2  C  1  S    0.327674  -0.000021   0.001128  -0.015991   0.156500
    3  C  1  X    0.002359  -0.060364   0.020640   0.037387   0.002956
    4  C  1  Y   -0.012068   0.001938   0.001064   0.000228   0.035257
    5  C  1  Z   -0.056298   0.000088  -0.000640  -0.004930   0.008349
    6  C  1  S   -2.515440   0.001038  -0.003269   0.040394  -0.514853
    7  C  1  X   -0.009766   0.087599   0.123878   0.951645   0.053383
    8  C  1  Y    0.027894   0.001653  -0.006197   0.047406  -0.562362
    9  C  1  Z    1.597827  -0.003315  -0.004266  -0.002920  -0.245342
   10  C  1 XX    0.183038  -0.032047   0.012646   0.008040  -0.300282
   11  C  1 YY   -0.072856   0.033015  -0.013347  -0.014404   0.293402
   12  C  1 ZZ   -0.090909  -0.000799   0.000727   0.002322   0.057301
   13  C  1 XY    0.009568   0.632495  -0.312450   0.203396  -0.009471
   14  C  1 XZ    0.001594  -0.149009   0.127289   0.304241  -0.015113
   15  C  1 YZ    0.002190   0.003213   0.019386  -0.015154   0.725009
   16  N  2  S   -0.077707   0.000219   0.000126   0.000303  -0.003562
   17  N  2  S   -1.679862   0.002020  -0.000006   0.009300  -0.151334
   18  N  2  X    0.001521  -0.013335   0.029068   0.174213   0.008951
   19  N  2  Y   -0.000103   0.002451   0.000780   0.007577  -0.068760
   20  N  2  Z   -0.150970   0.000193   0.000099   0.002725  -0.060916
   21  N  2  S    5.155483  -0.007869  -0.002832  -0.029477   0.264139
   22  N  2  X   -0.010661  -0.021021  -0.062324  -0.570995  -0.054872
   23  N  2  Y    0.015296  -0.005824   0.022261  -0.054184   1.038231
   24  N  2  Z    1.123632  -0.001719  -0.003157  -0.016871  -0.025181
   25  N  2 XX   -0.084862  -0.018751  -0.029877   0.003995  -0.097681
   26  N  2 YY   -0.345068   0.018622   0.031562  -0.000345   0.073712
   27  N  2 ZZ   -0.342851   0.001659  -0.000885  -0.002785  -0.012644
   28  N  2 XY    0.009700   0.380029   0.588333  -0.036728  -0.020739
   29  N  2 XZ    0.000134   0.112607  -0.118808  -0.710418  -0.028006
   30  N  2 YZ    0.001749  -0.000672  -0.013705  -0.017460  -0.077415
   31  H  3  S    0.109940   0.040289  -0.073177  -0.483917   0.168257
   32  H  3  S   -0.110723  -0.087397  -0.020662  -0.173629   0.127292
   33  H  3  X   -0.015166   0.000505   0.000222  -0.049201  -0.048213
   34  H  3  Y   -0.014392   0.241545  -0.185953   0.067405   0.209356
   35  H  3  Z    0.001011  -0.052281   0.029851  -0.169539   0.102784
   36  H  4  S    0.111380  -0.042648   0.076638   0.464350   0.199288
   37  H  4  S   -0.117499   0.091394   0.025628   0.172869   0.149689
   38  H  4  X    0.013931   0.015258  -0.008868  -0.045490   0.042082
   39  H  4  Y   -0.014059  -0.237272   0.192794  -0.088204   0.201652
   40  H  4  Z    0.002298   0.052009  -0.028719   0.154787   0.122241
   41  H  5  S   -0.140095  -0.000213  -0.011608   0.017081  -0.486465
   42  H  5  S   -0.516762   0.005200  -0.004820   0.006025  -0.252577
   43  H  5  X   -0.002284   0.097571   0.331780   0.118296  -0.005353
   44  H  5  Y    0.033951   0.001517   0.010790   0.002422   0.084761
   45  H  5  Z    0.006652  -0.002486  -0.001151  -0.004437   0.204440
   46  H  6  S   -0.128828   0.000294   0.009986  -0.011337   0.315763
   47  H  6  S   -0.518522  -0.003847   0.004071  -0.009658   0.161324
   48  H  6  X   -0.000996  -0.155878  -0.275319   0.200069   0.014771
   49  H  6  Y   -0.033790  -0.004555  -0.007640   0.001182   0.070247
   50  H  6  Z    0.005259   0.001273   0.002081   0.007270  -0.170283

                     31         32         33         34         35
                    1.5650     1.6490     1.6965     1.8195     1.8507
                     A          A          A          A          A   
    1  C  1  S   -0.027653  -0.044462   0.001763  -0.003400   0.021659
    2  C  1  S   -0.240822  -0.445280   0.001389   0.041567  -0.095532
    3  C  1  X   -0.010936  -0.000118  -0.133575  -0.001963   0.002330
    4  C  1  Y    0.019589   0.010023  -0.004377   0.031183  -0.009022
    5  C  1  Z    0.007225   0.179876   0.002441  -0.045758   0.166345
    6  C  1  S    0.671586   0.722871  -0.023612   0.055554  -0.451486
    7  C  1  X    0.001643  -0.016198   0.568350   0.010955   0.001358
    8  C  1  Y   -0.109093   0.038007   0.014124  -0.196632  -0.129709
    9  C  1  Z    0.410042  -0.656956  -0.049057  -0.029547   0.038600
   10  C  1 XX    0.566450  -0.204275  -0.038687  -0.014183  -0.121280
   11  C  1 YY   -0.549145  -0.619740   0.023085  -0.063324   0.420305
   12  C  1 ZZ   -0.181713   0.631103   0.024167   0.033471  -0.095338
   13  C  1 XY    0.039533   0.010473   0.098000   0.001275  -0.016988
   14  C  1 XZ    0.006983  -0.007824   0.442691  -0.004354   0.011731
   15  C  1 YZ    0.400717   0.031303   0.003760   0.117804  -0.070473
   16  N  2  S    0.009475   0.018039   0.000095  -0.009271   0.029839
   17  N  2  S    0.337708  -0.275216  -0.015205  -0.092336   0.246122
   18  N  2  X   -0.000442  -0.000194   0.050876   0.004861   0.002617
   19  N  2  Y   -0.004847  -0.002025   0.001421  -0.157793  -0.060263
   20  N  2  Z    0.121898  -0.382893  -0.011346   0.003489  -0.034428
   21  N  2  S   -0.593372  -0.414027  -0.001930   0.204593  -0.542554
   22  N  2  X    0.002366   0.006568  -0.018727  -0.034898  -0.002698
   23  N  2  Y    0.393540  -0.020645  -0.010661   1.094958   0.367407
   24  N  2  Z    0.170388   0.343057  -0.009774  -0.209444   0.725793
   25  N  2 XX    0.289099  -0.200769  -0.018971  -0.221872   0.709899
   26  N  2 YY   -0.253040  -0.277657   0.010465   0.164639  -0.520596
   27  N  2 ZZ    0.049901   0.353778   0.003410  -0.029217   0.112041
   28  N  2 XY    0.013487   0.002928  -0.000165  -0.020411   0.039693
   29  N  2 XZ    0.023798  -0.000277   0.220888   0.017879  -0.008573
   30  N  2 YZ   -0.115068   0.000313   0.014424  -0.494215  -0.079111
   31  H  3  S   -0.405796   0.008650  -0.307590  -0.011056   0.132549
   32  H  3  S   -0.081507  -0.022164  -0.080636   0.017899  -0.026465
   33  H  3  X   -0.043991  -0.116841  -0.434205  -0.010122   0.080423
   34  H  3  Y    0.026423  -0.085299   0.045021  -0.115559   0.121970
   35  H  3  Z   -0.229222   0.194298   0.377708  -0.009314   0.088689
   36  H  4  S   -0.392770  -0.007134   0.351287  -0.011164   0.144147
   37  H  4  S   -0.098840  -0.027836   0.105881   0.023367  -0.032895
   38  H  4  X    0.006238   0.138085  -0.420628   0.011909  -0.086654
   39  H  4  Y    0.026590  -0.074271  -0.068500  -0.117245   0.114675
   40  H  4  Z   -0.255445   0.207558  -0.341034  -0.015437   0.096793
   41  H  5  S    0.046983   0.188895  -0.001280  -0.708810   0.298607
   42  H  5  S    0.042557  -0.031846  -0.003429  -0.240069   0.040440
   43  H  5  X   -0.011177   0.005639  -0.145308   0.005744  -0.006766
   44  H  5  Y    0.009562  -0.062671  -0.005009  -0.401605  -0.099762
   45  H  5  Z    0.025091  -0.131181  -0.000277  -0.235380  -0.442742
   46  H  6  S    0.457417   0.175949  -0.017137   0.421691   0.582246
   47  H  6  S    0.170264  -0.030642  -0.004958   0.162770   0.205628
   48  H  6  X   -0.005694   0.000039  -0.117922   0.018585   0.000528
   49  H  6  Y    0.039873   0.067476   0.000199  -0.378830  -0.178111
   50  H  6  Z   -0.167467  -0.144722   0.001684   0.405667  -0.136094

                     36         37         38         39         40
                    2.0455     2.0963     2.1601     2.1876     2.3827
                     A          A          A          A          A   
    1  C  1  S   -0.006114   0.001441   0.005081   0.053723   0.002781
    2  C  1  S    0.012850  -0.013057  -0.030164  -0.326755   0.003756
    3  C  1  X    0.005520   0.059355  -0.038817  -0.004152  -0.327121
    4  C  1  Y   -0.154113   0.011860  -0.009083   0.027076  -0.008931
    5  C  1  Z    0.050738   0.032729   0.068897   0.765658  -0.018513
    6  C  1  S   -0.258615  -0.098783  -0.246798  -2.666713   0.004791
    7  C  1  X    0.024511   0.747319   0.312604  -0.077160  -0.498073
    8  C  1  Y   -0.321695   0.032036   0.004398   0.034499  -0.016870
    9  C  1  Z    0.168908   0.053218   0.142458   1.654493  -0.024243
   10  C  1 XX    0.055243   0.026994   0.001550   0.258018  -0.000309
   11  C  1 YY   -0.250986   0.010560   0.065584   0.457605   0.009319
   12  C  1 ZZ    0.074906  -0.034403  -0.060896  -0.650692   0.013865
   13  C  1 XY   -0.014560  -0.287046   0.546774  -0.042533   0.002398
   14  C  1 XZ   -0.001718  -0.311586  -0.142485   0.034807   0.319776
   15  C  1 YZ   -0.189350  -0.005794  -0.001762  -0.023959   0.000722
   16  N  2  S   -0.015061  -0.002599  -0.007819  -0.087984   0.001366
   17  N  2  S   -0.160161  -0.015705  -0.051979  -0.576218   0.005621
   18  N  2  X   -0.000332  -0.065928  -0.046280   0.004692  -0.008039
   19  N  2  Y   -0.031602  -0.002666   0.001228  -0.001555  -0.006368
   20  N  2  Z   -0.025785   0.009757   0.020630   0.223277  -0.001057
   21  N  2  S    0.489538   0.103603   0.287173   3.217571  -0.040149
   22  N  2  X   -0.024126  -0.527201  -0.289255   0.041832   0.035363
   23  N  2  Y    0.372544  -0.028745   0.003200  -0.032788  -0.002330
   24  N  2  Z    0.148909   0.080275   0.190772   2.129470  -0.019593
   25  N  2 XX   -0.212795  -0.004279  -0.077102  -0.771610   0.033128
   26  N  2 YY    0.011096  -0.018755  -0.003499  -0.171808  -0.007572
   27  N  2 ZZ    0.081295   0.028541   0.071764   0.826607  -0.024455
   28  N  2 XY   -0.012390  -0.106673   0.257987  -0.041310  -0.366901
   29  N  2 XZ   -0.006938  -0.043576   0.128265  -0.007050   0.692740
   30  N  2 YZ    0.240089  -0.018543   0.019969  -0.058170   0.015521
   31  H  3  S   -0.006486   0.040045  -0.026191   0.073005  -0.000760
   32  H  3  S    0.019240  -0.459054  -0.138977  -0.032430   0.442110
   33  H  3  X   -0.095194  -0.074759  -0.000580   0.162101  -0.144367
   34  H  3  Y    0.677953   0.317508  -0.499552   0.006683  -0.054278
   35  H  3  Z   -0.119761   0.342907   0.153216  -0.216121  -0.419118
   36  H  4  S   -0.012380  -0.039550   0.038658   0.072102   0.006444
   37  H  4  S    0.041737   0.460699   0.136819  -0.115279  -0.428188
   38  H  4  X    0.053308  -0.072675  -0.046795  -0.154913  -0.126570
   39  H  4  Y    0.630270  -0.365991   0.519957  -0.062506   0.052153
   40  H  4  Z   -0.131718  -0.338501  -0.180123  -0.149169   0.432170
   41  H  5  S   -0.053571  -0.006275  -0.009022  -0.174679  -0.003356
   42  H  5  S   -0.152718   0.016594   0.013210   0.288408   0.007362
   43  H  5  X    0.022165   0.653778   0.087698  -0.019342   0.681490
   44  H  5  Y   -0.116116   0.020505  -0.017074  -0.197050   0.013762
   45  H  5  Z   -0.208249  -0.004516  -0.039422  -0.229051  -0.000611
   46  H  6  S   -0.079733   0.003716  -0.019642  -0.139955   0.001871
   47  H  6  S    0.162024  -0.001830   0.029771   0.215422  -0.004539
   48  H  6  X    0.008544   0.386979   0.660906  -0.075641   0.074766
   49  H  6  Y   -0.058672   0.017680   0.033221   0.217724   0.002874
   50  H  6  Z    0.300103  -0.033845  -0.018762  -0.340012  -0.009676

                     41         42         43         44         45
                    2.4076     2.4585     2.5137     2.7520     2.9183
                     A          A          A          A          A   
    1  C  1  S   -0.026778  -0.000609  -0.034512   0.032433  -0.132898
    2  C  1  S    0.145021   0.009290   0.125249  -0.404208   0.700578
    3  C  1  X    0.000082  -0.107672  -0.000928  -0.019456   0.008693
    4  C  1  Y    0.131056   0.005685  -0.037093  -0.015819   0.094153
    5  C  1  Z    0.033786  -0.003525   0.142134   0.242208   0.550959
    6  C  1  S    0.289885   0.013949   0.228629  -0.162783   1.353861
    7  C  1  X    0.017230  -0.250854   0.002950  -0.015186   0.021481
    8  C  1  Y    0.042226  -0.000088   0.043189  -0.010571   0.050641
    9  C  1  Z    0.178631   0.012363   0.492217  -0.165802  -0.057214
   10  C  1 XX   -0.256960   0.003015  -0.423538   0.176057   0.560748
   11  C  1 YY   -0.189414  -0.025147  -0.110934   0.306004  -0.634867
   12  C  1 ZZ    0.364015   0.025908   0.375358  -0.504256  -0.650698
   13  C  1 XY    0.030272  -0.435728  -0.007691  -0.012267   0.046926
   14  C  1 XZ    0.006329   0.228744  -0.005975  -0.011728   0.048445
   15  C  1 YZ   -0.494464  -0.004423   0.413169  -0.076186   0.097920
   16  N  2  S    0.007324   0.000935  -0.005149  -0.096610   0.047132
   17  N  2  S   -0.128939  -0.008385  -0.193585   0.376023   0.003922
   18  N  2  X    0.007242   0.003797  -0.006801  -0.002911   0.004735
   19  N  2  Y   -0.248803  -0.000462   0.229594  -0.042892   0.010445
   20  N  2  Z   -0.161784  -0.009813  -0.203785   0.055029   0.403082
   21  N  2  S    0.162179   0.006180   0.638727   0.871177  -0.988406
   22  N  2  X    0.005590   0.053123  -0.015048   0.000442   0.000247
   23  N  2  Y   -0.456325  -0.018606   0.290708  -0.052700   0.027376
   24  N  2  Z   -0.085971  -0.004091   0.047788  -0.307379  -0.182681
   25  N  2 XX    0.062984  -0.028684   0.005135  -0.484983   0.171143
   26  N  2 YY   -0.081165   0.038170  -0.184783  -0.682176  -0.412774
   27  N  2 ZZ    0.025016  -0.006524   0.184536   0.740456   0.422539
   28  N  2 XY   -0.008758   0.728590  -0.017235   0.011638   0.017313
   29  N  2 XZ    0.008728   0.320748   0.007497   0.004252   0.014649
   30  N  2 YZ   -0.502813  -0.010259   0.227886   0.012195   0.020784
   31  H  3  S   -0.001297   0.011320  -0.019439   0.068368  -0.425549
   32  H  3  S   -0.184762   0.164790  -0.278695   0.159267  -0.421430
   33  H  3  X    0.273503  -0.021138   0.459584  -0.297920   0.571659
   34  H  3  Y    0.177819   0.271524  -0.129527  -0.026645   0.124297
   35  H  3  Z   -0.189319  -0.226756  -0.356095   0.061686   0.588392
   36  H  4  S    0.004827  -0.010159  -0.015390   0.048965  -0.394238
   37  H  4  S   -0.166331  -0.187123  -0.281063   0.134384  -0.393563
   38  H  4  X   -0.283292  -0.040731  -0.456566   0.266387  -0.516059
   39  H  4  Y    0.206399  -0.280313  -0.156197  -0.009436   0.085361
   40  H  4  Z   -0.216839   0.202144  -0.361077   0.090266   0.574366
   41  H  5  S   -0.073228  -0.000441  -0.057543  -0.046560   0.271900
   42  H  5  S    0.334671   0.008776  -0.335247  -0.309831   0.101255
   43  H  5  X    0.012133  -0.422753   0.013999  -0.018023   0.014729
   44  H  5  Y    0.027366  -0.006801   0.344502   0.548931  -0.215574
   45  H  5  Z    0.592129   0.018712  -0.133699   0.385551   0.350924
   46  H  6  S    0.051523  -0.003423  -0.023547  -0.094760   0.279144
   47  H  6  S   -0.438768  -0.010805   0.166465  -0.379791   0.145337
   48  H  6  X   -0.006531   0.700213  -0.003729   0.020646  -0.000372
   49  H  6  Y   -0.205476   0.016755  -0.091320  -0.613450   0.221000
   50  H  6  Z   -0.364333  -0.013998   0.464303   0.318639   0.389294

                     46         47         48         49         50
                    3.1134     3.1459     3.2076     3.7278     3.9641
                     A          A          A          A          A   
    1  C  1  S   -0.041655   0.013646  -0.010589  -0.206598  -0.390937
    2  C  1  S    0.334950  -0.131366   0.055449   1.413881   2.579011
    3  C  1  X    0.144392   0.813831  -0.026689   0.009521   0.011964
    4  C  1  Y    0.049717   0.002974  -0.094697  -0.038710  -0.047776
    5  C  1  Z    0.041398  -0.042787   0.019591  -0.280177   0.089329
    6  C  1  S    0.337318  -0.120812   0.064229  -0.620361   1.534899
    7  C  1  X    0.091773   0.485174  -0.022693  -0.006456  -0.005671
    8  C  1  Y    0.019358   0.012615   0.128545   0.027119   0.035186
    9  C  1  Z    0.181569  -0.035704   0.088811   0.688382  -0.195226
   10  C  1 XX    0.352130  -0.101743  -0.023197  -1.215127  -1.820914
   11  C  1 YY   -0.369961   0.122337  -0.041419  -0.669141  -1.466425
   12  C  1 ZZ    0.059817   0.003674  -0.001326  -0.644979  -2.020233
   13  C  1 XY    0.068738   0.229034  -0.014381  -0.017013  -0.009584
   14  C  1 XZ    0.226529   1.204600  -0.052545   0.001353   0.016010
   15  C  1 YZ    0.050508   0.029510   0.329831  -0.036196  -0.057959
   16  N  2  S   -0.181199   0.029579  -0.007206  -0.405409   0.204425
   17  N  2  S    0.665956  -0.115598   0.008534   0.637886  -0.338532
   18  N  2  X    0.006305   0.068455   0.022625   0.005464  -0.004142
   19  N  2  Y    0.035372  -0.037593  -0.871380   0.005320   0.008176
   20  N  2  Z   -0.435737   0.071291  -0.020756   0.236674   0.077779
   21  N  2  S    1.655064  -0.254952   0.127035   3.043731  -1.473112
   22  N  2  X   -0.014088  -0.039370   0.028846  -0.003350   0.003074
   23  N  2  Y    0.051992  -0.045958  -0.936176  -0.009804  -0.024708
   24  N  2  Z   -0.394636   0.074134   0.016976   0.751161  -0.173008
   25  N  2 XX   -0.878329   0.147986  -0.034244  -1.104859   0.540212
   26  N  2 YY    0.536073  -0.103342   0.040373  -1.885961   1.001642
   27  N  2 ZZ   -0.751892   0.139410  -0.041241  -1.350291   1.095656
   28  N  2 XY   -0.057509  -0.037740   0.015108   0.026281  -0.015844
   29  N  2 XZ    0.072360   0.338413  -0.051592  -0.003806   0.005263
   30  N  2 YZ   -0.046995   0.066955   1.376181  -0.011868  -0.018402
   31  H  3  S   -0.336197  -0.556572  -0.006025   0.282697   0.260409
   32  H  3  S   -0.271926  -0.336776  -0.036911  -0.172527  -0.212727
   33  H  3  X    0.464314   0.742376   0.039903  -0.155450  -0.291308
   34  H  3  Y    0.104413   0.109108  -0.064870  -0.046644  -0.055340
   35  H  3  Z    0.309023   0.315404  -0.034930  -0.193993  -0.142977
   36  H  4  S   -0.107390   0.713318  -0.053780   0.293846   0.284634
   37  H  4  S   -0.124278   0.450574  -0.066761  -0.179969  -0.225907
   38  H  4  X   -0.151338   0.937432  -0.096863   0.157310   0.304728
   39  H  4  Y    0.047208  -0.104096  -0.068136  -0.037910  -0.039788
   40  H  4  Z    0.168891  -0.455664  -0.006878  -0.198033  -0.144299
   41  H  5  S   -0.604189   0.134664   0.904121   0.529724  -0.317811
   42  H  5  S   -0.493551   0.100706   0.477185  -0.243278   0.084742
   43  H  5  X   -0.004775   0.107700   0.029596   0.020127  -0.011964
   44  H  5  Y    0.582226  -0.121572  -0.902669  -0.484950   0.317813
   45  H  5  Z   -0.591503   0.119897   0.359144   0.225572  -0.215849
   46  H  6  S   -0.527209   0.053474  -0.960897   0.536988  -0.311093
   47  H  6  S   -0.434364   0.051196  -0.506333  -0.256397   0.070889
   48  H  6  X    0.016619   0.049353   0.017748  -0.008062   0.005825
   49  H  6  Y   -0.514091   0.045594  -0.946701   0.497416  -0.304264
   50  H  6  Z   -0.541475   0.080208  -0.411157   0.218429  -0.215602
 ...... END OF RHF CALCULATION ......
 STEP CPU TIME =     7.80 TOTAL CPU TIME =        7.9 (    0.1 MIN)
 TOTAL WALL CLOCK TIME=        7.9 SECONDS, CPU UTILIZATION IS  99.75%

     ---------------------------------------------------------------------
     PROPERTIES FOR THE B3LYP    DFT FUNCTIONAL (RHF  TYPE) DENSITY MATRIX
     ---------------------------------------------------------------------

          -----------------
          ENERGY COMPONENTS
          -----------------

         WAVEFUNCTION NORMALIZATION =       1.0000000000

                ONE ELECTRON ENERGY =    -196.6716889226
                TWO ELECTRON ENERGY =      64.2251108878
           NUCLEAR REPULSION ENERGY =      37.6496072031
                                      ------------------
                       TOTAL ENERGY =     -94.7969708316

 ELECTRON-ELECTRON POTENTIAL ENERGY =      64.2251108878
  NUCLEUS-ELECTRON POTENTIAL ENERGY =    -290.6475278295
   NUCLEUS-NUCLEUS POTENTIAL ENERGY =      37.6496072031
                                      ------------------
             TOTAL POTENTIAL ENERGY =    -188.7728097386
               TOTAL KINETIC ENERGY =      93.9758389069
                 VIRIAL RATIO (V/T) =       2.0087376919

          ---------------------------------------
          MULLIKEN AND LOWDIN POPULATION ANALYSES
          ---------------------------------------

     ATOMIC MULLIKEN POPULATION IN EACH MOLECULAR ORBITAL

                      1          2          3          4          5

                  2.000000   2.000000   2.000000   2.000000   2.000000

    1            -0.000085   1.999130   0.549406   0.960491   0.260314
    2             2.000245   0.000091   1.274175   0.502421   1.146005
    3            -0.000002   0.000367   0.010760   0.160439   0.014094
    4            -0.000002   0.000384   0.011153   0.170186   0.020967
    5            -0.000077   0.000012   0.078685   0.099820   0.407961
    6            -0.000078   0.000017   0.075821   0.106643   0.150658

                      6          7          8

                  2.000000   2.000000   2.000000

    1             0.694994   1.155122   0.070941
    2             0.818822   0.198834   1.678353
    3             0.078623   0.354310   0.116602
    4             0.129254   0.289488   0.115825
    5             0.010688   0.000944   0.009272
    6             0.267619   0.001302   0.009007

               ----- POPULATIONS IN EACH AO -----
                             MULLIKEN      LOWDIN
              1  C  1  S      1.99220     1.97940
              2  C  1  S      0.80852     0.40392
              3  C  1  X      0.86954     0.73339
              4  C  1  Y      0.11209     0.09355
              5  C  1  Z      0.80430     0.68707
              6  C  1  S      0.59031     0.33861
              7  C  1  X      0.31724     0.42652
              8  C  1  Y      0.06164     0.09511
              9  C  1  Z      0.12650     0.30147
             10  C  1 XX     -0.00921     0.16582
             11  C  1 YY     -0.02644     0.11706
             12  C  1 ZZ      0.00310     0.18853
             13  C  1 XY      0.00050     0.00086
             14  C  1 XZ      0.03359     0.06758
             15  C  1 YZ      0.00643     0.01154
             16  N  2  S      1.99132     1.97511
             17  N  2  S      0.74728     0.47045
             18  N  2  X      1.11203     1.07166
             19  N  2  Y      0.77097     0.66651
             20  N  2  Z      0.75621     0.66728
             21  N  2  S      0.78817     0.34688
             22  N  2  X      0.75885     0.74489
             23  N  2  Y      0.44194     0.48703
             24  N  2  Z      0.26882     0.39633
             25  N  2 XX     -0.02580     0.11301
             26  N  2 YY      0.00067     0.17588
             27  N  2 ZZ      0.00448     0.18291
             28  N  2 XY      0.00001     0.00003
             29  N  2 XZ      0.00384     0.01002
             30  N  2 YZ      0.00015     0.00312
             31  H  3  S      0.51531     0.47229
             32  H  3  S      0.20804     0.31162
             33  H  3  X      0.00771     0.02250
             34  H  3  Y      0.00047     0.00146
             35  H  3  Z      0.00366     0.01127
             36  H  4  S      0.52182     0.47825
             37  H  4  S      0.20345     0.30869
             38  H  4  X      0.00789     0.02340
             39  H  4  Y      0.00036     0.00107
             40  H  4  Z      0.00375     0.01175
             41  H  5  S      0.46915     0.41072
             42  H  5  S      0.10914     0.22788
             43  H  5  X      0.00949     0.02779
             44  H  5  Y      0.01233     0.03076
             45  H  5  Z      0.00720     0.01792
             46  H  6  S      0.47129     0.41426
             47  H  6  S      0.11091     0.23045
             48  H  6  X      0.00943     0.02780
             49  H  6  Y      0.01241     0.03117
             50  H  6  Z      0.00696     0.01743

          ----- MULLIKEN ATOMIC OVERLAP POPULATIONS -----
          (OFF-DIAGONAL ELEMENTS NEED TO BE MULTIPLIED BY 2)

             1           2           3           4           5

    1    4.6260046
    2    0.3824272   6.6625682
    3    0.3585880  -0.0526432   0.4728874
    4    0.3594547  -0.0522449  -0.0455575   0.4740476
    5   -0.0173606   0.3384474   0.0013478   0.0003657   0.2916851
    6   -0.0188007   0.3403911   0.0005702   0.0011894  -0.0071807

             6

    6    0.2948191

          TOTAL MULLIKEN AND LOWDIN ATOMIC POPULATIONS
       ATOM         MULL.POP.    CHARGE          LOW.POP.     CHARGE
    1 C             5.690313    0.309687         5.610435    0.389565
    2 N             7.618946   -0.618946         7.311108   -0.311108
    3 H             0.735193    0.264807         0.819138    0.180862
    4 H             0.737255    0.262745         0.823157    0.176843
    5 H             0.607305    0.392695         0.715059    0.284941
    6 H             0.610988    0.389012         0.721104    0.278896

          -------------------------------
          BOND ORDER AND VALENCE ANALYSIS     BOND ORDER THRESHOLD=0.050
          -------------------------------

                   BOND                       BOND                       BOND
  ATOM PAIR DIST  ORDER      ATOM PAIR DIST  ORDER      ATOM PAIR DIST  ORDER
    1   2  1.342  1.227        1   3  1.105  0.872        1   4  1.092  0.871
    1   5  2.046  0.051        2   5  1.005  0.796        2   6  1.005  0.804

                       TOTAL       BONDED        FREE
      ATOM            VALENCE     VALENCE     VALENCE
    1 C                 3.065       3.065       0.000
    2 N                 2.860       2.860      -0.000
    3 H                 0.889       0.889       0.000
    4 H                 0.888       0.888       0.000
    5 H                 0.846       0.846       0.000
    6 H                 0.849       0.849       0.000

          ---------------------
          ELECTROSTATIC MOMENTS
          ---------------------

 POINT   1           X           Y           Z (BOHR)    CHARGE
                 0.002965    0.028451   -0.110544        1.00 (A.U.)
         DX          DY          DZ         /D/  (DEBYE)
    -0.031643    0.093362    1.139469    1.143725
 ...... END OF PROPERTY EVALUATION ......
 STEP CPU TIME =     0.00 TOTAL CPU TIME =        7.9 (    0.1 MIN)
 TOTAL WALL CLOCK TIME=        7.9 SECONDS, CPU UTILIZATION IS  99.75%

 BEGINNING ONE ELECTRON GRADIENT...
 ..... END OF 1-ELECTRON GRADIENT ......
 STEP CPU TIME =     0.01 TOTAL CPU TIME =        7.9 (    0.1 MIN)
 TOTAL WALL CLOCK TIME=        7.9 SECONDS, CPU UTILIZATION IS  99.87%

          ----------------------
          GRADIENT OF THE ENERGY
          ----------------------
 MEMORY FOR GRID POINT CONTRIBUTIONS TO THE DFT GRADIENT=    237627 WORDS.
 STEP CPU TIME =     1.09 TOTAL CPU TIME =        9.0 (    0.1 MIN)
 TOTAL WALL CLOCK TIME=        9.0 SECONDS, CPU UTILIZATION IS  99.78%

 THE MINIMUM MEMORY REQUIRED FOR THIS RUN IS      83621 WORDS.
 USING    1059141 WORDS FOR 2E- DERIVATIVE INTEGRAL CONTRIBUTIONS.
 THE COARSE/FINE SCHWARZ SCREENINGS SKIPPED          160/        1485 BLOCKS.
 THE NUMBER OF GRADIENT INTEGRAL BLOCKS COMPUTED WAS     20316
 ...... END OF 2-ELECTRON GRADIENT ......
 STEP CPU TIME =     0.14 TOTAL CPU TIME =        9.1 (    0.2 MIN)
 TOTAL WALL CLOCK TIME=        9.1 SECONDS, CPU UTILIZATION IS  99.78%

 BEGINNING GEOMETRY SEARCH POINT NSERCH=   0 ...

 COORDINATES OF ALL ATOMS ARE (ANGS)
   ATOM   CHARGE       X              Y              Z
 ------------------------------------------------------------
 C           6.0  -0.0010881502   0.0123230620   0.6539897525
 N           7.0   0.0045461786   0.0011067826  -0.6883826624
 H           1.0   0.9318262038   0.1711599201   1.2240242374
 H           1.0  -0.9298008600   0.1170336600   1.2185050133
 H           1.0  -0.0277332367   0.8617165148  -1.2068867647
 H           1.0   0.0222498644  -0.8633399395  -1.2012495760

          ********************
          1 ELECTRON INTEGRALS
          ********************
 ...... END OF ONE-ELECTRON INTEGRALS ......
 STEP CPU TIME =     0.00 TOTAL CPU TIME =        9.1 (    0.2 MIN)
 TOTAL WALL CLOCK TIME=        9.1 SECONDS, CPU UTILIZATION IS  99.78%

          --------------------
          2 ELECTRON INTEGRALS
          --------------------

 THE -PK- OPTION IS OFF, THE INTEGRALS ARE NOT IN SUPERMATRIX FORM.
 STORING   15000 INTEGRALS/RECORD ON DISK, USING 12 BYTES/INTEGRAL.
 TWO ELECTRON INTEGRAL EVALUATION REQUIRES   90606 WORDS OF MEMORY.
 SCHWARZ INEQUALITY OVERHEAD:      1275 INTEGRALS, T=        0.00
 II,JST,KST,LST =  1  1  1  1 NREC =         1 INTLOC =    1
 II,JST,KST,LST =  2  1  1  1 NREC =         1 INTLOC =    2
 II,JST,KST,LST =  3  1  1  1 NREC =         1 INTLOC =   34
 II,JST,KST,LST =  4  1  1  1 NREC =         1 INTLOC =  214
 II,JST,KST,LST =  5  1  1  1 NREC =         1 INTLOC = 1189
 II,JST,KST,LST =  6  1  1  1 NREC =         1 INTLOC = 3180
 II,JST,KST,LST =  7  1  1  1 NREC =         2 INTLOC =  911
 II,JST,KST,LST =  8  1  1  1 NREC =         3 INTLOC = 8134
 II,JST,KST,LST =  9  1  1  1 NREC =         7 INTLOC = 5968
 II,JST,KST,LST = 10  1  1  1 NREC =         8 INTLOC = 5862
 II,JST,KST,LST = 11  1  1  1 NREC =         9 INTLOC = 7261
 II,JST,KST,LST = 12  1  1  1 NREC =        13 INTLOC = 5845
 II,JST,KST,LST = 13  1  1  1 NREC =        14 INTLOC =14123
 II,JST,KST,LST = 14  1  1  1 NREC =        16 INTLOC = 9448
 II,JST,KST,LST = 15  1  1  1 NREC =        22 INTLOC = 7612
 II,JST,KST,LST = 16  1  1  1 NREC =        24 INTLOC =11911
 II,JST,KST,LST = 17  1  1  1 NREC =        27 INTLOC = 3939
 II,JST,KST,LST = 18  1  1  1 NREC =        35 INTLOC = 9479
 II,JST,KST,LST = 19  1  1  1 NREC =        38 INTLOC =12599
 II,JST,KST,LST = 20  1  1  1 NREC =        42 INTLOC = 4486
 SCHWARZ INEQUALITY TEST SKIPPED         160 INTEGRAL BLOCKS.
 TOTAL NUMBER OF NONZERO TWO-ELECTRON INTEGRALS =              790812
         53 INTEGRAL RECORDS WERE STORED ON DISK FILE  8.
  ...... END OF TWO-ELECTRON INTEGRALS .....
 STEP CPU TIME =     0.06 TOTAL CPU TIME =        9.2 (    0.2 MIN)
 TOTAL WALL CLOCK TIME=        9.2 SECONDS, CPU UTILIZATION IS  99.89%

 -----------------------------------------------------------------------
                    TDDFT CALCULATION FOR SCFTYP=RHF 
                          CODED BY MAHITO CHIBA
 NATIONAL INSTITUTE OF ADVANCED INDUSTRIAL SCIENCE AND TECHNOLOGY, JAPAN
 -----------------------------------------------------------------------
  
 -TDDFT RUNTIME PARAMETERS-
    TRIPLET  = F
    NONEQ    = T
    NSTATE   =                    3
    IROOT    =                    1
    NTRIAL   =                    5
    MAXVEC   =                   50
    ILENG    =                  200
    MAXGRD   =                29042
    NRAD     =                   48
    NLEB     =                  110
 GAS PHASE COMPUTATION
  
 FOR AN EULER-MACLAURIN QUADRATURE USING  48 RADIAL POINTS:
 SMALLEST GAUSSIAN PRIMITIVE EXPONENT=        0.1612777588 OF TYPE -S-
 ON ATOM NUMBER   3 HAS RADIAL NORMALIZATION=  1.000000
  LARGEST GAUSSIAN PRIMITIVE EXPONENT=     4173.5114600000 OF TYPE -S-
 ON ATOM NUMBER   2 HAS RADIAL NORMALIZATION=  1.000000
  
 MEM1  =      250059 MEM2  =        8870 MEMGRID=      317297
 MEMPCM=           0 MEMEFP=           0
 TOTAL MEMORY REQUIRED FOR TD-DFT ITERATIONS IS      576227 WORDS.

 DIAGONAL SHIFT PARAMETER: EDSHFT/A.U.=   0.020

 INITIAL VECTORS / MXVEC                     5 /                  150
 ITERATION #                     1
    CURRENT VECTORS    1 TO   5 (   5 VECTORS)
    STATE NUMBER   1  ENERGY =    0.592991 EV
    STATE NUMBER   2  ENERGY =    7.368285 EV
    STATE NUMBER   3  ENERGY =    8.251284 EV
    MAX ERROR =  5.117E-03 / 1.000E-07
 ITERATION #                     2
    CURRENT VECTORS    6 TO   8 (   3 VECTORS)
    STATE NUMBER   1  ENERGY =    0.568782 EV
    STATE NUMBER   2  ENERGY =    7.337596 EV
    STATE NUMBER   3  ENERGY =    8.124022 EV
    MAX ERROR =  1.172E-04 / 1.000E-07
 ITERATION #                     3
    CURRENT VECTORS    9 TO  11 (   3 VECTORS)
    STATE NUMBER   1  ENERGY =    0.567898 EV
    STATE NUMBER   2  ENERGY =    7.336669 EV
    STATE NUMBER   3  ENERGY =    8.121088 EV
    MAX ERROR =  3.629E-06 / 1.000E-07
 ITERATION #                     4
    CURRENT VECTORS   12 TO  14 (   3 VECTORS)
    STATE NUMBER   1  ENERGY =    0.567894 EV
    STATE NUMBER   2  ENERGY =    7.336650 EV
    STATE NUMBER   3  ENERGY =    8.120997 EV
    MAX ERROR =  1.267E-08 / 1.000E-07
  
   ---------------------------------  
     R-TDDFT CALCULATION CONVERGED
   ---------------------------------  
 NUMBER OF USED VECTORS / MAX =  14 / 150
 NUMBER OF ITERATIONS   / MAX =   4 / 100
 NUMBER OF SINGLE EXCITATIONS =   336
 NUMBER OF ATOMIC ORBITALS    =  50
 NUMBER OF ELECTRONS          =          15.9977642
  
[...]
   41  H  5  S   -0.000346   0.000056  -0.103340  -0.122489   0.261726
   42  H  5  S    0.000637   0.000311  -0.002424  -0.027369   0.096682
   43  H  5  X   -0.000001   0.000004  -0.000427  -0.000478   0.000524
   44  H  5  Y    0.000038  -0.000120   0.011946   0.012234  -0.011586
   45  H  5  Z   -0.000026   0.000181  -0.008916  -0.003423   0.010730
   46  H  6  S   -0.000346   0.000082  -0.101526  -0.126448  -0.158955
   47  H  6  S    0.000642   0.000440  -0.001748  -0.028441  -0.052197
   48  H  6  X   -0.000001  -0.000002   0.000297   0.000308  -0.000033
   49  H  6  Y   -0.000039   0.000106  -0.011917  -0.012480  -0.003956
   50  H  6  Z   -0.000026   0.000193  -0.008672  -0.003714  -0.013142

                      6          7          8          9         10
                   -0.7799    -0.7610    -0.5019    -0.4357    -0.1378
                     A          A          A          A          A   
    1  C  1  S    0.012102   0.001723   0.000917   0.015410   0.076053
    2  C  1  S   -0.012550  -0.002534  -0.001910  -0.035712  -0.111282
    3  C  1  X    0.036308  -0.499398  -0.120314  -0.012558  -0.007940
    4  C  1  Y    0.034028  -0.015284   0.025466   0.614358  -0.024831
    5  C  1  Z   -0.415456  -0.034996  -0.001275  -0.045676   0.050248
    6  C  1  S   -0.073362  -0.010187  -0.004988  -0.071385  -1.045201
    7  C  1  X    0.011972  -0.184575  -0.024260  -0.011854  -0.011442
    8  C  1  Y    0.014463  -0.005906   0.020695   0.486953  -0.049750
    9  C  1  Z   -0.115170  -0.010905  -0.002229  -0.038040   0.279920
   10  C  1 XX   -0.018429  -0.001285   0.000542   0.002118   0.014680
   11  C  1 YY   -0.002933  -0.000454  -0.000223  -0.000487  -0.016514
   12  C  1 ZZ    0.017988   0.001385   0.000018   0.002730   0.037352
   13  C  1 XY   -0.000114  -0.004396  -0.003739   0.000048   0.001076
   14  C  1 XZ    0.001051  -0.010900  -0.048699   0.001900   0.000172
   15  C  1 YZ   -0.008928  -0.000433  -0.001384   0.004302   0.002775
   16  N  2  S    0.005433   0.000353  -0.001517  -0.003698  -0.136988
   17  N  2  S   -0.005755  -0.000384   0.003743   0.010544   0.240352
   18  N  2  X    0.007047  -0.179562   0.598487  -0.023843  -0.001433
   19  N  2  Y    0.188942  -0.001017   0.011256  -0.122277  -0.005527
   20  N  2  Z    0.382469   0.029465   0.000712   0.020142  -0.052063
   21  N  2  S   -0.041422  -0.002501   0.005368   0.008535   1.830880
   22  N  2  X    0.003347  -0.086987   0.484201  -0.020147  -0.002913
   23  N  2  Y    0.100807  -0.000706   0.010544  -0.098348  -0.009703
   24  N  2  Z    0.155697   0.012646  -0.000157   0.005994  -0.079113
   25  N  2 XX    0.000283   0.000273  -0.000641   0.000534  -0.020966
   26  N  2 YY   -0.009772  -0.000903   0.000339   0.000184  -0.038083
   27  N  2 ZZ    0.007904   0.000431   0.000248  -0.000913  -0.030787
   28  N  2 XY    0.000143  -0.000389  -0.000051   0.000199   0.000690
   29  N  2 XZ    0.000661  -0.014167   0.004867  -0.001136  -0.000311
   30  N  2 YZ   -0.000813  -0.000544   0.002004   0.037586  -0.002883
   31  H  3  S   -0.101116  -0.227922  -0.142324   0.027607   0.077450
   32  H  3  S   -0.052412  -0.118212  -0.169507   0.028161   0.424359
   33  H  3  X    0.006123   0.006514   0.001536  -0.001621   0.002420
   34  H  3  Y    0.001325   0.001658   0.001112   0.015289  -0.000854
   35  H  3  Z   -0.001894   0.007438  -0.000046  -0.001534   0.006434
   36  H  4  S   -0.133411   0.206938   0.142536   0.014907   0.073597
   37  H  4  S   -0.068315   0.106647   0.169024   0.012628   0.395187
   38  H  4  X   -0.007047   0.005275   0.001253   0.000604  -0.002378
   39  H  4  Y    0.001310  -0.001421   0.000251   0.015589  -0.001187
   40  H  4  Z   -0.000883  -0.007627  -0.000008  -0.001587   0.006182
   41  H  5  S   -0.028797  -0.006576  -0.007709  -0.131556  -0.106565
   42  H  5  S   -0.020164  -0.003152  -0.007397  -0.135552  -0.926925
   43  H  5  X    0.000143  -0.005198   0.019572  -0.001006   0.000465
   44  H  5  Y    0.005913   0.000388   0.000749   0.000127  -0.013283
   45  H  5  Z    0.008363   0.000431  -0.000079   0.001558   0.003800
   46  H  6  S   -0.209280  -0.010875   0.004900   0.123507  -0.120164
   47  H  6  S   -0.086115  -0.005299   0.005001   0.118778  -0.980899
   48  H  6  X    0.000653  -0.005118   0.019439  -0.000936  -0.000183
   49  H  6  Y   -0.012199  -0.000811   0.000398  -0.000319   0.013555
   50  H  6  Z   -0.001644   0.000206  -0.000093  -0.000335   0.004611

                     11         12         13         14         15
                   -0.1248    -0.0688    -0.0624     0.0064     0.2442
                     A          A          A          A          A   
    1  C  1  S   -0.111889  -0.005366  -0.011791  -0.072259   0.028791
    2  C  1  S    0.277232   0.011432   0.031387   0.110860  -0.438332
    3  C  1  X    0.019316  -0.545047  -0.021386   0.009280  -0.002308
    4  C  1  Y    0.057263  -0.013149  -0.021836  -0.014202   0.072897
    5  C  1  Z    0.245096   0.001997   0.019630  -0.241019   0.934945
    6  C  1  S    1.475893   0.105343   0.192857   1.690191   0.120181
    7  C  1  X    0.030497  -1.208123  -0.058687   0.032800   0.010779
    8  C  1  Y    0.133276  -0.042021   0.345165  -0.054784  -0.126593
    9  C  1  Z    0.665721   0.002196   0.035838  -2.034221  -1.276370
   10  C  1 XX   -0.028118  -0.000565  -0.001938   0.047316  -0.014572
   11  C  1 YY    0.004678   0.000600   0.002127   0.009706  -0.035646
   12  C  1 ZZ   -0.001176  -0.001275  -0.000558  -0.050279   0.004012
   13  C  1 XY   -0.001319   0.008404  -0.000188   0.001234   0.000684
   14  C  1 XZ   -0.000585   0.023090   0.000089   0.000336  -0.000427
   15  C  1 YZ   -0.004937  -0.000708   0.029383  -0.000589  -0.000266
   16  N  2  S   -0.036829   0.001092   0.000097   0.055379  -0.047162
   17  N  2  S    0.068133  -0.001576   0.003308  -0.059609   0.086285
   18  N  2  X   -0.007492   0.109369   0.016374  -0.001328  -0.002606
   19  N  2  Y    0.031266   0.021489  -0.423116   0.002493  -0.003474
   20  N  2  Z   -0.103773  -0.008370  -0.006563  -0.423346   0.080284
   21  N  2  S    0.634458  -0.016006  -0.002517  -1.409038  -0.458758
   22  N  2  X   -0.016363   0.344210   0.044843  -0.004744  -0.000457
   23  N  2  Y    0.054665   0.055042  -1.072337   0.012039   0.019848
   24  N  2  Z   -0.164243  -0.020865  -0.024061  -1.594526   0.343039
   25  N  2 XX   -0.017225  -0.000159  -0.000582   0.027019   0.052760
   26  N  2 YY   -0.004024   0.000277   0.001088  -0.012637   0.026733
   27  N  2 ZZ    0.006235   0.000606   0.002122   0.014305  -0.163193
   28  N  2 XY   -0.000489   0.002948   0.000206   0.001250   0.000989
   29  N  2 XZ    0.000768  -0.026160  -0.000306   0.000728   0.000899
   30  N  2 YZ    0.006999   0.000577  -0.026312  -0.001113  -0.004170
   31  H  3  S   -0.115486   0.094652  -0.000849   0.041194   0.079721
   32  H  3  S   -1.244446   1.403348  -0.082595   0.248543   0.183424
   33  H  3  X   -0.012863   0.005651  -0.001301   0.012938  -0.015352
   34  H  3  Y   -0.001050   0.004328   0.004365   0.000610  -0.004079
   35  H  3  Z    0.000603   0.011995   0.000844  -0.022126  -0.014391
   36  H  4  S   -0.105084  -0.097076  -0.007900   0.040441   0.085109
   37  H  4  S   -1.172666  -1.516082  -0.203278   0.311055   0.188062
   38  H  4  X    0.012659   0.006224   0.001545  -0.013547   0.016066
   39  H  4  Y    0.000133  -0.004264   0.004211   0.000077  -0.003111
   40  H  4  Z    0.001525  -0.012839  -0.000176  -0.021763  -0.013389
   41  H  5  S   -0.035493  -0.004742   0.096598  -0.049313   0.006410
   42  H  5  S   -0.500034  -0.066326   1.360062  -0.673543   0.007521
   43  H  5  X   -0.000100   0.006778  -0.000179   0.000250  -0.000549
   44  H  5  Y   -0.004733  -0.000258   0.009095  -0.010139   0.005731
   45  H  5  Z   -0.001000   0.000193  -0.008197  -0.006171   0.049827
   46  H  6  S   -0.004247   0.004240  -0.093937  -0.047795  -0.018064
   47  H  6  S   -0.282290   0.052750  -1.397673  -0.636097   0.016329
   48  H  6  X   -0.000293   0.005223   0.000228  -0.000282  -0.000182
   49  H  6  Y    0.002669  -0.000189   0.008752   0.010278  -0.005006
   50  H  6  Z   -0.003916  -0.000550   0.007272  -0.005670   0.055238

                     16         17         18
                    0.2613     0.3543     0.3791
                     A          A          A   
    1  C  1  S    0.002346   0.004416  -0.071875
    2  C  1  S   -0.047201   0.048672  -0.727975
    3  C  1  X   -0.028297  -0.586553  -0.036251
    4  C  1  Y    1.024763  -0.015634  -0.022288
    5  C  1  Z   -0.099865  -0.002226  -0.078722
    6  C  1  S    0.019638  -0.093259   1.144520
    7  C  1  X    0.032966   1.828174   0.088097
    8  C  1  Y   -1.211102   0.043505   0.095219
    9  C  1  Z    0.073548  -0.046835   0.630492
   10  C  1 XX   -0.001312   0.012840  -0.195081
   11  C  1 YY   -0.003849  -0.007304   0.103413
   12  C  1 ZZ   -0.010217   0.008804  -0.159190
   13  C  1 XY   -0.000158  -0.030485  -0.011270
   14  C  1 XZ    0.000299  -0.051878   0.000095
   15  C  1 YZ   -0.011384   0.000601  -0.037155
   16  N  2  S    0.001966   0.001485  -0.008664
   17  N  2  S   -0.016906   0.007544  -0.164137
   18  N  2  X    0.003837  -0.558590  -0.039541
   19  N  2  Y   -0.121027  -0.014156  -0.029220
   20  N  2  Z   -0.018749   0.023620  -0.412059
   21  N  2  S    0.037990  -0.033405   0.386130
   22  N  2  X   -0.005571   0.078627   0.014773
   23  N  2  Y    0.170368  -0.000691   0.070598
   24  N  2  Z   -0.024509  -0.037246   0.600867
   25  N  2 XX   -0.002988   0.000478  -0.018498
   26  N  2 YY   -0.007784   0.002262  -0.034439
   27  N  2 ZZ    0.006303   0.002339  -0.032934
   28  N  2 XY   -0.000442  -0.006819   0.000615
   29  N  2 XZ   -0.000273   0.019017  -0.000952
   30  N  2 YZ    0.014162  -0.001510   0.031880
   31  H  3  S    0.000847  -0.308957  -0.598104
   32  H  3  S    0.038693  -0.674524  -0.105208
   33  H  3  X   -0.002566   0.048478  -0.021096
   34  H  3  Y    0.002493  -0.003872   0.004214
   35  H  3  Z   -0.005103  -0.016116  -0.000098
   36  H  4  S    0.000848   0.381876  -0.552852
   37  H  4  S    0.036199   0.709810  -0.053144
   38  H  4  X    0.002398   0.043384   0.029637
   39  H  4  Y    0.003872   0.005788   0.005872
   40  H  4  Z   -0.005254   0.015953  -0.000044
   41  H  5  S    0.049649   0.013199  -0.132630
   42  H  5  S    0.154447  -0.006777   0.090479
   43  H  5  X    0.000027  -0.018589  -0.000256
   44  H  5  Y   -0.002761   0.000614  -0.021297
   45  H  5  Z   -0.030881  -0.002391   0.037052
   46  H  6  S   -0.066904   0.002605   0.040053
   47  H  6  S   -0.166451   0.001215  -0.004690
   48  H  6  X    0.000051  -0.016927  -0.001532
   49  H  6  Y    0.001528  -0.001689   0.022041
   50  H  6  Z    0.026527  -0.001389   0.021089

     ------------------------------------------
     PROPERTIES FOR THE B3LYP    DFT FUNCTIONAL
      USING THE RELAXED DENSITY OF EXCITED STATE    1
     ------------------------------------------

          -----------------
          ENERGY COMPONENTS
          -----------------

         WAVEFUNCTION NORMALIZATION =       1.0000000000

                ONE ELECTRON ENERGY =    -196.7161229319
                TWO ELECTRON ENERGY =      64.2688475618
           NUCLEAR REPULSION ENERGY =      37.6503071375
                                      ------------------
                       TOTAL ENERGY =     -94.7969682325

 ELECTRON-ELECTRON POTENTIAL ENERGY =      64.2688475618
  NUCLEUS-ELECTRON POTENTIAL ENERGY =    -290.6618462264
   NUCLEUS-NUCLEUS POTENTIAL ENERGY =      37.6503071375
                                      ------------------
             TOTAL POTENTIAL ENERGY =    -188.7426915271
               TOTAL KINETIC ENERGY =      93.9457232946
                 VIRIAL RATIO (V/T) =       2.0090610292

          ---------------------------------------
          MULLIKEN AND LOWDIN POPULATION ANALYSES
          ---------------------------------------

     ATOMIC MULLIKEN POPULATION IN EACH MOLECULAR ORBITAL

                      1          2          3          4          5

                  2.000000   2.000000   2.000000   2.000000   2.000000

    1            -0.000085   1.999129   0.550415   0.960790   0.263353
    2             2.000245   0.000091   1.273237   0.501931   1.143745
    3            -0.000002   0.000366   0.010781   0.160380   0.014540
    4            -0.000002   0.000384   0.011209   0.170524   0.021474
    5            -0.000077   0.000012   0.078616   0.099790   0.408759
    6            -0.000078   0.000017   0.075742   0.106585   0.148130

                      6          7          8

                  2.000000   2.000000   2.000000

    1             0.692113   1.155375   0.068016
    2             0.820992   0.198487   1.681364
    3             0.076814   0.355494   0.117128
    4             0.129688   0.288306   0.115451
    5             0.010096   0.000948   0.009124
    6             0.270298   0.001389   0.008917

               ----- POPULATIONS IN EACH AO -----
                             MULLIKEN      LOWDIN
              1  C  1  S      1.99234     1.97963
              2  C  1  S      0.82524     0.41053
              3  C  1  X      0.81749     0.67923
              4  C  1  Y      0.08951     0.07044
              5  C  1  Z      0.83330     0.70953
              6  C  1  S      0.59048     0.33727
              7  C  1  X      0.30707     0.40871
              8  C  1  Y      0.01924     0.06141
              9  C  1  Z      0.13644     0.30338
             10  C  1 XX     -0.00964     0.16740
             11  C  1 YY     -0.02814     0.11760
             12  C  1 ZZ      0.00206     0.18856
             13  C  1 XY      0.00040     0.00088
             14  C  1 XZ      0.03775     0.07247
             15  C  1 YZ      0.00724     0.01474
             16  N  2  S      1.99122     1.97485
             17  N  2  S      0.73204     0.46095
             18  N  2  X      1.12506     1.08241
             19  N  2  Y      0.81768     0.71835
             20  N  2  Z      0.73139     0.64640
             21  N  2  S      0.78086     0.34662
             22  N  2  X      0.82380     0.80493
             23  N  2  Y      0.45355     0.50356
             24  N  2  Z      0.25720     0.39474
             25  N  2 XX     -0.02545     0.11126
             26  N  2 YY      0.00073     0.17503
             27  N  2 ZZ      0.00545     0.18323
             28  N  2 XY      0.00020     0.00021
             29  N  2 XZ      0.00379     0.00816
             30  N  2 YZ     -0.00298    -0.00251
             31  H  3  S      0.59840     0.58638
             32  H  3  S      0.24353     0.34224
             33  H  3  X      0.00715     0.02428
             34  H  3  Y     -0.00071    -0.00387
             35  H  3  Z      0.00222     0.01031
             36  H  4  S      0.44600     0.37347
             37  H  4  S      0.16244     0.27744
             38  H  4  X      0.00887     0.02334
             39  H  4  Y      0.00093     0.00393
             40  H  4  Z      0.00524     0.01328
             41  H  5  S      0.45508     0.39240
             42  H  5  S      0.11083     0.22622
             43  H  5  X      0.01127     0.03182
             44  H  5  Y      0.01215     0.02951
             45  H  5  Z      0.00729     0.01751
             46  H  6  S      0.46890     0.41222
             47  H  6  S      0.11563     0.23220
             48  H  6  X      0.01042     0.03007
             49  H  6  Y      0.01218     0.03031
             50  H  6  Z      0.00686     0.01699

          ----- MULLIKEN ATOMIC OVERLAP POPULATIONS -----
          (OFF-DIAGONAL ELEMENTS NEED TO BE MULTIPLIED BY 2)

             1           2           3           4           5

    1    4.5348953
    2    0.4048230   6.7271552
    3    0.3449025  -0.0752479   0.6402029
    4    0.3634229  -0.0395892  -0.0511451   0.3390129
    5   -0.0109672   0.3401024  -0.0460109   0.0482779   0.2677057
    6   -0.0163133   0.3373081   0.0378899  -0.0364983  -0.0024846

             6

    6    0.2940877

          TOTAL MULLIKEN AND LOWDIN ATOMIC POPULATIONS
       ATOM         MULL.POP.    CHARGE          LOW.POP.     CHARGE
    1 C             5.620763    0.379237         5.521764    0.478236
    2 N             7.694552   -0.694552         7.408182   -0.408182
    3 H             0.850591    0.149409         0.959348    0.040652
    4 H             0.623481    0.376519         0.691458    0.308542
    5 H             0.596623    0.403377         0.697450    0.302550
    6 H             0.613989    0.386011         0.721797    0.278203

          -------------------------------
          BOND ORDER AND VALENCE ANALYSIS     BOND ORDER THRESHOLD=0.050
          -------------------------------

                   BOND                       BOND                       BOND
  ATOM PAIR DIST  ORDER      ATOM PAIR DIST  ORDER      ATOM PAIR DIST  ORDER
    1   2  1.342125.406        1   3  1.105  9.500        1   4  1.092  9.457
    1   5  2.046  0.978        1   6  2.052  0.908        2   3  2.132  0.978
    2   4  2.127  0.689        2   5  1.005  7.322        2   6  1.005  6.493
    3   4  1.862  0.055        3   5  2.703  0.344        3   6  2.789  0.349
    4   5  2.693  0.400        4   6  2.779  0.289        5   6  1.726  0.061

                       TOTAL       BONDED        FREE
      ATOM            VALENCE     VALENCE     VALENCE
    1 C                -6.580     146.250    -152.830
    2 N                -6.904     140.886    -147.790
    3 H                 0.885      11.226     -10.341
    4 H                 0.846      10.890     -10.043
    5 H                 0.817       9.105      -8.288
    6 H                 0.828       8.100      -7.272

          ---------------------
          ELECTROSTATIC MOMENTS
          ---------------------

 POINT   1           X           Y           Z (BOHR)    CHARGE
                 0.002954    0.028473   -0.110558        1.00 (A.U.)
         DX          DY          DZ         /D/  (DEBYE)
    -0.978408   -0.009375    1.601465    1.876715
 ...... END OF PROPERTY EVALUATION ......
 STEP CPU TIME =     0.01 TOTAL CPU TIME =       81.2 (    1.4 MIN)
 TOTAL WALL CLOCK TIME=       81.3 SECONDS, CPU UTILIZATION IS  99.94%
  $VIB   
          IVIB=   0 IATOM=   0 ICOORD=   0 E=      -94.7969682325
 -2.500966853E-05 1.016239366E-05 1.557863459E-05 1.860475097E-06 1.293377598E-06
 -4.220554780E-06 1.882838290E-05 2.958187310E-06 7.708454530E-07 2.701769336E-06
 -1.047331804E-05-7.389832629E-06 5.208954137E-06-9.673050057E-07-1.080468515E-06
 -3.589912930E-06-2.973335517E-06-3.658624117E-06
 -9.784082769E-01-9.375461222E-03 1.601464611E+00
 ......END OF GEOMETRY SEARCH......
 STEP CPU TIME =     0.00 TOTAL CPU TIME =       81.2 (    1.4 MIN)
 TOTAL WALL CLOCK TIME=       81.3 SECONDS, CPU UTILIZATION IS  99.94%
              2123995  WORDS OF DYNAMIC MEMORY USED
 EXECUTION OF GAMESS TERMINATED NORMALLY Wed Aug  9 21:30:03 2017
 DDI: 263640 bytes (0.3 MB / 0 MWords) used by master data server.

 ----------------------------------------
 CPU timing information for all processes
 ========================================
 0: 81.56 + 0.183 = 81.240
 ----------------------------------------
 ddikick.x: exited gracefully.
unset echo
----- accounting info -----
Files used on the master node compute-1-2.local were:
-rw-rw-r-- 1 sarom sarom 9.0K Aug  9 21:28 /scratch/tddft-ch2nh2-conint.F05
-rw-rw-r-- 1 sarom sarom 9.1M Aug  9 21:29 /scratch/tddft-ch2nh2-conint.F08
-rw-rw-r-- 1 sarom sarom 2.0M Aug  9 21:30 /scratch/tddft-ch2nh2-conint.F10
-rw-rw-r-- 1 sarom sarom 1.8M Aug  9 21:30 /scratch/tddft-ch2nh2-conint.F22
rm: cannot remove `/scratch/tmp': Is a directory
ls: No match.
ls: No match.
ls: No match.
Wed Aug  9 21:30:06 CDT 2017
0.262u 0.179s 1:24.81 0.5%	0+0k 0+376io 0pf+0w
/opt/gridengine/default/spool/compute-1-2/active_jobs/36067.1/pe_hostfile compute-1-2.local
