-catch_rsh /opt/gridengine/default/spool/compute-0-8/active_jobs/35745.1/pe_hostfile
compute-0-8
The primary node assigned by SGE to this run is compute-0-8
Warning: no access to tty (Bad file descriptor).
Thus no job control in this shell.
source /home/sarom/dir.git.branch.saromleang-travis-ci/install.info
setenv GMS_PATH /home/sarom/dir.git.branch.saromleang-travis-ci
setenv GMS_BUILD_DIR /home/sarom/dir.git.branch.saromleang-travis-ci
setenv GMS_TARGET linux64
setenv GMS_FORTRAN gfortran
setenv GMS_GFORTRAN_VERNO 4.4
setenv GMS_MATHLIB mkl-so
setenv GMS_MATHLIB none
setenv GMS_MATHLIB_PATH /share/apps/intel/compilers_and_libraries_2017.1.132/linux/mkl/lib/intel64
setenv GMS_MKL_VERNO 12
setenv GMS_DDI_COMM sockets
setenv GMS_LIBCCHEM false
setenv GMS_EIGEN_PATH
setenv GMS_PHI false
setenv GMS_SHMTYPE sysv
setenv GMS_OPENMP false
unset echo
pcm-rmp2-meoh
/home/sarom/dir.git.branch.saromleang-travis-ci/tests/solvent/pcm/parallel
----- GAMESS execution script 'rungms' -----
This job is running on host compute-0-8.local
under operating system Linux at Wed Aug 9 20:01:41 CDT 2017
Available scratch disk space (Kbyte units) at beginning of the job is
Filesystem           1K-blocks      Used Available Use% Mounted on
/dev/sda1             16126920   3962064  11345656  26% /
GAMESS temporary binary files will be written to /scratch
GAMESS supplementary output files will be written to /home/sarom/restart
Copying input file pcm-rmp2-meoh.inp to your run's scratch directory...
cp /home/sarom/dir.git.branch.saromleang-travis-ci/tests/solvent/pcm/parallel/pcm-rmp2-meoh.inp /scratch/pcm-rmp2-meoh.F05
unset echo
The generated host list is
compute-0-8.local
/home/sarom/dir.git.branch.saromleang-travis-ci/ddikick.x /home/sarom/dir.git.branch.saromleang-travis-ci/gamess.00.x pcm-rmp2-meoh -ddi 1 1 compute-0-8.local -scr /scratch

 Distributed Data Interface kickoff program.
 Initiating 1 compute processes on 1 nodes to run the following command:
 /home/sarom/dir.git.branch.saromleang-travis-ci/gamess.00.x pcm-rmp2-meoh 

          ******************************************************
          *         GAMESS VERSION = 20 APR 2017 (R1)          *
          *             FROM IOWA STATE UNIVERSITY             *
          * M.W.SCHMIDT, K.K.BALDRIDGE, J.A.BOATZ, S.T.ELBERT, *
          *   M.S.GORDON, J.H.JENSEN, S.KOSEKI, N.MATSUNAGA,   *
          *          K.A.NGUYEN, S.J.SU, T.L.WINDUS,           *
          *       TOGETHER WITH M.DUPUIS, J.A.MONTGOMERY       *
          *         J.COMPUT.CHEM.  14, 1347-1363(1993)        *
          **************** 64 BIT LINUX VERSION ****************

  SINCE 1993, STUDENTS AND POSTDOCS WORKING AT IOWA STATE UNIVERSITY
  AND ALSO IN THEIR VARIOUS JOBS AFTER LEAVING ISU HAVE MADE IMPORTANT
  CONTRIBUTIONS TO THE CODE:
     IVANA ADAMOVIC, CHRISTINE AIKENS, YURI ALEXEEV, POOJA ARORA,
     ANDREY ASADCHEV, ROB BELL, PRADIPTA BANDYOPADHYAY, JONATHAN BENTZ,
     BRETT BODE, KURT BRORSEN, CALEB CARLIN, GALINA CHABAN, WEI CHEN,
     CHEOL HO CHOI, PAUL DAY, ALBERT DEFUSCO, NUWAN DESILVA, TIM DUDLEY,
     DMITRI FEDOROV, GRAHAM FLETCHER, MARK FREITAG, KURT GLAESEMANN,
     DAN KEMP, GRANT MERRILL, NORIYUKI MINEZAWA, JONATHAN MULLIN,
     TAKESHI NAGATA, SEAN NEDD, HEATHER NETZLOFF, BOSILJKA NJEGIC, RYAN OLSON,
     MIKE PAK, SPENCER PRUITT, LUKE ROSKOP, JIM SHOEMAKER, LYUDMILA SLIPCHENKO,
     TONY SMITH, SAROM SOK LEANG, JIE SONG, TETSUYA TAKETSUGU, SIMON WEBB,
     PENG XU, SOOHAENG YOO, FEDERICO ZAHARIEV

  ADDITIONAL CODE HAS BEEN PROVIDED BY COLLABORATORS IN OTHER GROUPS:
     IOWA STATE UNIVERSITY:
          JOE IVANIC, AARON WEST, LAIMUTIS BYTAUTAS, KLAUS RUEDENBERG
     UNIVERSITY OF TOKYO: KIMIHIKO HIRAO, TAKAHITO NAKAJIMA,
          TAKAO TSUNEDA, MUNEAKI KAMIYA, SUSUMU YANAGISAWA,
          KIYOSHI YAGI, MAHITO CHIBA, SEIKEN TOKURA, NAOAKI KAWAKAMI
     UNIVERSITY OF AARHUS: FRANK JENSEN
     UNIVERSITY OF IOWA: VISVALDAS KAIRYS, HUI LI
     NATIONAL INST. OF STANDARDS AND TECHNOLOGY: WALT STEVENS, DAVID GARMER
     UNIVERSITY OF PISA: BENEDETTA MENNUCCI, JACOPO TOMASI
     UNIVERSITY OF MEMPHIS: HENRY KURTZ, PRAKASHAN KORAMBATH
     UNIVERSITY OF ALBERTA: TOBY ZENG, MARIUSZ KLOBUKOWSKI
     UNIVERSITY OF NEW ENGLAND: MARK SPACKMAN
     MIE UNIVERSITY: HIROAKI UMEDA
     NAT. INST. OF ADVANCED INDUSTRIAL SCIENCE AND TECHNOLOGY: KAZUO KITAURA
     MICHIGAN STATE UNIVERSITY:
          KAROL KOWALSKI, MARTA WLOCH, JEFFREY GOUR, JESSE LUTZ,
          WEI LI, PIOTR PIECUCH
     UNIVERSITY OF SILESIA: MONIKA MUSIAL, STANISLAW KUCHARSKI
     FACULTES UNIVERSITAIRES NOTRE-DAME DE LA PAIX:
          OLIVIER QUINET, BENOIT CHAMPAGNE
     UNIVERSITY OF CALIFORNIA - SANTA BARBARA: BERNARD KIRTMAN
     INSTITUTE FOR MOLECULAR SCIENCE:
          KAZUYA ISHIMURA, MICHIO KATOUDA, AND SHIGERU NAGASE
     UNIVERSITY OF NOTRE DAME: ANNA POMOGAEVA, DAN CHIPMAN
     KYUSHU UNIVERSITY:
          HARUYUKI NAKANO,
          FENG LONG GU, JACEK KORCHOWIEC, MARCIN MAKOWSKI, AND YURIKO AOKI,
          HIROTOSHI MORI AND EISAKU MIYOSHI
     PENNSYLVANIA STATE UNIVERSITY:
          TZVETELIN IORDANOV, CHET SWALINA, JONATHAN SKONE,
          SHARON HAMMES-SCHIFFER
     WASEDA UNIVERSITY:
          MASATO KOBAYASHI, TOMOKO AKAMA, TSUGUKI TOUMA,
          TAKESHI YOSHIKAWA, YASUHIRO IKABATA, JUNJI SEINO,
          YUYA NAKAJIMA, HIROMI NAKAI
     NANJING UNIVERSITY: SHUHUA LI
     UNIVERSITY OF NEBRASKA:
          PEIFENG SU, DEJUN SI, NANDUN THELLAMUREGE, YALI WANG, HUI LI
     UNIVERSITY OF ZURICH: ROBERTO PEVERATI, KIM BALDRIDGE
     N. COPERNICUS UNIVERSITY AND JACKSON STATE UNIVERSITY:
          MARIA BARYSZ
     UNIVERSITY OF COPENHAGEN: Jimmy Kromann, CASPER STEINMANN
     TOKYO INSTITUTE OF TECHNOLOGY: HIROYA NAKATA
     NAGOYA UNIVERSITY: YOSHIO NISHIMOTO, STEPHAN IRLE
     MOSCOW STATE UNIVERSITY: VLADIMIR MIRONOV

 EXECUTION OF GAMESS BEGUN Wed Aug  9 20:01:41 2017

            ECHO OF THE FIRST FEW INPUT CARDS -
 INPUT CARD>!   MP2-level methanol placed in PCM methanol ... created February 2010         
 INPUT CARD>!                                                                               
 INPUT CARD>!   the IMS code, run serially:                                                 
 INPUT CARD>!     NSERCH:   0  E=     -115.3566551642  R.M.S.=  0.0106216                   
 INPUT CARD>!     NSERCH:   1  E=     -115.3578243451  R.M.S.=  0.0041789                   
 INPUT CARD>!     NSERCH:   2  E=     -115.3580788437  R.M.S.=  0.0009161                   
 INPUT CARD>!     NSERCH:   3  E=     -115.3580881173  R.M.S.=  0.0003660                   
 INPUT CARD>!     NSERCH:   4  E=     -115.3580900894  R.M.S.=  0.0000447                   
 INPUT CARD>!     NSERCH:   5  E=     -115.3580901565  R.M.S.=  0.0000214                   
 INPUT CARD>!     NSERCH:   6  E=     -115.3580901593  R.M.S.=  0.0000197                   
 INPUT CARD>!     NSERCH:   7  E=     -115.3580901853  R.M.S.=  0.0000258                   
 INPUT CARD>!     NSERCH:   8  E=     -115.3580902562  R.M.S.=  0.0000392                   
 INPUT CARD>!     NSERCH:   9  E=     -115.3580903669  R.M.S.=  0.0000465                   
 INPUT CARD>!     NSERCH:  10  E=     -115.3580904451  R.M.S.=  0.0000320                   
 INPUT CARD>!     NSERCH:  11  E=     -115.3580904830  R.M.S.=  0.0000099                   
 INPUT CARD>!     NSERCH:  12  E=     -115.3580904746  R.M.S.=  0.0000010                   
 INPUT CARD>!                                                                               
 INPUT CARD>!   this run takes 59 seconds on 2.66 GHz Cloverton ( 2 Oct 2015)               
 INPUT CARD>!                                                                               
 INPUT CARD> $contrl scftyp=rhf mplevl=2 runtyp=optimize ispher=1 nzvar=12 $end             
 INPUT CARD> $system mwords=5 memddi=5 $end                                                 
 INPUT CARD> $basis  gbasis=pcseg-1 $end                                                    
 INPUT CARD> $guess  guess=huckel $end                                                      
 INPUT CARD> $pcm    solvnt=ch3oh $end                                                      
 INPUT CARD> $mp2    code=ims $end                                                          
 INPUT CARD> $zmat   izmat(1)=1,1,4,  1,2,4,  1,3,4,  1,4,5,  1,5,6,                        
 INPUT CARD>            2,1,4,5,  2,2,4,5,  2,3,4,5,  2,6,5,4,                              
 INPUT CARD>            3,1,4,5,6,  3,2,4,5,6,  3,3,4,5,6  $end                             
 INPUT CARD> $statpt opttol=1d-5 $end                                                       
 INPUT CARD> $data                                                                          
 INPUT CARD>methanol in methanol ... Frank Jensen's DZP level basis set                     
 INPUT CARD>C1                                                                              
 INPUT CARD>H     1.0    -0.23148933    -0.54925847     0.25605574                          
 INPUT CARD>H     1.0    -1.29260743    -1.45378900    -0.83388162                          
 INPUT CARD>H     1.0    -1.56952238     0.26318315    -0.56352019                          
 INPUT CARD>C     6.0    -0.80685145    -0.49620166    -0.66465724                          
 INPUT CARD>O     8.0    -0.00856923    -0.12880918    -1.75578928                          
 INPUT CARD>H     1.0     0.66653633    -0.76927090    -1.90209424                          
 INPUT CARD> $end                                                                           
    5000000 WORDS OF MEMORY AVAILABLE

     BASIS OPTIONS
     -------------
     GBASIS=PCSEG-1      IGAUSS=       0      POLAR=NONE    
     NDFUNC=       0     NFFUNC=       0     DIFFSP=       F
     NPFUNC=       0      DIFFS=       F     BASNAM=        


     RUN TITLE
     ---------
 methanol in methanol ... Frank Jensen's DZP level basis set                     

 THE POINT GROUP OF THE MOLECULE IS C1      
 THE ORDER OF THE PRINCIPAL AXIS IS     0

 ATOM      ATOMIC                      COORDINATES (BOHR)
           CHARGE         X                   Y                   Z
 H           1.0    -0.4374514028       -1.0379480047        0.4838751862
 H           1.0    -2.4426738524       -2.7472628540       -1.5758077680
 H           1.0    -2.9659672298        0.4973440381       -1.0648987476
 C           6.0    -1.5247281533       -0.9376851721       -1.2560200594
 O           8.0    -0.0161934966       -0.2434140549       -3.3179606314
 H           1.0     1.2595710246       -1.4537112113       -3.5944369164

          INTERNUCLEAR DISTANCES (ANGS.)
          ------------------------------

                1 H          2 H          3 H          4 C          5 O     

   1 H       0.0000000    1.7697770 *  1.7669461 *  1.0870000 *  2.0673634 *
   2 H       1.7697770 *  0.0000000    1.7600485 *  1.0870001 *  2.0625808 *
   3 H       1.7669461 *  1.7600485 *  0.0000000    1.0810000 *  2.0029324 *
   4 C       1.0870000 *  1.0870001 *  1.0810000 *  0.0000000    1.4010000 *
   5 O       2.0673634 *  2.0625808 *  2.0029324 *  1.4010000 *  0.0000000  
   6 H       2.3478643 *  2.3340710 *  2.8031590 *  1.9433704 *  0.9419999 *

                6 H     

   1 H       2.3478643 *
   2 H       2.3340710 *
   3 H       2.8031590 *
   4 C       1.9433704 *
   5 O       0.9419999 *
   6 H       0.0000000  

  * ... LESS THAN  3.000


     ATOMIC BASIS SET
     ----------------
 THE CONTRACTED PRIMITIVE FUNCTIONS HAVE BEEN UNNORMALIZED
 THE CONTRACTED BASIS FUNCTIONS ARE NOW NORMALIZED TO UNITY

  SHELL TYPE  PRIMITIVE        EXPONENT          CONTRACTION COEFFICIENT(S)

 H         

      1   S       1            12.2518000    0.037217389296
      1   S       2             1.8687100    0.253808206955
      1   S       3             0.4182080    0.797386763917

      2   S       4             0.1061000    1.000000000000

      3   P       5             1.0000000    1.000000000000

 H         

      4   S       6            12.2518000    0.037217389296
      4   S       7             1.8687100    0.253808206955
      4   S       8             0.4182080    0.797386763917

      5   S       9             0.1061000    1.000000000000

      6   P      10             1.0000000    1.000000000000

 H         

      7   S      11            12.2518000    0.037217389296
      7   S      12             1.8687100    0.253808206955
      7   S      13             0.4182080    0.797386763917

      8   S      14             0.1061000    1.000000000000

      9   P      15             1.0000000    1.000000000000

 C         

     10   S      16          1243.2000000    0.005630097702
     10   S      17           187.1450000    0.041950603854
     10   S      18            42.5126000    0.184664360492
     10   S      19            11.7393000    0.466557421368
     10   S      20             3.5054800    0.448234778316

     11   S      21             5.3908900   -0.148114817444
     11   S      22             0.4933410    1.051981714281

     12   S      23             0.1497410    1.000000000000

     13   P      24             9.1805600    0.063992052045
     13   P      25             1.9365800    0.333521296407
     13   P      26             0.5262960    0.741161730513

     14   P      27             0.1363190    1.000000000000

     15   D      28             0.8000000    1.000000000000

 O         

     16   S      29          2288.6400000    0.005451138222
     16   S      30           344.4160000    0.040718922842
     16   S      31            78.2538000    0.181369420873
     16   S      32            21.7195000    0.465536820246
     16   S      33             6.5590700    0.451211321214

     17   S      34            10.4656000   -0.150211201174
     17   S      35             0.9643510    1.052867983385

     18   S      36             0.2851270    1.000000000000

     19   P      37            17.0590000    0.068749256972
     19   P      38             3.6899900    0.351671941499
     19   P      39             0.9929960    0.724532099722

     20   P      40             0.2449240    1.000000000000

     21   D      41             1.0000000    1.000000000000

 H         

     22   S      42            12.2518000    0.037217389296
     22   S      43             1.8687100    0.253808206955
     22   S      44             0.4182080    0.797386763917

     23   S      45             0.1061000    1.000000000000

     24   P      46             1.0000000    1.000000000000

 TOTAL NUMBER OF BASIS SET SHELLS             =   24
 NUMBER OF CARTESIAN GAUSSIAN BASIS FUNCTIONS =   50
 NOTE: THIS RUN WILL RESTRICT THE MO VARIATION SPACE TO SPHERICAL HARMONICS.
 THE NUMBER OF ORBITALS KEPT IN THE VARIATIONAL SPACE WILL BE PRINTED LATER.
 NUMBER OF ELECTRONS                          =   18
 CHARGE OF MOLECULE                           =    0
 SPIN MULTIPLICITY                            =    1
 NUMBER OF OCCUPIED ORBITALS (ALPHA)          =    9
 NUMBER OF OCCUPIED ORBITALS (BETA )          =    9
 TOTAL NUMBER OF ATOMS                        =    6
 THE NUCLEAR REPULSION ENERGY IS       40.7910473346

     $CONTRL OPTIONS
     ---------------
 SCFTYP=RHF          RUNTYP=OPTIMIZE     EXETYP=RUN     
 MPLEVL=       2     CITYP =NONE         CCTYP =NONE         VBTYP =NONE    
 DFTTYP=NONE         TDDFT =NONE    
 MULT  =       1     ICHARG=       0     NZVAR =      12     COORD =UNIQUE  
 PP    =NONE         RELWFN=NONE         LOCAL =NONE         NUMGRD=       F
 ISPHER=       1     NOSYM =       0     MAXIT =      30     UNITS =ANGS    
 PLTORB=       F     MOLPLT=       F     AIMPAC=       F     FRIEND=        
 NPRINT=       7     IREST =       0     GEOM  =INPUT   
 NORMF =       0     NORMP =       0     ITOL  =      20     ICUT  =       9
 INTTYP=BEST         GRDTYP=BEST         QMTTOL= 1.0E-06

     $SYSTEM OPTIONS
     ---------------
  REPLICATED MEMORY=     5000000 WORDS (ON EVERY NODE).
 DISTRIBUTED MEMDDI=           5 MILLION WORDS IN AGGREGATE,
 MEMDDI DISTRIBUTED OVER   1 PROCESSORS IS     5000000 WORDS/PROCESSOR.
 TOTAL MEMORY REQUESTED ON EACH PROCESSOR=    10000000 WORDS.
 TIMLIM=      525600.00 MINUTES, OR     365.0 DAYS.
 PARALL= F  BALTYP=  DLB     KDIAG=    0  COREFL= F
 MXSEQ2=     300 MXSEQ3=     150  mem10=         0

 ** LOOKING UP INTERNALLY STORED DATA FOR SOLVENT=CH3OH    **
 OPTICAL AND PHYSICAL CONSTANTS:
 EPS= 32.630; EPSINF=  1.758; RSOLV=  1.855 A; VMOL=  40.700 ML/MOL;
 TCE= .11820E-02 1/K; STEN= 22.120 DYN/CM;  DSTEN=  1.1540; CMF=  1.7760


     -----------------------------------
     INPUT FOR PCM SOLVATION CALCULATION 
     -----------------------------------
     IEF   =     -10
     ICOMP =       0     IFIELD=       0     ICAV  =       0
     IDISP =       0     IREP  =       0     IDP   =       0

     SOLVNT=CH3OH        EPS   = 32.6300     EPSINF=  1.7580
     VMOL  = 40.7000     TCE   =  0.00118200 STEN  = 22.1200
     DSTEN =  1.1540     CMF   =  1.7760     RSOLV =  1.8550

     NESFP =       0
     OMEGA = 40.0000     RET   =100.0000     FRO   =  0.7000

     TABS  =298.0000     IPRINT=       0

     --------------------------------
     INPUT FOR ITERATIVE C-PCM METHOD 
     --------------------------------
     IPCMIT  =         1     MXDIIS  =        50
     MXITR1  =        50     MXITR2  =        50
     THRES   = 0.100E-09     IMUL    =         3
     RCUT(1) =   15.0000     RCUT(2) =   30.0000

     IDIRCT  =         1
     IMGABI  =         0     RABI    =    4.0000
     IMGASC  =         0     RASC    =   20.0000
     THRSLS  = 0.500E-03     DENSLS  =    0.0100
     IEFPOL  =         1     REFPOL  =    0.0000

     INPUT FOR ISOTROPIC DIELECTRICS
     -------------------------------
     EPS=    32.63

     INPUT FOR CAVITY DEFINITION 
     ---------------------------
   ATOM               COORDINATES                RADIUS       EPS
      1     -0.2315     -0.5493      0.2561      1.2000     32.6300
      2     -1.2926     -1.4538     -0.8339      1.2000     32.6300
      3     -1.5695      0.2632     -0.5635      1.2000     32.6300
      4     -0.8069     -0.4962     -0.6647      1.7000     32.6300
      5     -0.0086     -0.1288     -1.7558      1.5000     32.6300
      6      0.6665     -0.7693     -1.9021      1.2000     32.6300

     ----------------------------
     INPUT FOR TESSERA DEFINITION
     ----------------------------
     NTSALL  =        60     MTHALL  =         4
     MTHAUT  =         0     AUTFRE  =    2.0000
     NTSFRZ  =        60     KEEPSM  =         0
     AREAKP  =   10.0000     BONDRY  =    1.0000
     AREATL  =    0.0100

     SPHERE     INITS       METHOD
          1        60       FIXPVA
          2        60       FIXPVA
          3        60       FIXPVA
          4        60       FIXPVA
          5        60       FIXPVA
          6        60       FIXPVA

     ------------------------------
      FIXPVA TESSELLATION FOR PCM
         PEIFENG SU AND HUI LI
     UNIVERSITY OF NEBRASKA-LINCOLN
     ------------------------------


     -----------------------------
     INPUT FOR PCM GRADIENT METHOD
     -----------------------------
     IPCDER  =         3     IFAST   =         0
     FIXPVA GRADIENTS BY PEIFENG SU AND HUI LI
  

 PCM DIMENSIONS: MXSP=  2000, MXTS=       360, MEMORY=         35923

          ----------------
          PROPERTIES INPUT
          ----------------

     MOMENTS            FIELD           POTENTIAL          DENSITY
 IEMOM =       1   IEFLD =       0   IEPOT =       0   IEDEN =       0
 WHERE =COMASS     WHERE =NUCLEI     WHERE =NUCLEI     WHERE =NUCLEI  
 OUTPUT=BOTH       OUTPUT=BOTH       OUTPUT=BOTH       OUTPUT=BOTH    
 IEMINT=       0   IEFINT=       0                     IEDINT=       0
                                                       MORB  =       0
          EXTRAPOLATION IN EFFECT
          SOSCF IN EFFECT
 ORBITAL PRINTING OPTION: NPREO=     1    50     2     1

     -------------------------------
     INTEGRAL TRANSFORMATION OPTIONS
     -------------------------------
     NWORD  =            0
     CUTOFF = 1.0E-09     MPTRAN =       0
     DIRTRF =       F     AOINTS =DUP     

          ----------------------
          INTEGRAL INPUT OPTIONS
          ----------------------
 NOPK  =       1 NORDER=       0 SCHWRZ=       T

          -----------------------
          MP2 CONTROL INFORMATION
          -----------------------
          NACORE =        2  NBCORE =        2
          LMOMP2 =        F  AOINTS = DUP     
          METHOD =        2  NWORD  =               0
          MP2PRP =        F  OSPT   = NONE    
          CUTOFF = 1.00E-09  CPHFBS = BASISAO 
          CODE   = IMS     

          NUMBER OF CORE -A-  ORBITALS =     2
          NUMBER OF CORE -B-  ORBITALS =     2
          NUMBER OF OCC. -A-  ORBITALS =     9
          NUMBER OF OCC. -B-  ORBITALS =     9
          NUMBER OF MOLECULAR ORBITALS =    50
          NUMBER OF   BASIS  FUNCTIONS =    50


   --- ENCODED Z MATRIX ---
 COORD  TYPE   I   J   K   L   M   N
    1      1    1   4
    2      1    2   4
    3      1    3   4
    4      1    4   5
    5      1    5   6
    6      2    1   4   5
    7      2    2   4   5
    8      2    3   4   5
    9      2    6   5   4
   10      3    1   4   5   6
   11      3    2   4   5   6
   12      3    3   4   5   6

 THE DETERMINANT OF THE G MATRIX IS 10**(    -4)


                     --------------------
                     INTERNAL COORDINATES
                     --------------------

                 - - ATOMS - -         COORDINATE      COORDINATE
 NO.   TYPE    I  J  K  L  M  N        (BOHR,RAD)       (ANG,DEG)
 ----------------------------------------------------------------
   1 STRETCH   1  4                     2.0541321       1.0870000
   2 STRETCH   2  4                     2.0541324       1.0870001
   3 STRETCH   3  4                     2.0427937       1.0810000
   4 STRETCH   4  5                     2.6475060       1.4010000
   5 STRETCH   5  6                     1.7801218       0.9419999
   6 BEND      1  4  5                  1.9507545     111.7699985
   7 BEND      2  4  5                  1.9437809     111.3704417
   8 BEND      3  4  5                  1.8657054     106.8970475
   9 BEND      6  5  4                  1.9294615     110.5500024
  10 TORSION   1  4  5  6               1.0782985      61.7819540
  11 TORSION   2  4  5  6              -1.0540904     -60.3949318
  12 TORSION   3  4  5  6              -3.1208720    -178.8127967

     ------------------------------------------
     THE POINT GROUP IS C1 , NAXIS= 1, ORDER= 1
     ------------------------------------------

 -- VARIATIONAL SPACE WILL BE RESTRICTED TO PURE SPHERICAL HARMONICS ONLY --
 AFTER EXCLUDING CONTAMINANT COMBINATIONS FROM THE CARTESIAN GAUSSIAN BASIS
 SET, THE NUMBER OF SPHERICAL HARMONICS KEPT IN THE VARIATION SPACE IS   48

     DIMENSIONS OF THE SYMMETRY SUBSPACES ARE
 A   =   48

 ..... DONE SETTING UP THE RUN .....
 STEP CPU TIME =     0.02 TOTAL CPU TIME =        0.0 (    0.0 MIN)
 TOTAL WALL CLOCK TIME=        0.0 SECONDS, CPU UTILIZATION IS  66.67%


          -----------------------------
          STATIONARY POINT LOCATION RUN
          -----------------------------

 OBTAINING INITIAL HESSIAN, HESS=GUESS   
 DIAGONAL GUESS HESSIAN IN INTERNAL COORDS IS
     1  0.3484     2  0.3484     3  0.3525     4  0.3810     5  0.3729
     6  0.2212     7  0.2212     8  0.2216     9  0.2173    10  0.2500
    11  0.2500    12  0.2500

          PARAMETERS CONTROLLING GEOMETRY SEARCH ARE
          METHOD =QA                  UPHESS =BFGS    
          NNEG   =         0          NFRZ   =         0
          NSTEP  =        50          IFOLOW =         1
          HESS   =GUESS               RESTAR =         F
          IHREP  =         0          HSSEND =         F
          NPRT   =         0          NPUN   =         0
          OPTTOL = 1.000E-05          RMIN   = 1.500E-03
          RMAX   = 1.000E-01          RLIM   = 7.000E-02
          DXMAX  = 3.000E-01          PURIFY =         F
          MOVIE  =         F          TRUPD  =         T
          TRMAX  = 5.000E-01          TRMIN  = 5.000E-02
          ITBMAT =         5          STPT   =         F
          STSTEP = 1.000E-02          PROJCT=          T

 BEGINNING GEOMETRY SEARCH POINT NSERCH=   0 ...

 COORDINATES OF ALL ATOMS ARE (ANGS)
   ATOM   CHARGE       X              Y              Z
 ------------------------------------------------------------
 H           1.0  -0.2314893300  -0.5492584700   0.2560557400
 H           1.0  -1.2926074300  -1.4537890000  -0.8338816200
 H           1.0  -1.5695223800   0.2631831500  -0.5635201900
 C           6.0  -0.8068514500  -0.4962016600  -0.6646572400
 O           8.0  -0.0085692300  -0.1288091800  -1.7557892800
 H           1.0   0.6665363300  -0.7692709000  -1.9020942400


                     --------------------
                     INTERNAL COORDINATES
                     --------------------

                 - - ATOMS - -         COORDINATE      COORDINATE
 NO.   TYPE    I  J  K  L  M  N        (BOHR,RAD)       (ANG,DEG)
 ----------------------------------------------------------------
   1 STRETCH   1  4                     2.0541321       1.0870000
   2 STRETCH   2  4                     2.0541324       1.0870001
   3 STRETCH   3  4                     2.0427937       1.0810000
   4 STRETCH   4  5                     2.6475060       1.4010000
   5 STRETCH   5  6                     1.7801218       0.9419999
   6 BEND      1  4  5                  1.9507545     111.7699985
   7 BEND      2  4  5                  1.9437809     111.3704417
   8 BEND      3  4  5                  1.8657054     106.8970475
   9 BEND      6  5  4                  1.9294615     110.5500024
  10 TORSION   1  4  5  6               1.0782985      61.7819540
  11 TORSION   2  4  5  6              -1.0540904     -60.3949318
  12 TORSION   3  4  5  6              -3.1208720    -178.8127967

          ********************
          1 ELECTRON INTEGRALS
          ********************
 ...... END OF ONE-ELECTRON INTEGRALS ......
 STEP CPU TIME =     0.00 TOTAL CPU TIME =        0.0 (    0.0 MIN)
 TOTAL WALL CLOCK TIME=        0.0 SECONDS, CPU UTILIZATION IS  66.67%

          -------------
          GUESS OPTIONS
          -------------
          GUESS =HUCKEL            NORB  =       0          NORDER=       0
          MIX   =       F          PRTMO =       F          PUNMO =       F
          TOLZ  = 1.0E-08          TOLE  = 1.0E-05
          SYMDEN=       F          PURIFY=       F

 INITIAL GUESS ORBITALS GENERATED BY HUCKEL   ROUTINE.
 HUCKEL GUESS REQUIRES     23454 WORDS.

 STATISTICS FOR GENERATION OF SYMMETRY ORBITAL -Q- MATRIX
 NUMBER OF CARTESIAN ATOMIC ORBITALS=         50
 NUMBER OF SPHERICAL CONTAMINANTS DROPPED=     2
 NUMBER OF LINEARLY DEPENDENT MOS DROPPED=     0
 TOTAL NUMBER OF MOS IN VARIATION SPACE=      48

 SYMMETRIES FOR INITIAL GUESS ORBITALS FOLLOW.   BOTH SET(S).
     9 ORBITALS ARE OCCUPIED (    2 CORE ORBITALS).
     3=A        4=A        5=A        6=A        7=A        8=A        9=A   
    10=A       11=A       12=A       13=A       14=A       15=A       16=A   
    17=A       18=A       19=A   
 ...... END OF INITIAL ORBITAL SELECTION ......
 STEP CPU TIME =     0.01 TOTAL CPU TIME =        0.0 (    0.0 MIN)
 TOTAL WALL CLOCK TIME=        0.0 SECONDS, CPU UTILIZATION IS 100.00%

                    ----------------------
                    AO INTEGRAL TECHNOLOGY
                    ----------------------
     S,P,L SHELL ROTATED AXIS INTEGRALS, REPROGRAMMED BY
        KAZUYA ISHIMURA (IMS) AND JOSE SIERRA (SYNSTAR).
     S,P,D,L SHELL ROTATED AXIS INTEGRALS PROGRAMMED BY
        KAZUYA ISHIMURA (INSTITUTE FOR MOLECULAR SCIENCE).
     S,P,D,F,G SHELL TO TOTAL QUARTET ANGULAR MOMENTUM SUM 5,
        ERIC PROGRAM BY GRAHAM FLETCHER (ELORET AND NASA ADVANCED
        SUPERCOMPUTING DIVISION, AMES RESEARCH CENTER).
     S,P,D,F,G,L SHELL GENERAL RYS QUADRATURE PROGRAMMED BY
        MICHEL DUPUIS (PACIFIC NORTHWEST NATIONAL LABORATORY).

          --------------------
          2 ELECTRON INTEGRALS
          --------------------

 THE -PK- OPTION IS OFF, THE INTEGRALS ARE NOT IN SUPERMATRIX FORM.
 STORING   15000 INTEGRALS/RECORD ON DISK, USING 12 BYTES/INTEGRAL.
 TWO ELECTRON INTEGRAL EVALUATION REQUIRES   90696 WORDS OF MEMORY.
 SCHWARZ INEQUALITY OVERHEAD:      1275 INTEGRALS, T=        0.00
 II,JST,KST,LST =  1  1  1  1 NREC =         1 INTLOC =    1
 II,JST,KST,LST =  2  1  1  1 NREC =         1 INTLOC =    2
 II,JST,KST,LST =  3  1  1  1 NREC =         1 INTLOC =    7
 II,JST,KST,LST =  4  1  1  1 NREC =         1 INTLOC =   34
 II,JST,KST,LST =  5  1  1  1 NREC =         1 INTLOC =  145
 II,JST,KST,LST =  6  1  1  1 NREC =         1 INTLOC =  320
 II,JST,KST,LST =  7  1  1  1 NREC =         1 INTLOC = 1367
 II,JST,KST,LST =  8  1  1  1 NREC =         1 INTLOC = 2038
 II,JST,KST,LST =  9  1  1  1 NREC =         1 INTLOC = 2908
 II,JST,KST,LST = 10  1  1  1 NREC =         1 INTLOC = 7000
 II,JST,KST,LST = 11  1  1  1 NREC =         1 INTLOC = 9056
 II,JST,KST,LST = 12  1  1  1 NREC =         1 INTLOC =11521
 II,JST,KST,LST = 13  1  1  1 NREC =         1 INTLOC =14446
 II,JST,KST,LST = 14  1  1  1 NREC =         2 INTLOC =11371
 II,JST,KST,LST = 15  1  1  1 NREC =         3 INTLOC =14068
 II,JST,KST,LST = 16  1  1  1 NREC =         7 INTLOC =12013
 II,JST,KST,LST = 17  1  1  1 NREC =         8 INTLOC =11477
 II,JST,KST,LST = 18  1  1  1 NREC =         9 INTLOC =12831
 II,JST,KST,LST = 19  1  1  1 NREC =        11 INTLOC =  802
 II,JST,KST,LST = 20  1  1  1 NREC =        15 INTLOC = 4939
 II,JST,KST,LST = 21  1  1  1 NREC =        20 INTLOC =11685
 II,JST,KST,LST = 22  1  1  1 NREC =        35 INTLOC =12636
 II,JST,KST,LST = 23  1  1  1 NREC =        39 INTLOC = 1244
 II,JST,KST,LST = 24  1  1  1 NREC =        42 INTLOC = 8152
 SCHWARZ INEQUALITY TEST SKIPPED          70 INTEGRAL BLOCKS.
 TOTAL NUMBER OF NONZERO TWO-ELECTRON INTEGRALS =              798961
         54 INTEGRAL RECORDS WERE STORED ON DISK FILE  8.
  ...... END OF TWO-ELECTRON INTEGRALS .....
 STEP CPU TIME =     0.08 TOTAL CPU TIME =        0.1 (    0.0 MIN)
 TOTAL WALL CLOCK TIME=        0.1 SECONDS, CPU UTILIZATION IS  91.67%

          -------------------------------------
          ---- POLARISABLE CONTINUUM MODEL ----
          ----      UNIVERSITY OF PISA     ----
          -------------------------------------

     ----------------------------
     INPUT FOR TESSERA DEFINITION
     ----------------------------
     NTSALL  =        60     MTHALL  =         4
     MTHAUT  =         0     AUTFRE  =    2.0000
     NTSFRZ  =        60     KEEPSM  =         0
     AREAKP  =   10.0000     BONDRY  =    1.0000
     AREATL  =    0.0100

     SPHERE     INITS       METHOD
          1        60       FIXPVA
          2        60       FIXPVA
          3        60       FIXPVA
          4        60       FIXPVA
          5        60       FIXPVA
          6        60       FIXPVA

     ------------------------------
      FIXPVA TESSELLATION FOR PCM
         PEIFENG SU AND HUI LI
     UNIVERSITY OF NEBRASKA-LINCOLN
     ------------------------------


     INPUT FOR CAVITY DEFINITION 
     ---------------------------
   ATOM               COORDINATES                RADIUS       EPS
      1     -0.2315     -0.5493      0.2561      1.2000     32.6300
      2     -1.2926     -1.4538     -0.8339      1.2000     32.6300
      3     -1.5695      0.2632     -0.5635      1.2000     32.6300
      4     -0.8069     -0.4962     -0.6647      1.7000     32.6300
      5     -0.0086     -0.1288     -1.7558      1.5000     32.6300
      6      0.6665     -0.7693     -1.9021      1.2000     32.6300

 MEMORY USED TO GENERATE CAVITY=    202522


 TOTAL NUMBER OF SPHERES=     6
 SPHERE           CENTER  (X,Y,Z) (A)               RADIUS (A)      AREA(A*A)
     1  -0.231489330  -0.549258470   0.256055740   1.440000000   6.666442486
     2  -1.292607430  -1.453789000  -0.833881620   1.440000000   7.443161719
     3  -1.569522380   0.263183150  -0.563520190   1.440000000   7.249249443
     4  -0.806851450  -0.496201660  -0.664657240   2.040000000   8.059715752
     5  -0.008569230  -0.128809180  -1.755789280   1.800000000  14.662471154
     6   0.666536330  -0.769270900  -1.902094240   1.440000000   8.616297214

 TOTAL NUMBER OF TESSERAE=     132
 SURFACE AREA=    52.69733777(A**2)    CAVITY VOLUME=     40.74556419 (A**3)
 STEP CPU TIME =     0.00 TOTAL CPU TIME =        0.1 (    0.0 MIN)
 TOTAL WALL CLOCK TIME=        0.1 SECONDS, CPU UTILIZATION IS  91.67%

          THE SOLUTE IS ENCLOSED IN ONE CAVITY
 DONE CHECKING SEPARATION.
 STEP CPU TIME =     0.00 TOTAL CPU TIME =        0.1 (    0.0 MIN)
 TOTAL WALL CLOCK TIME=        0.1 SECONDS, CPU UTILIZATION IS  91.67%

 ..... DONE GENERATING CAVITY .....
 STEP CPU TIME =     0.00 TOTAL CPU TIME =        0.1 (    0.0 MIN)
 TOTAL WALL CLOCK TIME=        0.1 SECONDS, CPU UTILIZATION IS  91.67%
 NUCLEI-NUCLEAR CHARGE POLARIZATION ADJUSTMENT TO VNN=        0.0000000000

          --------------------------
                 RHF SCF CALCULATION
          --------------------------

     NUCLEAR ENERGY =        40.7910473346
     MAXIT =   30     NPUNCH=    2
     EXTRAP=T  DAMP=F  SHIFT=F  RSTRCT=F  DIIS=F  DEM=F  SOSCF=T
     DENSITY MATRIX CONV=  1.00E-06
     SOSCF WILL OPTIMIZE     351 ORBITAL ROTATIONS, SOGTOL=   0.250
     MEMORY REQUIRED FOR RHF ITERS=    118770 WORDS.

 ITER EX DEM     TOTAL ENERGY        E CHANGE  DENSITY CHANGE     ORB. GRAD
   1  0  0     -114.6520618329  -114.6520618329   0.157544859   0.000000000
          ---------------START SECOND ORDER SCF---------------
   2  1  0     -114.9973533474    -0.3452915145   0.059464248   0.032900096
   3  2  0     -115.0173955098    -0.0200421624   0.027924663   0.011097837
   4  3  0     -115.0197227002    -0.0023271904   0.004459417   0.002361334
   5  4  0     -115.0197960018    -0.0000733017   0.001824458   0.001158501
   6  5  0     -115.0198068308    -0.0000108290   0.000297290   0.000207895
   7  6  0     -115.0198075286    -0.0000006978   0.000086718   0.000036520
   8  7  0     -115.0198075559    -0.0000000273   0.000021653   0.000010435
   9  8  0     -115.0198075575    -0.0000000016   0.000005313   0.000002088
  10  9  0     -115.0198075576    -0.0000000001   0.000001428   0.000000562
  11 10  0     -115.0198075577    -0.0000000000   0.000000362   0.000000119

          -----------------
          DENSITY CONVERGED
          -----------------
     TIME TO FORM FOCK OPERATORS=       0.5 SECONDS (       0.0 SEC/ITER)
     TIME TO SOLVE SCF EQUATIONS=       0.0 SECONDS (       0.0 SEC/ITER)

 FINAL RHF ENERGY IS     -115.0198075577 AFTER  11 ITERATIONS
  
   PCM ASC=     -0.0059187570
   GCAVP  =      0.0000000000
   GDISP  =      0.0000000000
   GREP   =      0.0000000000

          ------------
          EIGENVECTORS
          ------------

                      1          2          3          4          5
                  -20.5356   -11.2576    -1.3716    -0.9289    -0.7001
                     A          A          A          A          A   
    1  H  1  S   -0.000555   0.000165   0.033279   0.181457   0.152498
    2  H  1  S   -0.000134   0.001642   0.000180   0.007736   0.020721
    3  H  1  X   -0.000027  -0.000156  -0.002753  -0.010585  -0.006696
    4  H  1  Y   -0.000046   0.000008   0.000691   0.000834  -0.003144
    5  H  1  Z    0.000173  -0.000181  -0.005876  -0.014881  -0.007492
    6  H  2  S   -0.000560   0.000169   0.033590   0.181796   0.153975
    7  H  2  S   -0.000157   0.001640   0.000311   0.008275   0.021413
    8  H  2  X   -0.000103   0.000086   0.003143   0.007482   0.005635
    9  H  2  Y   -0.000114   0.000213   0.005738   0.016258   0.007360
   10  H  2  Z    0.000088   0.000067   0.000194   0.003704   0.005071
   11  H  3  S   -0.000575   0.000189   0.035093   0.194028  -0.044269
   12  H  3  S   -0.000224   0.001634   0.004824   0.011982   0.001106
   13  H  3  X   -0.000094   0.000162   0.004114   0.012922  -0.002467
   14  H  3  Y    0.000053  -0.000207  -0.003723  -0.014202  -0.000327
   15  H  3  Z    0.000050   0.000020  -0.000869  -0.000625   0.002564
   16  C  4  S    0.000018   0.995200  -0.074599  -0.188544  -0.031101
   17  C  4  S    0.000047   0.022947   0.140516   0.379140   0.056392
   18  C  4  S    0.004301  -0.008957   0.016020   0.208126   0.098355
   19  C  4  X    0.000210   0.000624   0.061318  -0.037066  -0.013406
   20  C  4  Y    0.000056   0.000223   0.022041   0.002354  -0.207679
   21  C  4  Z   -0.000252  -0.000801  -0.078887   0.033415   0.183918
   22  C  4  X    0.001013   0.000454   0.003989  -0.021842   0.019020
   23  C  4  Y    0.000538   0.000135  -0.007446  -0.006721  -0.079289
   24  C  4  Z   -0.001474  -0.000547   0.002496   0.027590   0.046731
   25  C  4 XX    0.000028   0.000003   0.001728  -0.001698   0.005753
   26  C  4 YY    0.000150  -0.000089  -0.010752   0.002067   0.002982
   27  C  4 ZZ   -0.000178   0.000086   0.009025  -0.000370  -0.008735
   28  C  4 XY   -0.000107   0.000042   0.004592  -0.000162  -0.003799
   29  C  4 XZ    0.000332  -0.000176  -0.019989   0.001968   0.015706
   30  C  4 YZ    0.000187  -0.000075  -0.006140  -0.001978   0.017448
   31  O  5  S    0.994250  -0.000078  -0.222423   0.061242   0.044075
   32  O  5  S    0.026421   0.000290   0.447991  -0.134087  -0.093551
   33  O  5  S   -0.009096  -0.000753   0.424125  -0.121328  -0.189405
   34  O  5  X    0.000438  -0.000037   0.002503  -0.162439   0.326310
   35  O  5  Y   -0.001555   0.000039  -0.064828   0.022991  -0.272593
   36  O  5  Z    0.000837   0.000005   0.050354   0.141756  -0.100456
   37  O  5  X    0.001277   0.000277  -0.026788  -0.075669   0.176484
   38  O  5  Y    0.000752   0.000441  -0.006578  -0.011212  -0.146699
   39  O  5  Z   -0.001874  -0.000634   0.031793   0.083762  -0.055047
   40  O  5 XX    0.000169  -0.000013  -0.000748  -0.002227  -0.003449
   41  O  5 YY    0.000145   0.000058  -0.002250  -0.005848   0.012417
   42  O  5 ZZ   -0.000314  -0.000045   0.002998   0.008075  -0.008968
   43  O  5 XY   -0.000483   0.000064   0.000733   0.007835  -0.011058
   44  O  5 XZ    0.000024   0.000248  -0.007171  -0.009535   0.010077
   45  O  5 YZ    0.000197   0.000118  -0.004711  -0.006943  -0.003110
   46  H  6  S   -0.000723   0.000457   0.175022  -0.165932   0.303640
   47  H  6  S    0.000317   0.000005  -0.003346   0.001682   0.014350
   48  H  6  X    0.000931  -0.000200  -0.023903   0.014177  -0.022983
   49  H  6  Y   -0.001007  -0.000004   0.020554  -0.015862   0.020985
   50  H  6  Z   -0.000101   0.000202   0.006891  -0.001103   0.005627

                      6          7          8          9         10
                   -0.6244    -0.6023    -0.5036    -0.4513     0.1694
                     A          A          A          A          A   
    1  H  1  S    0.248201   0.001356   0.176571  -0.247807  -0.012253
    2  H  1  S    0.054887  -0.004735   0.062256  -0.081966  -0.809047
    3  H  1  X   -0.006062   0.004370  -0.003387   0.004698  -0.005497
    4  H  1  Y    0.004438  -0.003052  -0.006528  -0.003409  -0.000256
    5  H  1  Z   -0.011490  -0.002910  -0.007189   0.008258   0.000852
    6  H  2  S   -0.243406   0.010489   0.182429   0.247322  -0.012979
    7  H  2  S   -0.054097  -0.002306   0.064202   0.081714  -0.823207
    8  H  2  X   -0.003683   0.005405   0.008493   0.002686  -0.001974
    9  H  2  Y   -0.012918  -0.001869   0.003737   0.009738   0.002764
   10  H  2  Z    0.001152  -0.002029   0.004833  -0.000612   0.004449
   11  H  3  S   -0.007770  -0.283406  -0.300072   0.001969  -0.015502
   12  H  3  S   -0.001264  -0.051867  -0.086048   0.000551  -0.595521
   13  H  3  X    0.004430  -0.009607  -0.010969  -0.003576  -0.000289
   14  H  3  Y    0.004382   0.011291   0.007698  -0.003235  -0.004103
   15  H  3  Z    0.004889  -0.000465   0.003900  -0.003716   0.003769
   16  C  4  S   -0.000341   0.002874   0.007326   0.000140  -0.080808
   17  C  4  S    0.000812   0.000480  -0.019639  -0.000452   0.028583
   18  C  4  S    0.000332  -0.082343   0.041685   0.000385   1.740856
   19  C  4  X    0.227779   0.299001   0.116477  -0.155881  -0.062418
   20  C  4  Y    0.183730  -0.139184  -0.297428  -0.132226  -0.051431
   21  C  4  Z    0.226692  -0.186461   0.128013  -0.158233   0.101497
   22  C  4  X    0.091900   0.109339   0.083180  -0.088980  -0.130636
   23  C  4  Y    0.074085  -0.087541  -0.131219  -0.075859  -0.155861
   24  C  4  Z    0.091874  -0.038210   0.024484  -0.090994   0.243537
   25  C  4 XX    0.010600   0.000152  -0.013024   0.011121   0.001180
   26  C  4 YY   -0.010654  -0.016553   0.006244   0.018329  -0.004078
   27  C  4 ZZ    0.000054   0.016401   0.006780  -0.029450   0.002898
   28  C  4 XY   -0.001468   0.016297   0.019964   0.017654   0.002026
   29  C  4 XZ    0.005929  -0.022376   0.020495  -0.010104  -0.005754
   30  C  4 YZ   -0.007413  -0.006281  -0.005810  -0.001209  -0.000522
   31  O  5  S   -0.000102   0.026714  -0.045178  -0.000190  -0.043472
   32  O  5  S    0.000167  -0.062838   0.098832   0.000430   0.066796
   33  O  5  S    0.000792  -0.067582   0.181420   0.000615   0.396977
   34  O  5  X    0.221427  -0.155295  -0.092448   0.327038   0.081352
   35  O  5  Y    0.184504  -0.225998   0.339917   0.272085  -0.062104
   36  O  5  Z    0.228309   0.333156  -0.195165   0.328304  -0.029843
   37  O  5  X    0.151280  -0.103079  -0.046951   0.275625   0.208959
   38  O  5  Y    0.125686  -0.167348   0.258225   0.229258  -0.092867
   39  O  5  Z    0.155640   0.235070  -0.171491   0.276583  -0.130033
   40  O  5 XX   -0.003834  -0.011198   0.001884   0.004031   0.000284
   41  O  5 YY   -0.010368   0.002401  -0.004687  -0.009791   0.001591
   42  O  5 ZZ    0.014202   0.008797   0.002803   0.005759  -0.001876
   43  O  5 XY   -0.008874   0.009134   0.008352  -0.004885  -0.003707
   44  O  5 XZ    0.005815  -0.004634   0.003827   0.005664  -0.000828
   45  O  5 YZ   -0.000778  -0.019338   0.007054  -0.004175  -0.000784
   46  H  6  S   -0.001986  -0.055963  -0.190417  -0.001136  -0.031401
   47  H  6  S   -0.000440  -0.030006  -0.036435  -0.000230  -0.755736
   48  H  6  X    0.008132  -0.002926   0.014167   0.012218  -0.000924
   49  H  6  Y    0.006458  -0.009669  -0.005422   0.009976   0.000692
   50  H  6  Z    0.008114   0.010603  -0.009968   0.012197   0.000384

                     11         12         13         14         15
                    0.2069     0.2433     0.2438     0.3373     0.5974
                     A          A          A          A          A   
    1  H  1  S    0.000489  -0.006702  -0.004515  -0.083979   0.232471
    2  H  1  S   -0.425300   2.304788  -0.305912  -0.399129   0.118916
    3  H  1  X    0.004536   0.003317   0.002490  -0.009805  -0.009858
    4  H  1  Y   -0.000009  -0.000481  -0.003195  -0.004235   0.032405
    5  H  1  Z   -0.004151   0.004103  -0.002324   0.001399   0.004316
    6  H  2  S    0.001533   0.008121   0.000857  -0.086119   0.500791
    7  H  2  S   -0.389359  -1.345722  -1.897670  -0.403334   0.302717
    8  H  2  X    0.004372  -0.001760   0.004290  -0.001110  -0.019472
    9  H  2  Y   -0.000325   0.004331   0.002477   0.003115   0.016048
   10  H  2  Z   -0.004333   0.001052   0.000529   0.009993  -0.008705
   11  H  3  S    0.004674  -0.005783   0.016849  -0.055964  -0.803296
   12  H  3  S   -1.228742  -0.853594   1.929634   0.220570  -0.541708
   13  H  3  X    0.003596  -0.000989  -0.003067  -0.000876   0.001981
   14  H  3  Y    0.001408  -0.004015   0.004641  -0.005353   0.000729
   15  H  3  Z   -0.004541  -0.000997  -0.003303   0.005339   0.008705
   16  C  4  S   -0.077379   0.007716  -0.018516   0.041465  -0.000985
   17  C  4  S    0.086049  -0.009251   0.021108  -0.019649   0.014418
   18  C  4  S    1.231221  -0.108239   0.267748  -0.818396   0.036424
   19  C  4  X   -0.033181  -0.224406   0.080729  -0.088431   0.109557
   20  C  4  Y    0.065529  -0.050360  -0.254643  -0.055691  -0.261862
   21  C  4  Z   -0.017556  -0.171164  -0.054614   0.131838   0.022347
   22  C  4  X   -0.296136  -1.088717   0.417207  -0.887435  -0.804193
   23  C  4  Y    0.264893  -0.220708  -1.257220  -0.637454   1.630159
   24  C  4  Z    0.087025  -0.821531  -0.255240   1.397445  -0.002551
   25  C  4 XX   -0.002223   0.000620   0.002072  -0.000499  -0.018181
   26  C  4 YY    0.006284  -0.005598   0.001883  -0.009502  -0.013624
   27  C  4 ZZ   -0.004061   0.004978  -0.003955   0.010001   0.031805
   28  C  4 XY   -0.002817   0.001189  -0.008947   0.004159   0.080813
   29  C  4 XZ    0.008458   0.001738   0.002567  -0.022255   0.010318
   30  C  4 YZ   -0.000018  -0.001984   0.000580  -0.011403   0.014636
   31  O  5  S    0.059266  -0.009597   0.024193  -0.058904   0.014359
   32  O  5  S   -0.074637   0.011558  -0.028246   0.046429  -0.043846
   33  O  5  S   -0.648570   0.112034  -0.288087   0.940346  -0.085750
   34  O  5  X   -0.066321   0.024424  -0.004353  -0.183099  -0.042941
   35  O  5  Y    0.113198  -0.006585   0.063997   0.001710  -0.097377
   36  O  5  Z   -0.027677   0.034855  -0.025712   0.180656   0.071670
   37  O  5  X   -0.169798   0.127001  -0.032203  -0.577473   0.120206
   38  O  5  Y    0.202298   0.005167   0.218020  -0.023845  -0.262944
   39  O  5  Z    0.000355   0.132081  -0.037215   0.592978   0.006233
   40  O  5 XX    0.002195   0.009316  -0.001477  -0.001784   0.005133
   41  O  5 YY   -0.007285  -0.003058   0.000622  -0.002597   0.002066
   42  O  5 ZZ    0.005089  -0.006259   0.000855   0.004381  -0.007200
   43  O  5 XY    0.006173   0.000119   0.005670   0.002681  -0.009804
   44  O  5 XZ   -0.006020   0.000491   0.002758  -0.007392   0.000147
   45  O  5 YZ    0.002230  -0.001471  -0.007683  -0.006318   0.012815
   46  H  6  S    0.060782  -0.003169   0.006829  -0.011690   0.048423
   47  H  6  S    1.205656  -0.095204   0.262770   1.021212   0.251272
   48  H  6  X    0.000692   0.003653  -0.001914   0.005059   0.019860
   49  H  6  Y    0.005111   0.001395   0.002847  -0.004810  -0.000246
   50  H  6  Z   -0.004991   0.001773   0.002670  -0.000994  -0.021568

                     16         17         18         19         20
                    0.6063     0.7184     0.8091     0.8643     0.9138
                     A          A          A          A          A   
    1  H  1  S   -0.746735   0.108199   0.199118  -0.505840  -0.252783
    2  H  1  S   -0.562464  -0.081619  -0.561075   1.389240   0.081310
    3  H  1  X    0.001101  -0.031590   0.022372  -0.050160  -0.048433
    4  H  1  Y    0.012269  -0.007382   0.016174   0.035251   0.021392
    5  H  1  Z    0.004094   0.024096   0.049670  -0.107614  -0.020823
    6  H  2  S    0.591140   0.111125   0.209399   0.482687  -0.261956
    7  H  2  S    0.466348  -0.074280  -0.598306  -1.368786   0.091796
    8  H  2  X    0.020048  -0.022131  -0.041467  -0.042140  -0.010950
    9  H  2  Y   -0.009598   0.000822  -0.039434  -0.112923   0.054708
   10  H  2  Z    0.011834   0.034118  -0.014384   0.012684   0.016749
   11  H  3  S    0.157945   0.038854  -0.342387  -0.003260  -0.667909
   12  H  3  S    0.121155   0.265558   1.106593  -0.010361   1.254786
   13  H  3  X    0.022626   0.004699   0.078010   0.030375   0.100546
   14  H  3  Y    0.019224  -0.026139  -0.033828   0.027001  -0.112800
   15  H  3  Z    0.022013   0.017568  -0.046607   0.033134  -0.003562
   16  C  4  S   -0.000369   0.071930  -0.012658  -0.001308  -0.095872
   17  C  4  S   -0.002136  -0.538901   0.029545   0.005002   0.931455
   18  C  4  S   -0.004966   0.223433   0.000619   0.004939  -1.217193
   19  C  4  X   -0.192883  -0.611308  -0.168522   0.568111  -0.440826
   20  C  4  Y   -0.093618  -0.110419   0.584866   0.478465   0.326253
   21  C  4  Z   -0.182509   0.684515  -0.306036   0.590459   0.148422
   22  C  4  X    1.291047   0.703083   0.467221  -0.854322   0.571775
   23  C  4  Y    0.628504  -0.055524  -1.014000  -0.716168  -0.501137
   24  C  4  Z    1.168515  -0.626893   0.357484  -0.879970  -0.132650
   25  C  4 XX   -0.027503  -0.012557  -0.062099  -0.003212  -0.002640
   26  C  4 YY    0.067526  -0.021532   0.036430   0.116319  -0.054215
   27  C  4 ZZ   -0.040023   0.034089   0.025669  -0.113108   0.056855
   28  C  4 XY    0.011791   0.030676   0.083524   0.076006   0.080007
   29  C  4 XZ   -0.039380  -0.042104   0.093781  -0.068164  -0.031538
   30  C  4 YZ    0.025889  -0.034673  -0.033576   0.027226   0.002049
   31  O  5  S   -0.002731  -0.033026   0.043474  -0.000170  -0.003464
   32  O  5  S    0.007351   0.196662  -0.170296   0.001088   0.030651
   33  O  5  S    0.023069  -0.446483   0.044575  -0.004751  -0.037136
   34  O  5  X   -0.099957  -0.197840  -0.065131  -0.053212   0.193699
   35  O  5  Y   -0.071080  -0.056721   0.192585  -0.047332  -0.231436
   36  O  5  Z   -0.126513   0.241310  -0.091940  -0.053813   0.000599
   37  O  5  X   -0.211432  -0.277346  -0.318890   0.103175   0.011411
   38  O  5  Y   -0.105774   0.113135   0.289179   0.083829   0.114945
   39  O  5  Z   -0.189859   0.179730   0.080088   0.100587  -0.108554
   40  O  5 XX   -0.013163   0.002691   0.044801  -0.029170  -0.009802
   41  O  5 YY    0.008410   0.041592  -0.010324  -0.011336  -0.021766
   42  O  5 ZZ    0.004753  -0.044283  -0.034477   0.040506   0.031569
   43  O  5 XY    0.002136  -0.033295  -0.080641  -0.021154   0.056463
   44  O  5 XZ   -0.005555   0.072870  -0.058140   0.006991   0.004331
   45  O  5 YZ    0.004946   0.033928   0.029501   0.011111  -0.003611
   46  H  6  S   -0.009239   0.324905   0.919854  -0.007102  -0.435299
   47  H  6  S   -0.048384  -0.236534  -0.468579   0.002247   0.156040
   48  H  6  X   -0.007872  -0.017423   0.088244  -0.010072  -0.077528
   49  H  6  Y   -0.003196  -0.037571  -0.070365  -0.006734   0.073512
   50  H  6  Z    0.000210   0.048087  -0.029553  -0.008423   0.017697

                     21         22         23         24         25
                    0.9182     1.0868     1.1372     1.1491     1.2064
                     A          A          A          A          A   
    1  H  1  S    0.553330  -0.546509   0.165305  -0.447361   0.003389
    2  H  1  S   -0.801081  -0.492712   0.157304  -0.479160   0.099108
    3  H  1  X    0.060985  -0.028017   0.055183   0.027646   0.004328
    4  H  1  Y    0.029611  -0.049385  -0.020415   0.064140   0.034877
    5  H  1  Z    0.082261   0.033658  -0.036521   0.001970   0.014972
    6  H  2  S    0.565268  -0.556994  -0.125054  -0.466106   0.007470
    7  H  2  S   -0.816956  -0.494331  -0.110584  -0.492181   0.108724
    8  H  2  X   -0.062130  -0.003577  -0.054738  -0.035740  -0.029870
    9  H  2  Y   -0.077032  -0.026135   0.020880   0.014652   0.004106
   10  H  2  Z   -0.043557   0.060645   0.039488  -0.059589  -0.022191
   11  H  3  S    0.081443  -0.359569   0.020905  -0.670958  -0.020726
   12  H  3  S    0.358692  -0.551991   0.013020  -0.384704   0.238795
   13  H  3  X    0.007451  -0.006176  -0.039684  -0.019937  -0.032844
   14  H  3  Y    0.006089   0.024873  -0.034125  -0.044909  -0.062782
   15  H  3  Z   -0.010844  -0.016672  -0.041280   0.052455   0.086345
   16  C  4  S    0.092835  -0.010394   0.000652  -0.019715   0.012427
   17  C  4  S   -0.704768  -0.983381   0.048784  -1.167942   0.179379
   18  C  4  S    0.854657   3.565220  -0.121975   3.050032   0.607486
   19  C  4  X   -0.114458   0.162340  -0.017049  -0.116670  -0.063523
   20  C  4  Y    0.442563   0.002435  -0.020327   0.110524   0.164711
   21  C  4  Z   -0.245020  -0.165827  -0.021766   0.018479  -0.073774
   22  C  4  X    0.163436   0.070281  -0.357962  -0.264570   0.476562
   23  C  4  Y   -0.515876  -0.282532  -0.301618   0.108114   0.131227
   24  C  4  Z    0.265757   0.142406  -0.382669   0.118915  -0.560284
   25  C  4 XX   -0.003291  -0.003934   0.047450   0.040205   0.034611
   26  C  4 YY   -0.017387  -0.014930  -0.064881  -0.037847  -0.107578
   27  C  4 ZZ    0.020678   0.018864   0.017431  -0.002358   0.072967
   28  C  4 XY    0.066644  -0.022890  -0.018785   0.033774   0.064497
   29  C  4 XZ    0.047299  -0.086724   0.036714   0.044327  -0.132759
   30  C  4 YZ    0.038764  -0.059638  -0.040015   0.097575   0.008531
   31  O  5  S   -0.041400   0.076958   0.000082  -0.000726   0.026761
   32  O  5  S    0.210210  -0.314280   0.002263  -0.082530  -0.217837
   33  O  5  S   -0.099251  -0.526126   0.002612  -0.019337   0.198478
   34  O  5  X    0.122463   0.071044  -0.554114  -0.009037  -0.581373
   35  O  5  Y   -0.271278  -0.442386  -0.466110   0.396843   0.134300
   36  O  5  Z    0.098860   0.286120  -0.540698  -0.367333   0.475866
   37  O  5  X    0.067514   0.049705   0.714218   0.451224   1.433174
   38  O  5  Y    0.042813   0.879489   0.614783  -0.722727  -0.451190
   39  O  5  Z   -0.102732  -0.758783   0.716833   0.216181  -1.066443
   40  O  5 XX   -0.017114  -0.008647   0.024962  -0.004135   0.009460
   41  O  5 YY   -0.020628   0.017269  -0.001253   0.014758  -0.004424
   42  O  5 ZZ    0.037742  -0.008622  -0.023710  -0.010623  -0.005036
   43  O  5 XY    0.073978  -0.007887   0.010886   0.016041  -0.018172
   44  O  5 XZ    0.021735   0.017223  -0.001709   0.055446  -0.019919
   45  O  5 YZ   -0.002265  -0.008403  -0.011983   0.021847   0.003275
   46  H  6  S   -0.668408   0.373550   0.014907  -0.507511  -0.458053
   47  H  6  S    0.553488  -0.317852   0.000004  -0.106402  -0.948684
   48  H  6  X   -0.102205  -0.056289  -0.003780   0.029129   0.157384
   49  H  6  Y    0.092826   0.000039  -0.002100  -0.057086  -0.143643
   50  H  6  Z    0.025843   0.056020  -0.005686   0.017808  -0.039132

                     26         27         28         29         30
                    1.6141     1.6946     1.9445     1.9659     2.1156
                     A          A          A          A          A   
    1  H  1  S   -0.052799  -0.119511   0.283462  -0.153414  -0.044197
    2  H  1  S   -0.190350   0.011822   0.171093  -0.173567  -0.047328
    3  H  1  X    0.255184  -0.070193  -0.093081   0.074322   0.207746
    4  H  1  Y   -0.053343  -0.217458  -0.094349   0.023820   0.000460
    5  H  1  Z   -0.153730   0.023061   0.073679  -0.085858  -0.195215
    6  H  2  S    0.050983  -0.117937   0.284097   0.157980  -0.035242
    7  H  2  S    0.183336   0.016330   0.178452   0.178293  -0.039463
    8  H  2  X   -0.222602   0.089387  -0.025164  -0.071697   0.207578
    9  H  2  Y    0.088891  -0.072904  -0.032135  -0.018930  -0.008867
   10  H  2  Z    0.186171   0.198927   0.148540   0.089329  -0.208713
   11  H  3  S    0.001833  -0.224584   0.125192   0.001531   0.198921
   12  H  3  S    0.004712  -0.212247   0.061409  -0.000306   0.181774
   13  H  3  X   -0.145047   0.102140   0.101396  -0.005208  -0.105609
   14  H  3  Y   -0.127330   0.138317   0.107320  -0.005338  -0.097479
   15  H  3  Z   -0.142338  -0.218430  -0.186305  -0.008774   0.178689
   16  C  4  S    0.000027  -0.003896   0.019400   0.000249   0.020421
   17  C  4  S   -0.000895  -0.287928   0.312238   0.004284  -0.063951
   18  C  4  S    0.000296   1.131201  -2.005700  -0.023458  -1.004100
   19  C  4  X   -0.026691  -0.035844  -0.123282   0.008656  -0.170781
   20  C  4  Y   -0.023164   0.024719  -0.015247   0.005998  -0.041826
   21  C  4  Z   -0.028710   0.013743   0.133738   0.010743   0.202718
   22  C  4  X    0.251390  -0.000989  -0.521635   0.248738  -0.171727
   23  C  4  Y    0.202950   0.418213   0.084217   0.216642  -0.409516
   24  C  4  Z    0.256228  -0.341729   0.452035   0.269060   0.526766
   25  C  4 XX    0.502040  -0.284008  -0.088693   0.111221  -0.028903
   26  C  4 YY   -0.124502   0.227993   0.188288  -0.139625   0.086665
   27  C  4 ZZ   -0.377538   0.056015  -0.099595   0.028404  -0.057763
   28  C  4 XY    0.168464   0.010206  -0.093237  -0.043827   0.075444
   29  C  4 XZ    0.079581   0.032400   0.188220   0.085409   0.327764
   30  C  4 YZ   -0.257792  -0.481537  -0.086106  -0.081375   0.140390
   31  O  5  S   -0.000220  -0.027495   0.058553   0.000414   0.016689
   32  O  5  S    0.003518   0.377240  -1.411067  -0.013772  -0.731386
   33  O  5  S   -0.005299  -0.661048   2.812261   0.031050   1.626428
   34  O  5  X    0.077509  -0.121751   0.065965   0.012618   0.040744
   35  O  5  Y    0.061789   0.116283   0.020468   0.010395  -0.163484
   36  O  5  Z    0.076878   0.026183  -0.082655   0.013106   0.095290
   37  O  5  X   -0.207609   0.637942  -0.014242  -0.255628  -0.473150
   38  O  5  Y   -0.162866  -0.520599  -0.599747  -0.215257  -0.089464
   39  O  5  Z   -0.202310  -0.208628   0.508955  -0.251663   0.536825
   40  O  5 XX   -0.130899   0.127298  -0.047263   0.309203   0.187876
   41  O  5 YY   -0.048909  -0.147080   0.069457  -0.302579  -0.151895
   42  O  5 ZZ    0.179808   0.019782  -0.022194  -0.006624  -0.035980
   43  O  5 XY   -0.095667   0.020748   0.060679  -0.064690   0.049097
   44  O  5 XZ    0.026440  -0.095366   0.196888   0.180037   0.066175
   45  O  5 YZ    0.051612   0.170044   0.041609  -0.218289   0.360601
   46  H  6  S    0.004090  -0.406555  -0.635020  -0.005094  -0.134033
   47  H  6  S    0.003149  -0.123716  -0.005237   0.000625   0.086391
   48  H  6  X   -0.086950   0.067960  -0.006657   0.444661   0.213693
   49  H  6  Y   -0.070847   0.139449  -0.259869   0.362970   0.247325
   50  H  6  Z   -0.088720  -0.179852   0.204778   0.451420  -0.413687

                     31         32         33         34         35
                    2.1574     2.2065     2.2127     2.2342     2.3053
                     A          A          A          A          A   
    1  H  1  S   -0.011148  -0.523357   0.195583  -0.157938  -0.048460
    2  H  1  S   -0.001674  -0.193516   0.063931  -0.038326   0.170216
    3  H  1  X   -0.104467  -0.331513   0.131675   0.222540   0.393915
    4  H  1  Y    0.585997  -0.119617  -0.304651   0.057642   0.227069
    5  H  1  Z    0.091519  -0.187128   0.024321  -0.223507  -0.311301
    6  H  2  S   -0.020455   0.364780   0.414716  -0.172623   0.060905
    7  H  2  S   -0.008993   0.136615   0.138382  -0.059886  -0.164377
    8  H  2  X    0.430985  -0.211529   0.174651   0.188077  -0.205363
    9  H  2  Y   -0.254675  -0.109440  -0.367192   0.032516  -0.071843
   10  H  2  Z    0.272425  -0.299079  -0.019758  -0.202000   0.523205
   11  H  3  S    0.028087   0.108228  -0.449847  -0.381958   0.010181
   12  H  3  S    0.011842   0.049842  -0.184408  -0.164512   0.001502
   13  H  3  X   -0.350286  -0.209990   0.014215   0.273351   0.125394
   14  H  3  Y   -0.279152  -0.078026  -0.421112   0.038471   0.113330
   15  H  3  Z   -0.368504  -0.268013   0.148827  -0.286241   0.159193
   16  C  4  S   -0.000075   0.000149  -0.000037   0.004538  -0.000351
   17  C  4  S    0.000732  -0.000367   0.003005  -0.081798   0.003031
   18  C  4  S    0.009764   0.068185  -0.235167   0.690227  -0.021840
   19  C  4  X    0.000921  -0.042961   0.004297   0.034253  -0.023295
   20  C  4  Y    0.004403  -0.020989  -0.065925  -0.006061  -0.019263
   21  C  4  Z   -0.000444  -0.052092   0.022966  -0.026895  -0.022873
   22  C  4  X    0.020082   0.583432  -0.305983  -0.427828  -0.100879
   23  C  4  Y   -0.041956   0.240346   0.768159   0.107382  -0.092658
   24  C  4  Z   -0.002562   0.536483  -0.025570   0.284656  -0.125522
   25  C  4 XX   -0.008746   0.044088   0.146817   0.000431  -0.146790
   26  C  4 YY   -0.000943  -0.434999  -0.055785   0.285938  -0.133443
   27  C  4 ZZ    0.009690   0.390911  -0.091032  -0.286369   0.280233
   28  C  4 XY    0.029344  -0.142479  -0.513650  -0.274529  -0.146173
   29  C  4 XZ    0.010225   0.321121  -0.232801   0.397510   0.051944
   30  C  4 YZ    0.003159  -0.108269  -0.094731   0.153292   0.036078
   31  O  5  S    0.000017  -0.002965   0.007495  -0.056129   0.002061
   32  O  5  S    0.002876   0.038017  -0.104803   0.477960  -0.016462
   33  O  5  S   -0.007176  -0.042932   0.132935  -0.294725   0.007934
   34  O  5  X   -0.001342   0.043714   0.053545  -0.270001   0.070485
   35  O  5  Y   -0.002136   0.035406   0.062692  -0.052635   0.051606
   36  O  5  Z    0.001135   0.084356  -0.068789   0.311545   0.047612
   37  O  5  X    0.003777  -0.105260  -0.033249   0.325865   0.004676
   38  O  5  Y    0.013078  -0.037891  -0.242360   0.016967   0.012976
   39  O  5  Z   -0.006387  -0.170044   0.163501  -0.321099   0.029264
   40  O  5 XX    0.001894   0.047344  -0.013911  -0.062303   0.205485
   41  O  5 YY   -0.003762   0.050294   0.040989   0.132004   0.216153
   42  O  5 ZZ    0.001867  -0.097638  -0.027078  -0.069701  -0.421638
   43  O  5 XY    0.000870   0.062890  -0.003891  -0.063713   0.254788
   44  O  5 XZ   -0.000116  -0.030038   0.000478   0.087286  -0.126631
   45  O  5 YZ    0.001100  -0.004248  -0.042625  -0.082868  -0.041969
   46  H  6  S    0.002871   0.018887  -0.066878  -0.039616   0.002338
   47  H  6  S   -0.007511  -0.027828   0.116201   0.055882  -0.000142
   48  H  6  X   -0.005188  -0.098212   0.022394  -0.075308  -0.089626
   49  H  6  Y   -0.004556  -0.084216   0.022260  -0.076887  -0.074963
   50  H  6  Z    0.002077  -0.061472  -0.099305   0.127572  -0.095664

                     36         37         38         39         40
                    2.4989     2.7511     2.7753     2.8153     2.9538
                     A          A          A          A          A   
    1  H  1  S   -0.022260  -0.027356   0.058549   0.104602  -0.113658
    2  H  1  S    0.189859   0.023678  -0.036244   0.403611  -0.175096
    3  H  1  X    0.143448   0.305871   0.441775  -0.161007   0.160342
    4  H  1  Y   -0.229553  -0.263539   0.228451   0.336085   0.527937
    5  H  1  Z   -0.195305  -0.184364  -0.174110  -0.098001   0.120023
    6  H  2  S   -0.020709  -0.027907   0.053102  -0.112213  -0.106468
    7  H  2  S    0.201500   0.023740  -0.061283  -0.398125  -0.159943
    8  H  2  X    0.323844   0.384337   0.123666   0.173696  -0.362637
    9  H  2  Y   -0.069305  -0.193936  -0.075126  -0.306786   0.087477
   10  H  2  Z   -0.023890  -0.105018  -0.501470   0.138253  -0.432114
   11  H  3  S   -0.037423  -0.015893  -0.003847  -0.004491   0.111019
   12  H  3  S   -0.394159  -0.230557  -0.060905  -0.004676   0.252361
   13  H  3  X   -0.336237   0.061556   0.049034   0.403390   0.079898
   14  H  3  Y   -0.199309   0.221630   0.282660   0.336992  -0.203075
   15  H  3  Z    0.474294  -0.245538  -0.247291   0.435815   0.080149
   16  C  4  S   -0.011134  -0.004680   0.003854  -0.000348  -0.013639
   17  C  4  S    0.137736  -0.032989   0.048167  -0.005534   0.114097
   18  C  4  S    0.368941   0.171546  -0.541222   0.046429   0.299310
   19  C  4  X    0.057011  -0.138911  -0.257066  -0.176072   0.205129
   20  C  4  Y    0.161732   0.046508  -0.087372  -0.157806  -0.243254
   21  C  4  Z   -0.186676   0.098713   0.304373  -0.211964   0.013125
   22  C  4  X   -0.149606  -0.217633  -0.376620  -0.400422   0.250588
   23  C  4  Y    0.486926   0.108569  -0.085086  -0.343572  -0.332061
   24  C  4  Z   -0.242405   0.117968   0.406647  -0.444493   0.053939
   25  C  4 XX   -0.264008   0.054982  -0.054078   0.205278  -0.194967
   26  C  4 YY    0.132820  -0.257287  -0.083340  -0.327987   0.209553
   27  C  4 ZZ    0.131188   0.202305   0.137418   0.122708  -0.014586
   28  C  4 XY    0.258597   0.289404   0.020575  -0.120452  -0.175380
   29  C  4 XZ    0.186858  -0.168096  -0.308143   0.204437  -0.135308
   30  C  4 YZ   -0.284869   0.080373  -0.276064  -0.172867  -0.454983
   31  O  5  S   -0.002237  -0.020046   0.040007  -0.001642  -0.016540
   32  O  5  S    0.190101   0.264875  -0.757486   0.039447   0.302603
   33  O  5  S   -0.450457  -0.079114   1.236611  -0.070349  -0.290939
   34  O  5  X   -0.023584   0.262204  -0.023793  -0.028527   0.191692
   35  O  5  Y    0.031521  -0.188587   0.132989  -0.033452  -0.180789
   36  O  5  Z   -0.000994  -0.107874  -0.088802  -0.030019  -0.040485
   37  O  5  X    0.450867  -0.177013  -0.084024   0.232958   0.013915
   38  O  5  Y   -0.083565   0.136577  -0.279904   0.201291   0.266083
   39  O  5  Z   -0.385667   0.066250   0.332678   0.199230  -0.244606
   40  O  5 XX    0.065472  -0.158165   0.016713  -0.103023   0.192376
   41  O  5 YY   -0.001435  -0.049073   0.018852  -0.351341  -0.250316
   42  O  5 ZZ   -0.064036   0.207238  -0.035565   0.454364   0.057940
   43  O  5 XY   -0.108192   0.374751  -0.286394  -0.281435   0.217119
   44  O  5 XZ   -0.047318   0.112862  -0.310785   0.207401   0.019583
   45  O  5 YZ    0.062040  -0.124567  -0.183394  -0.014615   0.370801
   46  H  6  S   -0.171575   0.241171  -0.324448   0.014287   0.062415
   47  H  6  S   -0.060792  -0.051932   0.194463  -0.010574  -0.124967
   48  H  6  X   -0.241098   0.363782  -0.202142  -0.175230   0.141335
   49  H  6  Y   -0.282436  -0.373072   0.163483  -0.164958  -0.441678
   50  H  6  Z    0.478296  -0.050845   0.050254  -0.171999   0.224444

                     41         42         43         44         45
                    3.1131     3.1642     3.2052     3.3653     3.4767
                     A          A          A          A          A   
    1  H  1  S   -0.118430  -0.129491   0.268100  -0.254927  -0.544875
    2  H  1  S   -0.107081  -0.078118   0.123820  -0.061565  -0.121681
    3  H  1  X    0.174256  -0.244983  -0.237055   0.197653   0.284188
    4  H  1  Y   -0.115081   0.079755   0.179456   0.113856  -0.129562
    5  H  1  Z    0.137248   0.375697  -0.280571   0.292066   0.655881
    6  H  2  S    0.122674   0.127623   0.268272  -0.266711  -0.545017
    7  H  2  S    0.110094   0.076669   0.124915  -0.068003  -0.125788
    8  H  2  X   -0.018301   0.404396   0.039322  -0.224143  -0.322391
    9  H  2  Y    0.252321   0.041960   0.402537  -0.268025  -0.650106
   10  H  2  Z    0.019646  -0.209611  -0.010425  -0.153927   0.030540
   11  H  3  S   -0.005340   0.005215   0.073439  -0.668441  -0.103998
   12  H  3  S   -0.002817   0.002408   0.073181  -0.177734  -0.014812
   13  H  3  X   -0.149731   0.230643  -0.059978  -0.688957  -0.118569
   14  H  3  Y   -0.116988   0.188214  -0.224124   0.534371   0.107635
   15  H  3  Z   -0.141223   0.217748   0.254211   0.230409   0.032240
   16  C  4  S    0.000041   0.000336   0.083772  -0.106220  -0.044185
   17  C  4  S    0.000676  -0.003602  -0.692120   0.817207   0.451377
   18  C  4  S   -0.007861   0.004700  -0.949873   0.806086   0.088572
   19  C  4  X    0.143284   0.139928  -0.259112  -0.314174  -0.244240
   20  C  4  Y    0.133858   0.110079   0.103566   0.296122  -0.484506
   21  C  4  Z    0.158252   0.135199   0.169890   0.041366   0.639943
   22  C  4  X    0.059576   0.082024  -0.131212  -0.011322  -0.127583
   23  C  4  Y    0.056431   0.066852   0.012279   0.117981  -0.154616
   24  C  4  Z    0.067211   0.080211   0.123114  -0.097658   0.248203
   25  C  4 XX   -0.221864   0.739342  -0.197646  -0.124346  -0.018457
   26  C  4 YY    0.067046  -0.308434   0.370604   0.293749   0.232879
   27  C  4 ZZ    0.154819  -0.430908  -0.172958  -0.169402  -0.214422
   28  C  4 XY   -0.073294   0.170677  -0.218680  -0.286264   0.095830
   29  C  4 XZ   -0.038301   0.184714   0.266863   0.087492   0.808979
   30  C  4 YZ    0.114649  -0.403511  -0.280629  -0.275361   0.414106
   31  O  5  S   -0.000388   0.000342  -0.026933  -0.014500  -0.028226
   32  O  5  S   -0.002727   0.001234  -0.348372   0.280060  -0.149288
   33  O  5  S    0.015228  -0.011601   1.369698  -0.373767   0.739705
   34  O  5  X    0.025007  -0.008277   0.194403   0.053652  -0.047089
   35  O  5  Y    0.014949   0.000624  -0.205115  -0.096675  -0.081117
   36  O  5  Z    0.021778  -0.002336  -0.025587   0.025648   0.113184
   37  O  5  X    0.130712  -0.067901  -0.257789   0.257894  -0.254467
   38  O  5  Y    0.105273  -0.055792  -0.399640  -0.124089  -0.061772
   39  O  5  Z    0.141411  -0.075520   0.576372  -0.155967   0.304639
   40  O  5 XX    0.646829   0.424018  -0.234402  -0.236331   0.095932
   41  O  5 YY   -0.585352   0.136829   0.070204   0.437997  -0.353259
   42  O  5 ZZ   -0.061478  -0.560846   0.164198  -0.201666   0.257327
   43  O  5 XY   -0.102493   0.295909  -0.023338  -0.152668   0.089884
   44  O  5 XZ    0.341163  -0.072687  -0.403670   0.461626  -0.654928
   45  O  5 YZ   -0.452236  -0.168260  -0.595513  -0.197935  -0.144458
   46  H  6  S   -0.004891   0.005333  -0.419464  -0.201671  -0.084660
   47  H  6  S    0.000394  -0.000468   0.006805  -0.077196   0.095484
   48  H  6  X   -0.462034  -0.085809   0.435311   0.283204  -0.008354
   49  H  6  Y   -0.388070  -0.059887  -0.141536   0.076730  -0.153993
   50  H  6  Z   -0.478340  -0.076777  -0.305550  -0.338669   0.133370

                     46         47         48
                    3.6147     3.6475     3.9941
                     A          A          A   
    1  H  1  S    0.885922  -0.407475   0.049467
    2  H  1  S    0.214873  -0.101637  -0.036997
    3  H  1  X   -0.561354   0.264846  -0.004774
    4  H  1  Y    0.024118   0.029676   0.089477
    5  H  1  Z   -0.819032   0.342561  -0.079395
    6  H  2  S   -0.865250  -0.444565   0.048979
    7  H  2  S   -0.209732  -0.109486  -0.042510
    8  H  2  X   -0.420884  -0.218070   0.005166
    9  H  2  Y   -0.853536  -0.398417   0.095050
   10  H  2  Z   -0.194248  -0.138630  -0.074064
   11  H  3  S   -0.014177   0.973305  -0.271526
   12  H  3  S   -0.004133   0.249108  -0.087851
   13  H  3  X   -0.022768   0.711013  -0.264572
   14  H  3  Y    0.001296  -0.808395   0.143099
   15  H  3  Z   -0.019245  -0.008916   0.136739
   16  C  4  S    0.000937  -0.004577   0.000725
   17  C  4  S   -0.005177  -0.048776  -0.015110
   18  C  4  S   -0.011421   0.109452   0.063225
   19  C  4  X   -0.641698   0.558523  -0.171362
   20  C  4  Y   -0.526899  -0.736350   0.145849
   21  C  4  Z   -0.648065   0.038395   0.044587
   22  C  4  X   -0.253860   0.282246  -0.054195
   23  C  4  Y   -0.205804  -0.311596  -0.054317
   24  C  4  Z   -0.250336  -0.028441   0.090346
   25  C  4 XX   -0.023135  -0.432287  -0.018331
   26  C  4 YY    0.857762  -0.055298   0.177150
   27  C  4 ZZ   -0.834627   0.487585  -0.158819
   28  C  4 XY    0.547807   0.966123  -0.269028
   29  C  4 XZ   -0.491705   0.339170   0.040480
   30  C  4 YZ    0.211575  -0.276544  -0.087805
   31  O  5  S   -0.000434   0.017917   0.061516
   32  O  5  S   -0.003212  -0.014002  -0.136589
   33  O  5  S    0.015442  -0.331799  -1.264250
   34  O  5  X   -0.000183  -0.080103  -0.495046
   35  O  5  Y   -0.002991   0.099249   0.449180
   36  O  5  Z   -0.001190  -0.001055   0.123790
   37  O  5  X    0.018915   0.031652  -0.810236
   38  O  5  Y    0.018818   0.004014   0.682619
   39  O  5  Z    0.027718  -0.031809   0.246803
   40  O  5 XX    0.240600  -0.259174  -0.336644
   41  O  5 YY   -0.078414   0.285596  -0.274514
   42  O  5 ZZ   -0.162186  -0.026422   0.611158
   43  O  5 XY    0.063739   0.066110   1.068757
   44  O  5 XZ    0.031008   0.349939   0.169336
   45  O  5 YZ   -0.120499  -0.262037  -0.257953
   46  H  6  S   -0.003824   0.191679   1.865289
   47  H  6  S    0.002320  -0.058425   0.245531
   48  H  6  X   -0.069766  -0.064042  -0.953976
   49  H  6  Y   -0.065088   0.318655   0.911411
   50  H  6  Z   -0.066125  -0.204407   0.202151
 ...... END OF RHF CALCULATION ......
 STEP CPU TIME =     0.55 TOTAL CPU TIME =        0.7 (    0.0 MIN)
 TOTAL WALL CLOCK TIME=        0.7 SECONDS, CPU UTILIZATION IS  98.51%

     ----------------------------------------------------------------
     PROPERTY VALUES FOR THE RHF   SELF-CONSISTENT FIELD WAVEFUNCTION
     ----------------------------------------------------------------

          ---------------------------------------
          MULLIKEN AND LOWDIN POPULATION ANALYSES
          ---------------------------------------

     ATOMIC MULLIKEN POPULATION IN EACH MOLECULAR ORBITAL

                      1          2          3          4          5

                  2.000000   2.000000   2.000000   2.000000   2.000000

    1            -0.000006   0.000352   0.008741   0.182143   0.112131
    2            -0.000007   0.000352   0.008982   0.183276   0.114556
    3            -0.000010   0.000359   0.012080   0.212040   0.008678
    4             0.000669   1.999198   0.195835   0.923135   0.467478
    5             1.999611  -0.000264   1.567393   0.389214   0.988241
    6            -0.000258   0.000002   0.206968   0.110191   0.308916

                      6          7          8          9

                  2.000000   2.000000   2.000000   2.000000

    1             0.267963   0.002132   0.126846   0.216444
    2             0.258190   0.001986   0.135140   0.215659
    3             0.002245   0.347105   0.322560   0.001063
    4             0.754677   0.705689   0.542517   0.310212
    5             0.712489   0.922980   0.778650   1.247281
    6             0.004436   0.020108   0.094287   0.009341

               ----- POPULATIONS IN EACH AO -----
                             MULLIKEN      LOWDIN
              1  H  1  S      0.79824     0.67224
              2  H  1  S      0.09919     0.20983
              3  H  1  X      0.00528     0.01058
              4  H  1  Y      0.00289     0.00857
              5  H  1  Z      0.01114     0.01958
              6  H  2  S      0.79865     0.67326
              7  H  2  S      0.10019     0.20981
              8  H  2  X      0.00501     0.01166
              9  H  2  Y      0.01224     0.02087
             10  H  2  Z      0.00205     0.00633
             11  H  3  S      0.79732     0.66761
             12  H  3  S      0.08940     0.20307
             13  H  3  X      0.00871     0.01591
             14  H  3  Y      0.00874     0.01611
             15  H  3  Z      0.00195     0.00656
             16  C  4  S      1.99599     1.97370
             17  C  4  S      0.70525     0.36141
             18  C  4  S      0.37764     0.28660
             19  C  4  X      0.67021     0.61644
             20  C  4  Y      0.72422     0.66016
             21  C  4  Z      0.62317     0.57744
             22  C  4  X      0.25333     0.34628
             23  C  4  Y      0.31058     0.40540
             24  C  4  Z      0.17047     0.29633
             25  C  4 XX      0.01958     0.14825
             26  C  4 YY      0.00597     0.15251
             27  C  4 ZZ      0.01551     0.16445
             28  C  4 XY      0.02092     0.03400
             29  C  4 XZ      0.00656     0.03695
             30  C  4 YZ      0.00000     0.01187
             31  O  5  S      1.99609     1.97151
             32  O  5  S      0.87538     0.61462
             33  O  5  S      0.88682     0.45517
             34  O  5  X      0.94617     0.89871
             35  O  5  Y      1.01970     0.97992
             36  O  5  Z      0.98607     0.94574
             37  O  5  X      0.56452     0.60059
             38  O  5  Y      0.65029     0.68728
             39  O  5  Z      0.66262     0.65228
             40  O  5 XX      0.00458     0.18512
             41  O  5 YY      0.00109     0.17907
             42  O  5 ZZ      0.00559     0.18368
             43  O  5 XY      0.00331     0.01204
             44  O  5 XZ      0.00335     0.00463
             45  O  5 YZ      0.00000     0.00429
             46  H  6  S      0.68558     0.55221
             47  H  6  S      0.00819     0.11751
             48  H  6  X      0.02614     0.05002
             49  H  6  Y      0.02245     0.04714
             50  H  6  Z      0.01162     0.03467

          ----- MULLIKEN ATOMIC OVERLAP POPULATIONS -----
          (OFF-DIAGONAL ELEMENTS NEED TO BE MULTIPLIED BY 2)

             1           2           3           4           5

    1    0.5825427
    2   -0.0269708   0.5842514
    3   -0.0238285  -0.0240541   0.5573729
    4    0.4243939   0.4249921   0.4180598   4.4636739
    5   -0.0351079  -0.0354411  -0.0281751   0.1938905   8.1519889
    6   -0.0042820  -0.0046416   0.0067455  -0.0256001   0.3584400

             6

    6    0.4233291

          TOTAL MULLIKEN AND LOWDIN ATOMIC POPULATIONS
       ATOM         MULL.POP.    CHARGE          LOW.POP.     CHARGE
    1 H             0.916747    0.083253         0.920808    0.079192
    2 H             0.918136    0.081864         0.921921    0.078079
    3 H             0.906120    0.093880         0.909264    0.090736
    4 C             5.899410    0.100590         6.071794   -0.071794
    5 O             8.605595   -0.605595         8.374660   -0.374660
    6 H             0.753991    0.246009         0.801552    0.198448

          MULLIKEN SPHERICAL HARMONIC POPULATIONS
       ATOM           S       P       D      F      G      H      I    TOTAL
    1 H             0.90    0.02    0.00   0.00   0.00   0.00   0.00    0.92
    2 H             0.90    0.02    0.00   0.00   0.00   0.00   0.00    0.92
    3 H             0.89    0.02    0.00   0.00   0.00   0.00   0.00    0.91
    4 C             3.08    2.75    0.07   0.00   0.00   0.00   0.00    5.90
    5 O             3.76    4.83    0.02   0.00   0.00   0.00   0.00    8.61
    6 H             0.69    0.06    0.00   0.00   0.00   0.00   0.00    0.75

          -------------------------------
          BOND ORDER AND VALENCE ANALYSIS     BOND ORDER THRESHOLD=0.050
          -------------------------------

                   BOND                       BOND                       BOND
  ATOM PAIR DIST  ORDER      ATOM PAIR DIST  ORDER      ATOM PAIR DIST  ORDER
    1   4  1.087  0.987        2   4  1.087  0.987        3   4  1.081  0.986
    4   5  1.401  0.842        5   6  0.942  0.955

                       TOTAL       BONDED        FREE
      ATOM            VALENCE     VALENCE     VALENCE
    1 H                 0.963       0.963       0.000
    2 H                 0.963       0.963      -0.000
    3 H                 0.970       0.970       0.000
    4 C                 3.805       3.805       0.000
    5 O                 1.783       1.783       0.000
    6 H                 0.964       0.964      -0.000

    **** A SOLVENT MODEL IS IN USE IN THIS RUN ****
 ELECTRICAL PROPERTIES (MOMENTS, DENSITY, FIELD/GRADIENT, AND/OR POTENTIAL)
 ARE COMPUTED USING THE SOLVATED SYSTEM'S DENSITY MATRIX, BUT
 ONLY WITH AO INTEGRAL CONTRIBUTIONS FROM THE QUANTUM SOLUTE.
 THE ONE EXCEPTION IS THE DIPOLE, WHICH IS ALSO PRINTED FOR THE TOTAL SYSTEM.

          ----------------------------
          SOLUTE ELECTROSTATIC MOMENTS
          ----------------------------

 POINT   1           X           Y           Z (BOHR)    CHARGE
                -0.723725   -0.622124   -2.308703        0.00 (A.U.)
         DX          DY          DZ         /D/  (DEBYE)
     0.172187   -1.797171    1.289956    2.218887

          ----------------------------
          SYSTEM ELECTROSTATIC MOMENTS
          ----------------------------

 POINT   1           X           Y           Z (BOHR)    CHARGE
                -0.723725   -0.622124   -2.308703        0.00 (A.U.)
         DX          DY          DZ         /D/  (DEBYE)
     0.172187   -1.797171    1.289956    2.218887
 INCLUDING PCM SURFACE CHARGES, TOTAL CHARGE=   -0.005919, AND TOTAL DIPOLE IS
         DX          DY          DZ         /D/  (DEBYE)
     0.056678   -0.107858    0.037873    0.127593
 ...... END OF PROPERTY EVALUATION ......
 STEP CPU TIME =     0.00 TOTAL CPU TIME =        0.7 (    0.0 MIN)
 TOTAL WALL CLOCK TIME=        0.7 SECONDS, CPU UTILIZATION IS  98.51%

 -------------------------------   -----------------------------
 MP2 ENERGY GRADIENT CALCULATION   PROGRAM WRITTEN BY K.ISHIMURA
 -------------------------------   -----------------------------
 NUMBER OF OCCUPIED ORBITALS            =    9
 NUMBER OF VIRTUAL ORBITALS             =   39
 NUMBER OF ACTIVE OCCUPIED ORBITALS     =    7
[...]
   15  H  3  Z    0.004832   0.000662   0.003967  -0.003635  -0.003963
   16  C  4  S   -0.000066  -0.001916   0.006402  -0.000004   0.079565
   17  C  4  S    0.000137  -0.002100  -0.017427  -0.000018  -0.029727
   18  C  4  S    0.000394   0.080753   0.039402   0.000197  -1.676060
   19  C  4  X    0.223816  -0.298750   0.122193  -0.154343   0.061860
   20  C  4  Y    0.188769   0.119433  -0.299505  -0.129491   0.051305
   21  C  4  Z    0.228939   0.193777   0.127058  -0.156584  -0.102397
   22  C  4  X    0.093785  -0.113570   0.085274  -0.086792   0.127307
   23  C  4  Y    0.079201   0.082901  -0.133365  -0.073039   0.155766
   24  C  4  Z    0.095798   0.042536   0.025938  -0.088165  -0.249910
   25  C  4 XX    0.009945   0.000157  -0.012411   0.010492  -0.001328
   26  C  4 YY   -0.010844   0.016520   0.005685   0.017882   0.004218
   27  C  4 ZZ    0.000899  -0.016677   0.006727  -0.028374  -0.002890
   28  C  4 XY   -0.002441  -0.016280   0.019846   0.017096  -0.002067
   29  C  4 XZ    0.006427   0.022601   0.020081  -0.009945   0.005886
   30  C  4 YZ   -0.007017   0.007758  -0.005523  -0.001159   0.000255
   31  O  5  S   -0.000150  -0.026845  -0.045018  -0.000001   0.045054
   32  O  5  S    0.000350   0.064130   0.098676   0.000031  -0.068076
   33  O  5  S    0.000447   0.065341   0.177529  -0.000111  -0.415687
   34  O  5  X    0.219216   0.174732  -0.088387   0.327904  -0.087163
   35  O  5  Y    0.184168   0.207132   0.332871   0.275075   0.073154
   36  O  5  Z    0.220965  -0.345616  -0.188543   0.332167   0.025487
   37  O  5  X    0.149930   0.119112  -0.045028   0.274387  -0.210154
   38  O  5  Y    0.125995   0.156712   0.252205   0.230298   0.111917
   39  O  5  Z    0.151070  -0.248495  -0.164443   0.278061   0.114079
   40  O  5 XX   -0.003525   0.010770   0.001837   0.003740   0.000254
   41  O  5 YY   -0.010191  -0.000973  -0.004688  -0.010003  -0.001930
   42  O  5 ZZ    0.013716  -0.009797   0.002851   0.006263   0.001675
   43  O  5 XY   -0.008750  -0.009542   0.008214  -0.005095   0.003279
   44  O  5 XZ    0.005747   0.006131   0.003806   0.005750   0.000287
   45  O  5 YZ   -0.000500   0.019164   0.007059  -0.003995   0.001388
   46  H  6  S    0.000093   0.061326  -0.193854   0.000061   0.039383
   47  H  6  S   -0.000007   0.032770  -0.040369   0.000005   0.773136
   48  H  6  X    0.007575   0.002657   0.014367   0.011529   0.001343
   49  H  6  Y    0.006363   0.009694  -0.006922   0.009674  -0.001277
   50  H  6  Z    0.007625  -0.010710  -0.008449   0.011700  -0.000293

                     11         12         13         14         15
                    0.2044     0.2419     0.2423     0.3316     0.5968
                     A          A          A          A          A   
    1  H  1  S    0.001587  -0.004388  -0.005141   0.081127  -0.368830
    2  H  1  S    0.465830  -1.280867   1.895870   0.424794  -0.173829
    3  H  1  X   -0.004627   0.000869   0.003925   0.010092   0.010928
    4  H  1  Y    0.000153  -0.002736  -0.001969   0.004625  -0.029880
    5  H  1  Z    0.004363  -0.003976   0.002703  -0.002072  -0.004239
    6  H  2  S    0.001388  -0.005106   0.004552   0.081809  -0.396786
    7  H  2  S    0.447646  -1.055416  -2.031396   0.427924  -0.191262
    8  H  2  X   -0.004601   0.004855   0.000315   0.001464   0.023891
    9  H  2  Y    0.000236   0.000078   0.005080  -0.002715  -0.018065
   10  H  2  Z    0.004406  -0.000013   0.000942  -0.010808   0.009306
   11  H  3  S   -0.003210   0.021851   0.001502   0.053307   0.821269
   12  H  3  S    1.176154   2.107587   0.115715  -0.221163   0.490527
   13  H  3  X   -0.003658  -0.002203  -0.002371   0.001240   0.001876
   14  H  3  Y   -0.001522   0.005884  -0.001575   0.005358   0.002275
   15  H  3  Z    0.004821  -0.002399  -0.002471  -0.005671  -0.004935
   16  C  4  S    0.081402  -0.019312  -0.001401  -0.043370  -0.001369
   17  C  4  S   -0.091292   0.022818   0.001737   0.030516   0.002772
   18  C  4  S   -1.287537   0.265155   0.019237   0.732825  -0.044896
   19  C  4  X    0.027907   0.178821  -0.165426   0.099334  -0.118624
   20  C  4  Y   -0.059505  -0.206479  -0.161158   0.063130   0.241476
   21  C  4  Z    0.019865   0.024585  -0.178353  -0.149584  -0.075940
   22  C  4  X    0.268372   0.872312  -0.777134   0.852845   0.961608
   23  C  4  Y   -0.239379  -1.014732  -0.760710   0.633215  -1.458654
   24  C  4  Z   -0.074253   0.120753  -0.838493  -1.362721   0.216724
   25  C  4 XX    0.002073   0.001416   0.001683   0.000859   0.013884
   26  C  4 YY   -0.006375   0.004513  -0.004170   0.009554   0.025569
   27  C  4 ZZ    0.004302  -0.005929   0.002488  -0.010413  -0.039453
   28  C  4 XY    0.003278  -0.008654  -0.002779  -0.004362  -0.079614
   29  C  4 XZ   -0.008551   0.001593   0.002701   0.022755  -0.017739
   30  C  4 YZ   -0.000115   0.001305  -0.001620   0.012232  -0.008230
   31  O  5  S   -0.059413   0.024711   0.001873   0.057328  -0.014196
   32  O  5  S    0.074672  -0.029728  -0.002201  -0.049083   0.041404
   33  O  5  S    0.642937  -0.285623  -0.021987  -0.875594   0.107794
   34  O  5  X    0.062487  -0.009560   0.020646   0.196830   0.032789
   35  O  5  Y   -0.121970   0.059991   0.022379  -0.005163   0.084418
   36  O  5  Z    0.039479  -0.043971   0.019158  -0.189802  -0.098111
   37  O  5  X    0.155394  -0.067966   0.096703   0.583061  -0.139064
   38  O  5  Y   -0.218592   0.185104   0.098247   0.014806   0.221456
   39  O  5  Z    0.028864  -0.103547   0.096941  -0.587028  -0.039339
   40  O  5 XX   -0.002686  -0.005018   0.007375   0.001773  -0.007639
   41  O  5 YY    0.007233   0.001982  -0.002300   0.001886  -0.001429
   42  O  5 ZZ   -0.004547   0.003036  -0.005075  -0.003659   0.009068
   43  O  5 XY   -0.005412   0.004082   0.002450  -0.002074   0.011275
   44  O  5 XZ    0.006183   0.001878   0.001591   0.006210  -0.003022
   45  O  5 YZ   -0.002769  -0.005560  -0.004509   0.005770  -0.012581
   46  H  6  S   -0.062335   0.008872   0.000588  -0.000151  -0.062633
   47  H  6  S   -1.164375   0.212568   0.020625  -1.014470  -0.256438
   48  H  6  X   -0.001375  -0.002936   0.002568  -0.004407  -0.020750
   49  H  6  Y   -0.004385   0.001240   0.002482   0.005373  -0.000210
   50  H  6  Z    0.005034   0.001515   0.002870  -0.000135   0.020909

                     16         17         18         19
                    0.6050     0.6966     0.7995     0.8595
                     A          A          A          A   
    1  H  1  S    0.696654   0.117516   0.156429   0.487866
    2  H  1  S    0.479690  -0.085118  -0.508234  -1.382197
    3  H  1  X   -0.000119  -0.027059   0.021493   0.048410
    4  H  1  Y   -0.018692  -0.008401   0.014391  -0.033815
    5  H  1  Z   -0.004452   0.023969   0.043998   0.104936
    6  H  2  S   -0.680276   0.118136   0.158361  -0.484935
    7  H  2  S   -0.470308  -0.085653  -0.518834   1.377012
    8  H  2  X   -0.015827  -0.020076  -0.035659   0.042717
    9  H  2  Y    0.006748  -0.002484  -0.034607   0.111478
   10  H  2  Z   -0.011152   0.031239  -0.013963  -0.011616
   11  H  3  S   -0.016166   0.092142  -0.327175  -0.001126
   12  H  3  S   -0.010500   0.270101   0.965606   0.005789
   13  H  3  X   -0.022985   0.004642   0.069285  -0.029522
   14  H  3  Y   -0.019593  -0.021904  -0.028189  -0.025707
   15  H  3  Z   -0.023346   0.013765  -0.044261  -0.030747
   16  C  4  S    0.000088   0.071581  -0.018883   0.000021
   17  C  4  S   -0.000275  -0.534863   0.054373   0.000476
   18  C  4  S    0.000790   0.272114   0.049893  -0.001708
   19  C  4  X    0.165820  -0.593586  -0.107537  -0.575698
   20  C  4  Y    0.134616  -0.091898   0.543648  -0.486623
   21  C  4  Z    0.169214   0.657874  -0.343559  -0.587759
   22  C  4  X   -1.098965   0.768911   0.377627   0.869969
   23  C  4  Y   -0.890203  -0.110278  -0.928708   0.734324
   24  C  4  Z   -1.110621  -0.661311   0.393828   0.886709
   25  C  4 XX    0.029456  -0.013298  -0.055611   0.002617
   26  C  4 YY   -0.065341  -0.013536   0.036200  -0.112690
   27  C  4 ZZ    0.035885   0.026835   0.019412   0.110073
   28  C  4 XY   -0.027645   0.023690   0.069217  -0.074614
   29  C  4 XZ    0.037684  -0.031637   0.089902   0.064257
   30  C  4 YZ   -0.027750  -0.032876  -0.029928  -0.025149
   31  O  5  S    0.000250  -0.025657   0.046933   0.000060
   32  O  5  S   -0.000487   0.174887  -0.202209  -0.000336
   33  O  5  S   -0.003741  -0.472066   0.110210   0.000922
   34  O  5  X    0.109240  -0.203502  -0.065762   0.051909
   35  O  5  Y    0.090937  -0.032227   0.228518   0.044192
   36  O  5  Z    0.113736   0.226964  -0.123593   0.052242
   37  O  5  X    0.175715  -0.263243  -0.290102  -0.105564
   38  O  5  Y    0.141904   0.153780   0.272169  -0.088795
   39  O  5  Z    0.175686   0.131670   0.061002  -0.107015
   40  O  5 XX    0.012435   0.004193   0.041046   0.026447
   41  O  5 YY   -0.007477   0.040657  -0.005264   0.011382
   42  O  5 ZZ   -0.004958  -0.044850  -0.035782  -0.037828
   43  O  5 XY    0.000727  -0.038140  -0.082791   0.020537
   44  O  5 XZ    0.004668   0.066465  -0.056164  -0.006120
   45  O  5 YZ   -0.007240   0.032055   0.021172  -0.010225
   46  H  6  S    0.000252   0.415782   0.963170   0.001216
   47  H  6  S    0.004195  -0.347030  -0.535843  -0.001337
   48  H  6  X    0.003761  -0.012215   0.091178   0.007643
   49  H  6  Y    0.002850  -0.037602  -0.075268   0.006083
   50  H  6  Z    0.003103   0.043147  -0.027511   0.007497

     -------------------------------------------------
     MP2 PROPERTIES...FOR THE FIRST ORDER WAVEFUNCTION
          USING THE RESPONSE (OR RELAXED) DENSITY
     -------------------------------------------------

          ---------------------------------------
          MULLIKEN AND LOWDIN POPULATION ANALYSES
          ---------------------------------------

               ----- POPULATIONS IN EACH AO -----
                             MULLIKEN      LOWDIN
              1  H  1  S      0.77783     0.65808
              2  H  1  S      0.11125     0.21502
              3  H  1  X      0.00597     0.01203
              4  H  1  Y      0.00416     0.00976
              5  H  1  Z      0.01076     0.02107
              6  H  2  S      0.77781     0.65851
              7  H  2  S      0.11135     0.21503
              8  H  2  X      0.00585     0.01309
              9  H  2  Y      0.01166     0.02210
             10  H  2  Z      0.00338     0.00777
             11  H  3  S      0.77591     0.65320
             12  H  3  S      0.10077     0.20837
             13  H  3  X      0.00871     0.01708
             14  H  3  Y      0.00882     0.01731
             15  H  3  Z      0.00329     0.00799
             16  C  4  S      1.99592     1.97383
             17  C  4  S      0.72029     0.36858
             18  C  4  S      0.37874     0.28836
             19  C  4  X      0.67899     0.62085
             20  C  4  Y      0.73187     0.66326
             21  C  4  Z      0.63107     0.58009
             22  C  4  X      0.26346     0.35208
             23  C  4  Y      0.31546     0.40905
             24  C  4  Z      0.18540     0.30277
             25  C  4 XX      0.02017     0.14874
             26  C  4 YY      0.00802     0.15391
             27  C  4 ZZ      0.01650     0.16282
             28  C  4 XY      0.01958     0.03398
             29  C  4 XZ      0.00881     0.03427
             30  C  4 YZ      0.00000     0.01341
             31  O  5  S      1.99611     1.97169
             32  O  5  S      0.89095     0.62769
             33  O  5  S      0.88069     0.46092
             34  O  5  X      0.93744     0.88886
             35  O  5  Y      0.99856     0.95689
             36  O  5  Z      0.97042     0.93199
             37  O  5  X      0.55782     0.60133
             38  O  5  Y      0.63893     0.68329
             39  O  5  Z      0.65356     0.65469
             40  O  5 XX      0.00832     0.18717
             41  O  5 YY      0.00512     0.18237
             42  O  5 ZZ      0.00912     0.18598
             43  O  5 XY      0.00692     0.01543
             44  O  5 XZ      0.00709     0.00840
             45  O  5 YZ      0.00000     0.00788
             46  H  6  S      0.66674     0.54348
             47  H  6  S      0.02435     0.12659
             48  H  6  X      0.02301     0.04599
             49  H  6  Y      0.02153     0.04550
             50  H  6  Z      0.01156     0.03145

          ----- MULLIKEN ATOMIC OVERLAP POPULATIONS -----
          (OFF-DIAGONAL ELEMENTS NEED TO BE MULTIPLIED BY 2)

             1           2           3           4           5

    1    0.6065470
    2   -0.0299761   0.6063784
    3   -0.0263272  -0.0260993   0.5733447
    4    0.3995134   0.3997075   0.3960746   4.5905709
    5   -0.0345888  -0.0346413  -0.0270891   0.2201814   8.1060058
    6   -0.0052033  -0.0053327   0.0076018  -0.0317860   0.3311797

             6

    6    0.4507244

          TOTAL MULLIKEN AND LOWDIN ATOMIC POPULATIONS
       ATOM         MULL.POP.    CHARGE          LOW.POP.     CHARGE
    1 H             0.909965    0.090035         0.915948    0.084052
    2 H             0.910036    0.089964         0.916493    0.083507
    3 H             0.897505    0.102495         0.903951    0.096049
    4 C             5.974262    0.025738         6.106011   -0.106011
    5 O             8.561048   -0.561048         8.364580   -0.364580
    6 H             0.747184    0.252816         0.793017    0.206983

          MULLIKEN SPHERICAL HARMONIC POPULATIONS
       ATOM           S       P       D      F      G      H      I    TOTAL
    1 H             0.89    0.02    0.00   0.00   0.00   0.00   0.00    0.91
    2 H             0.89    0.02    0.00   0.00   0.00   0.00   0.00    0.91
    3 H             0.88    0.02    0.00   0.00   0.00   0.00   0.00    0.90
    4 C             3.09    2.81    0.07   0.00   0.00   0.00   0.00    5.97
    5 O             3.77    4.76    0.04   0.00   0.00   0.00   0.00    8.56
    6 H             0.69    0.06    0.00   0.00   0.00   0.00   0.00    0.75

          -------------------------------
          BOND ORDER AND VALENCE ANALYSIS     BOND ORDER THRESHOLD=0.050
          -------------------------------

                   BOND                       BOND                       BOND
  ATOM PAIR DIST  ORDER      ATOM PAIR DIST  ORDER      ATOM PAIR DIST  ORDER
    1   4  1.095  0.943        2   4  1.095  0.943        3   4  1.090  0.948
    4   5  1.428  0.856        5   6  0.968  0.906

                       TOTAL       BONDED        FREE
      ATOM            VALENCE     VALENCE     VALENCE
    1 H                 0.967       0.923       0.044
    2 H                 0.967       0.923       0.044
    3 H                 0.974       0.932       0.042
    4 C                 3.924       3.692       0.233
    5 O                 2.109       1.760       0.349
    6 H                 0.961       0.914       0.047

    **** A SOLVENT MODEL IS IN USE IN THIS RUN ****
 ELECTRICAL PROPERTIES (MOMENTS, DENSITY, FIELD/GRADIENT, AND/OR POTENTIAL)
 ARE COMPUTED USING THE SOLVATED SYSTEM'S DENSITY MATRIX, BUT
 ONLY WITH AO INTEGRAL CONTRIBUTIONS FROM THE QUANTUM SOLUTE.
 THE ONE EXCEPTION IS THE DIPOLE, WHICH IS ALSO PRINTED FOR THE TOTAL SYSTEM.

          ----------------------------
          SOLUTE ELECTROSTATIC MOMENTS
          ----------------------------

 POINT   1           X           Y           Z (BOHR)    CHARGE
                -0.723725   -0.622124   -2.308703        0.00 (A.U.)
         DX          DY          DZ         /D/  (DEBYE)
     0.177291   -1.779648    1.294625    2.207857

          ----------------------------
          SYSTEM ELECTROSTATIC MOMENTS
          ----------------------------

 POINT   1           X           Y           Z (BOHR)    CHARGE
                -0.723725   -0.622124   -2.308703        0.00 (A.U.)
         DX          DY          DZ         /D/  (DEBYE)
     0.177291   -1.779648    1.294625    2.207857
 INCLUDING PCM SURFACE CHARGES, TOTAL CHARGE=   -0.005690, AND TOTAL DIPOLE IS
         DX          DY          DZ         /D/  (DEBYE)
     0.118100   -0.017893   -0.099608    0.155530
 ...... END OF PROPERTY EVALUATION ......
 STEP CPU TIME =     0.01 TOTAL CPU TIME =       33.6 (    0.6 MIN)
 TOTAL WALL CLOCK TIME=       33.6 SECONDS, CPU UTILIZATION IS  99.94%
  $VIB   
          IVIB=   0 IATOM=   0 ICOORD=   0 E=     -115.3580904746
  3.455220267E-07-5.259283347E-07-1.423579402E-07 1.205571160E-07-2.445586570E-07
 -4.106549809E-07 1.601748368E-07-1.063723656E-06 9.199479663E-07-1.440878255E-06
  2.739550148E-06 2.471937998E-07 6.954750278E-07-1.380057747E-06-1.321416307E-06
  1.191492479E-07 4.747182461E-07 7.072874616E-07
  1.772913545E-01-1.779647899E+00 1.294625103E+00
 ......END OF GEOMETRY SEARCH......
 STEP CPU TIME =     0.00 TOTAL CPU TIME =       33.6 (    0.6 MIN)
 TOTAL WALL CLOCK TIME=       33.6 SECONDS, CPU UTILIZATION IS  99.94%

             ----------------------------------------------
             -------   RESULTS OF PCM CALCULATION   -------
             ----------------------------------------------

 FREE ENERGY IN SOLVENT = <PSI| H(0)+V/2 |PSI>       =     -115.3580904746 A.U.
 INTERNAL ENERGY IN SOLVENT = <PSI| H(0) |PSI>       =     -115.3497880952 A.U.
 DELTA INTERNAL ENERGY =  <D-PSI| H(0) |D-PSI>       =        0.0000000000 A.U.
 ELECTROSTATIC INTERACTION                           =       -0.0083023794 A.U.
 PIEROTTI CAVITATION ENERGY                          =        0.0000000000 A.U.
 DISPERSION FREE ENERGY                              =        0.0000000000 A.U.
 REPULSION FREE ENERGY                               =        0.0000000000 A.U.
 TOTAL INTERACTION (DELTA + ES + CAV + DISP + REP)   =       -0.0083023794 A.U.
 TOTAL FREE ENERGY IN SOLVENT                        =     -115.3580904746 A.U.

 FREE ENERGY IN SOLVENT       =      -72388.30 KCAL/MOL
 INTERNAL ENERGY IN SOLVENT   =      -72383.09 KCAL/MOL
 DELTA INTERNAL ENERGY        =           0.00 KCAL/MOL
 ELECTROSTATIC INTERACTION    =          -5.21 KCAL/MOL
 PIEROTTI CAVITATION ENERGY   =           0.00 KCAL/MOL
 DISPERSION FREE ENERGY       =           0.00 KCAL/MOL
 REPULSION FREE ENERGY        =           0.00 KCAL/MOL
 TOTAL INTERACTION            =          -5.21 KCAL/MOL
 TOTAL FREE ENERGY IN SOLVENT =      -72388.30 KCAL/MOL

 -INTERNAL ENERGY IN SOLVENT-
    OMITS ES,CAV,DISP,REP (USES SOLVATED ORBITALS IN THE GAS PHASE HAMILTONIAN)
 -FREE ENERGY IN SOLVENT-
    INCLUDES ES+DISP+REP WHICH ARE IN THE SELF-CONSISTENT WAVEFUNCTION.
 -TOTAL FREE ENERGY IN SOLVENT-
    INCLUDES ES+DISP+REP+CAV, MEANING CAVITATION IS NOT IN THE SCF ENERGY.

 .... DONE PRINTING PCM SOLVENT SUMMARY ....
 STEP CPU TIME =     0.00 TOTAL CPU TIME =       33.6 (    0.6 MIN)
 TOTAL WALL CLOCK TIME=       33.6 SECONDS, CPU UTILIZATION IS  99.94%
               580000  WORDS OF DYNAMIC MEMORY USED
 EXECUTION OF GAMESS TERMINATED NORMALLY Wed Aug  9 20:02:15 2017
 DDI: 263640 bytes (0.3 MB / 0 MWords) used by master data server.

 ----------------------------------------
 CPU timing information for all processes
 ========================================
 0: 32.985 + 0.648 = 33.634
 ----------------------------------------
 ddikick.x: exited gracefully.
unset echo
----- accounting info -----
Files used on the master node compute-0-8.local were:
-rw-rw-r-- 1 sarom sarom 1.8K Aug  9 20:01 /scratch/pcm-rmp2-meoh.F05
-rw-rw-r-- 1 sarom sarom 9.3M Aug  9 20:02 /scratch/pcm-rmp2-meoh.F08
-rw-rw-r-- 1 sarom sarom 2.3M Aug  9 20:02 /scratch/pcm-rmp2-meoh.F10
-rw-rw-r-- 1 sarom sarom    8 Aug  9 20:02 /scratch/pcm-rmp2-meoh.F26
-rw-rw-r-- 1 sarom sarom    0 Aug  9 20:01 /scratch/pcm-rmp2-meoh.F27
rm: No match.
ls: No match.
ls: No match.
ls: No match.
Wed Aug  9 20:02:18 CDT 2017
0.251u 0.162s 0:37.13 1.1%	0+0k 8+360io 0pf+0w
/opt/gridengine/default/spool/compute-0-8/active_jobs/35745.1/pe_hostfile compute-0-8.local
