-catch_rsh /opt/gridengine/default/spool/compute-0-6/active_jobs/35726.1/pe_hostfile
compute-0-6
The primary node assigned by SGE to this run is compute-0-6
Warning: no access to tty (Bad file descriptor).
Thus no job control in this shell.
source /home/sarom/dir.git.branch.saromleang-travis-ci/install.info
setenv GMS_PATH /home/sarom/dir.git.branch.saromleang-travis-ci
setenv GMS_BUILD_DIR /home/sarom/dir.git.branch.saromleang-travis-ci
setenv GMS_TARGET linux64
setenv GMS_FORTRAN gfortran
setenv GMS_GFORTRAN_VERNO 4.4
setenv GMS_MATHLIB mkl-so
setenv GMS_MATHLIB none
setenv GMS_MATHLIB_PATH /share/apps/intel/compilers_and_libraries_2017.1.132/linux/mkl/lib/intel64
setenv GMS_MKL_VERNO 12
setenv GMS_DDI_COMM sockets
setenv GMS_LIBCCHEM false
setenv GMS_EIGEN_PATH
setenv GMS_PHI false
setenv GMS_SHMTYPE sysv
setenv GMS_OPENMP false
unset echo
pcm-acetate-c-d-r
/home/sarom/dir.git.branch.saromleang-travis-ci/tests/solvent/pcm/parallel
----- GAMESS execution script 'rungms' -----
This job is running on host compute-0-6.local
under operating system Linux at Wed Aug 9 19:57:41 CDT 2017
Available scratch disk space (Kbyte units) at beginning of the job is
Filesystem           1K-blocks      Used Available Use% Mounted on
/dev/sda1             16126920   3962040  11345680  26% /
GAMESS temporary binary files will be written to /scratch
GAMESS supplementary output files will be written to /home/sarom/restart
Copying input file pcm-acetate-c-d-r.inp to your run's scratch directory...
cp /home/sarom/dir.git.branch.saromleang-travis-ci/tests/solvent/pcm/parallel/pcm-acetate-c-d-r.inp /scratch/pcm-acetate-c-d-r.F05
unset echo
The generated host list is
compute-0-6.local
/home/sarom/dir.git.branch.saromleang-travis-ci/ddikick.x /home/sarom/dir.git.branch.saromleang-travis-ci/gamess.00.x pcm-acetate-c-d-r -ddi 1 1 compute-0-6.local -scr /scratch

 Distributed Data Interface kickoff program.
 Initiating 1 compute processes on 1 nodes to run the following command:
 /home/sarom/dir.git.branch.saromleang-travis-ci/gamess.00.x pcm-acetate-c-d-r 

          ******************************************************
          *         GAMESS VERSION = 20 APR 2017 (R1)          *
          *             FROM IOWA STATE UNIVERSITY             *
          * M.W.SCHMIDT, K.K.BALDRIDGE, J.A.BOATZ, S.T.ELBERT, *
          *   M.S.GORDON, J.H.JENSEN, S.KOSEKI, N.MATSUNAGA,   *
          *          K.A.NGUYEN, S.J.SU, T.L.WINDUS,           *
          *       TOGETHER WITH M.DUPUIS, J.A.MONTGOMERY       *
          *         J.COMPUT.CHEM.  14, 1347-1363(1993)        *
          **************** 64 BIT LINUX VERSION ****************

  SINCE 1993, STUDENTS AND POSTDOCS WORKING AT IOWA STATE UNIVERSITY
  AND ALSO IN THEIR VARIOUS JOBS AFTER LEAVING ISU HAVE MADE IMPORTANT
  CONTRIBUTIONS TO THE CODE:
     IVANA ADAMOVIC, CHRISTINE AIKENS, YURI ALEXEEV, POOJA ARORA,
     ANDREY ASADCHEV, ROB BELL, PRADIPTA BANDYOPADHYAY, JONATHAN BENTZ,
     BRETT BODE, KURT BRORSEN, CALEB CARLIN, GALINA CHABAN, WEI CHEN,
     CHEOL HO CHOI, PAUL DAY, ALBERT DEFUSCO, NUWAN DESILVA, TIM DUDLEY,
     DMITRI FEDOROV, GRAHAM FLETCHER, MARK FREITAG, KURT GLAESEMANN,
     DAN KEMP, GRANT MERRILL, NORIYUKI MINEZAWA, JONATHAN MULLIN,
     TAKESHI NAGATA, SEAN NEDD, HEATHER NETZLOFF, BOSILJKA NJEGIC, RYAN OLSON,
     MIKE PAK, SPENCER PRUITT, LUKE ROSKOP, JIM SHOEMAKER, LYUDMILA SLIPCHENKO,
     TONY SMITH, SAROM SOK LEANG, JIE SONG, TETSUYA TAKETSUGU, SIMON WEBB,
     PENG XU, SOOHAENG YOO, FEDERICO ZAHARIEV

  ADDITIONAL CODE HAS BEEN PROVIDED BY COLLABORATORS IN OTHER GROUPS:
     IOWA STATE UNIVERSITY:
          JOE IVANIC, AARON WEST, LAIMUTIS BYTAUTAS, KLAUS RUEDENBERG
     UNIVERSITY OF TOKYO: KIMIHIKO HIRAO, TAKAHITO NAKAJIMA,
          TAKAO TSUNEDA, MUNEAKI KAMIYA, SUSUMU YANAGISAWA,
          KIYOSHI YAGI, MAHITO CHIBA, SEIKEN TOKURA, NAOAKI KAWAKAMI
     UNIVERSITY OF AARHUS: FRANK JENSEN
     UNIVERSITY OF IOWA: VISVALDAS KAIRYS, HUI LI
     NATIONAL INST. OF STANDARDS AND TECHNOLOGY: WALT STEVENS, DAVID GARMER
     UNIVERSITY OF PISA: BENEDETTA MENNUCCI, JACOPO TOMASI
     UNIVERSITY OF MEMPHIS: HENRY KURTZ, PRAKASHAN KORAMBATH
     UNIVERSITY OF ALBERTA: TOBY ZENG, MARIUSZ KLOBUKOWSKI
     UNIVERSITY OF NEW ENGLAND: MARK SPACKMAN
     MIE UNIVERSITY: HIROAKI UMEDA
     NAT. INST. OF ADVANCED INDUSTRIAL SCIENCE AND TECHNOLOGY: KAZUO KITAURA
     MICHIGAN STATE UNIVERSITY:
          KAROL KOWALSKI, MARTA WLOCH, JEFFREY GOUR, JESSE LUTZ,
          WEI LI, PIOTR PIECUCH
     UNIVERSITY OF SILESIA: MONIKA MUSIAL, STANISLAW KUCHARSKI
     FACULTES UNIVERSITAIRES NOTRE-DAME DE LA PAIX:
          OLIVIER QUINET, BENOIT CHAMPAGNE
     UNIVERSITY OF CALIFORNIA - SANTA BARBARA: BERNARD KIRTMAN
     INSTITUTE FOR MOLECULAR SCIENCE:
          KAZUYA ISHIMURA, MICHIO KATOUDA, AND SHIGERU NAGASE
     UNIVERSITY OF NOTRE DAME: ANNA POMOGAEVA, DAN CHIPMAN
     KYUSHU UNIVERSITY:
          HARUYUKI NAKANO,
          FENG LONG GU, JACEK KORCHOWIEC, MARCIN MAKOWSKI, AND YURIKO AOKI,
          HIROTOSHI MORI AND EISAKU MIYOSHI
     PENNSYLVANIA STATE UNIVERSITY:
          TZVETELIN IORDANOV, CHET SWALINA, JONATHAN SKONE,
          SHARON HAMMES-SCHIFFER
     WASEDA UNIVERSITY:
          MASATO KOBAYASHI, TOMOKO AKAMA, TSUGUKI TOUMA,
          TAKESHI YOSHIKAWA, YASUHIRO IKABATA, JUNJI SEINO,
          YUYA NAKAJIMA, HIROMI NAKAI
     NANJING UNIVERSITY: SHUHUA LI
     UNIVERSITY OF NEBRASKA:
          PEIFENG SU, DEJUN SI, NANDUN THELLAMUREGE, YALI WANG, HUI LI
     UNIVERSITY OF ZURICH: ROBERTO PEVERATI, KIM BALDRIDGE
     N. COPERNICUS UNIVERSITY AND JACKSON STATE UNIVERSITY:
          MARIA BARYSZ
     UNIVERSITY OF COPENHAGEN: Jimmy Kromann, CASPER STEINMANN
     TOKYO INSTITUTE OF TECHNOLOGY: HIROYA NAKATA
     NAGOYA UNIVERSITY: YOSHIO NISHIMOTO, STEPHAN IRLE
     MOSCOW STATE UNIVERSITY: VLADIMIR MIRONOV

 EXECUTION OF GAMESS BEGUN Wed Aug  9 19:57:41 2017

            ECHO OF THE FIRST FEW INPUT CARDS -
 INPUT CARD>!  acetate ion...C-PCM, using FIXPVA                                            
 INPUT CARD>!  test of cavitation, dispersion, and repulsion energy/gradient                
 INPUT CARD>!                                                                               
 INPUT CARD>!    FINAL E= -225.6708523720, 10 iterations, RMS= 0.044540148                  
 INPUT CARD>!                                                                               
 INPUT CARD>!    FREE ENERGY IN SOLVENT       =     -141611.76 KCAL/MOL                     
 INPUT CARD>!    INTERNAL ENERGY IN SOLVENT   =     -141544.44 KCAL/MOL                     
 INPUT CARD>!    DELTA INTERNAL ENERGY        =            .00 KCAL/MOL                     
 INPUT CARD>!    ELECTROSTATIC INTERACTION    =         -67.33 KCAL/MOL                     
 INPUT CARD>!    PIEROTTI CAVITATION ENERGY   =           9.42 KCAL/MOL  <--check--         
 INPUT CARD>!    DISPERSION FREE ENERGY       =         -10.89 KCAL/MOL  <--check--         
 INPUT CARD>!    REPULSION FREE ENERGY        =           2.62 KCAL/MOL  <--check--         
 INPUT CARD>!    TOTAL INTERACTION            =         -66.18 KCAL/MOL                     
 INPUT CARD>!    TOTAL FREE ENERGY IN SOLVENT =     -141610.61 KCAL/MOL                     
 INPUT CARD>!                                                                               
 INPUT CARD>!    this run takes 4 seconds on 2.66 GHz Cloverton (8 Aug 2011)                
 INPUT CARD>!                                                                               
 INPUT CARD>!   ------------------------------------------------------------                
 INPUT CARD>!   if changed to a tight geometry optimization, the run will:                  
 INPUT CARD>!    F_NAL RHF E=   -225.6708523720, 10 iters, r.m.s. grad= 0.0445401           
 INPUT CARD>!    F_NAL RHF E=   -225.6882602727,  8 iters, r.m.s. grad= 0.0131363           
 INPUT CARD>!    F_NAL RHF E=   -225.6847216096,  8 iters, r.m.s. grad= 0.0170141           
 INPUT CARD>!    F_NAL RHF E=   -225.6904574034,  8 iters, r.m.s. grad= 0.0074185           
 INPUT CARD>!    F_NAL RHF E=   -225.6910029038,  8 iters, r.m.s. grad= 0.0046284           
 INPUT CARD>!    F_NAL RHF E=   -225.6911583090,  9 iters, r.m.s. grad= 0.0064154           
 INPUT CARD>!    F_NAL RHF E=   -225.6916771224,  8 iters, r.m.s. grad= 0.0029682           
 INPUT CARD>!    F_NAL RHF E=   -225.6916977182,  8 iters, r.m.s. grad= 0.0031464           
 INPUT CARD>!    F_NAL RHF E=   -225.6918876926,  8 iters, r.m.s. grad= 0.0016114           
 INPUT CARD>!    F_NAL RHF E=   -225.6919067347,  7 iters, r.m.s. grad= 0.0012111           
 INPUT CARD>!    F_NAL RHF E=   -225.6919143718,  7 iters, r.m.s. grad= 0.0006368           
 INPUT CARD>!    F_NAL RHF E=   -225.6919158201,  8 iters, r.m.s. grad= 0.0006011           
 INPUT CARD>!    F_NAL RHF E=   -225.6919210291,  8 iters, r.m.s. grad= 0.0003846           
 INPUT CARD>!    F_NAL RHF E=   -225.6919232458,  7 iters, r.m.s. grad= 0.0002971           
 INPUT CARD>!    F_NAL RHF E=   -225.6919256713,  6 iters, r.m.s. grad= 0.0001414           
 INPUT CARD>!    F_NAL RHF E=   -225.6919260649,  5 iters, r.m.s. grad= 0.0001035           
 INPUT CARD>!    F_NAL RHF E=   -225.6919264155,  5 iters, r.m.s. grad= 0.0000201           
 INPUT CARD>!    F_NAL RHF E=   -225.6919264214,  4 iters, r.m.s. grad= 0.0000100           
 INPUT CARD>!    F_NAL RHF E=   -225.6919264243,  3 iters, r.m.s. grad= 0.0000049           
 INPUT CARD>!    F_NAL RHF E=   -225.6919264247,  3 iters, r.m.s. grad= 0.0000018           
 INPUT CARD>!                                                                               
 INPUT CARD> $CONTRL SCFTYP=RHF RUNTYP=GRADIENT ICHARG=-1 $END                              
 INPUT CARD> $system mwords=1 $end                                                          
 INPUT CARD>                                                                                
 INPUT CARD> $PCM    SOLVNT=WATER ICAV=1 IDISP=1 $END                                       
 INPUT CARD> $DISREP ICLAV=1 $END                                                           
 INPUT CARD> $PCMCAV RADII=SUAHF $END                                                       
 INPUT CARD> $TESCAV NTSALL=240 $END                                                        
 INPUT CARD>                                                                                
 INPUT CARD> $BASIS  GBASIS=MINI $END                                                       
 INPUT CARD> $SCF    DIIS=.T. DIRSCF=.T. FDIFF=.F. $END                                     
    1000000 WORDS OF MEMORY AVAILABLE

     BASIS OPTIONS
     -------------
     GBASIS=MINI         IGAUSS=       0      POLAR=NONE    
     NDFUNC=       0     NFFUNC=       0     DIFFSP=       F
     NPFUNC=       0      DIFFS=       F     BASNAM=        


     RUN TITLE
     ---------
 Acetate, Homogenous-CPCM with Cav + Dis + Rep energy/gradients                  

 THE POINT GROUP OF THE MOLECULE IS C1      
 THE ORDER OF THE PRINCIPAL AXIS IS     0

 ATOM      ATOMIC                      COORDINATES (BOHR)
           CHARGE         X                   Y                   Z
 H           1.0    -0.3585273624        0.1172506153        0.0652299836
 C           6.0    -0.0467977006       -0.0604462902        2.0887406187
 H           1.0     1.9662360313       -0.1905965837        2.4523415870
 H           1.0    -0.7800030373        1.6493947073        2.9630350877
 C           6.0    -1.4872256894       -2.3652606283        3.0992276219
 O           8.0    -0.2551878997       -4.0151452602        4.2160136280
 O           8.0    -3.8006036799       -2.3766267906        2.7068705037

          INTERNUCLEAR DISTANCES (ANGS.)
          ------------------------------

                1 H          2 C          3 H          4 H          5 C     

   1 H       0.0000000    1.0875007 *  1.7707758 *  1.7488793 *  2.1587555 *
   2 C       1.0875007 *  0.0000000    1.0846778 *  1.0877826 *  1.5344394 *
   3 H       1.7707758 *  1.0846778 *  0.0000000    1.7700330 *  2.1865988 *
   4 H       1.7488793 *  1.0877826 *  1.7700330 *  0.0000000    2.1583796 *
   5 C       2.1587555 *  1.5344394 *  2.1865988 *  2.1583796 *  0.0000000  
   6 O       3.0999301    2.3788481 *  2.5197082 *  3.0825381    1.2395911 *
   7 O       2.6482971 *  2.3569388 *  3.2663550    2.6668905 *  1.2416838 *

                6 O          7 O     

   1 H       3.0999301    2.6482971 *
   2 C       2.3788481 *  2.3569388 *
   3 H       2.5197082 *  3.2663550  
   4 H       3.0825381    2.6668905 *
   5 C       1.2395911 *  1.2416838 *
   6 O       0.0000000    2.2157448 *
   7 O       2.2157448 *  0.0000000  

  * ... LESS THAN  3.000


     ATOMIC BASIS SET
     ----------------
 THE CONTRACTED PRIMITIVE FUNCTIONS HAVE BEEN UNNORMALIZED
 THE CONTRACTED BASIS FUNCTIONS ARE NOW NORMALIZED TO UNITY

  SHELL TYPE  PRIMITIVE        EXPONENT          CONTRACTION COEFFICIENT(S)

 H         

      1   S       1             7.0340625    0.070452003325
      1   S       2             1.0647563    0.407826019247
      1   S       3             0.2365594    0.647752030571

 C         

      2   S       4           153.1722600    0.070740101715
      2   S       5            23.0730300    0.395380409585
      2   S       6             4.9232900    0.663310716080

      3   S       7             6.6166118   -0.081380500552
      3   S       8             0.5258556    0.574853203898
      3   S       9             0.1699578    0.502412803407

      4   P      10             4.9129201    0.109930601675
      4   P      11             0.9976164    0.462712707051
      4   P      12             0.2326851    0.627513709563

 H         

      5   S      13             7.0340625    0.070452003325
      5   S      14             1.0647563    0.407826019247
      5   S      15             0.2365594    0.647752030571

 H         

      6   S      16             7.0340625    0.070452003325
      6   S      17             1.0647563    0.407826019247
      6   S      18             0.2365594    0.647752030571

 C         

      7   S      19           153.1722600    0.070740101715
      7   S      20            23.0730300    0.395380409585
      7   S      21             4.9232900    0.663310716080

      8   S      22             6.6166118   -0.081380500552
      8   S      23             0.5258556    0.574853203898
      8   S      24             0.1699578    0.502412803407

      9   P      25             4.9129201    0.109930601675
      9   P      26             0.9976164    0.462712707051
      9   P      27             0.2326851    0.627513709563

 O         

     10   S      28           281.8665800    0.069059895330
     10   S      29            42.4160000    0.393159473412
     10   S      30             9.0956200    0.665669054983

     11   S      31            11.7893262   -0.080819896351
     11   S      32             0.9128941    0.582089473721
     11   S      33             0.2866610    0.497159577555

     12   P      34             8.2741400    0.124270892747
     12   P      35             1.7154628    0.476593472182
     12   P      36             0.3830133    0.613044464218

 O         

     13   S      37           281.8665800    0.069059895330
     13   S      38            42.4160000    0.393159473412
     13   S      39             9.0956200    0.665669054983

     14   S      40            11.7893262   -0.080819896351
     14   S      41             0.9128941    0.582089473721
     14   S      42             0.2866610    0.497159577555

     15   P      43             8.2741400    0.124270892747
     15   P      44             1.7154628    0.476593472182
     15   P      45             0.3830133    0.613044464218

 TOTAL NUMBER OF BASIS SET SHELLS             =   15
 NUMBER OF CARTESIAN GAUSSIAN BASIS FUNCTIONS =   23
 NUMBER OF ELECTRONS                          =   32
 CHARGE OF MOLECULE                           =   -1
 SPIN MULTIPLICITY                            =    1
 NUMBER OF OCCUPIED ORBITALS (ALPHA)          =   16
 NUMBER OF OCCUPIED ORBITALS (BETA )          =   16
 TOTAL NUMBER OF ATOMS                        =    7
 THE NUCLEAR REPULSION ENERGY IS      113.0631940411

     $CONTRL OPTIONS
     ---------------
 SCFTYP=RHF          RUNTYP=GRADIENT     EXETYP=RUN     
 MPLEVL=       0     CITYP =NONE         CCTYP =NONE         VBTYP =NONE    
 DFTTYP=NONE         TDDFT =NONE    
 MULT  =       1     ICHARG=      -1     NZVAR =       0     COORD =UNIQUE  
 PP    =NONE         RELWFN=NONE         LOCAL =NONE         NUMGRD=       F
 ISPHER=      -1     NOSYM =       0     MAXIT =      30     UNITS =ANGS    
 PLTORB=       F     MOLPLT=       F     AIMPAC=       F     FRIEND=        
 NPRINT=       7     IREST =       0     GEOM  =INPUT   
 NORMF =       0     NORMP =       0     ITOL  =      20     ICUT  =       9
 INTTYP=BEST         GRDTYP=BEST         QMTTOL= 1.0E-06

     $SYSTEM OPTIONS
     ---------------
  REPLICATED MEMORY=     1000000 WORDS (ON EVERY NODE).
 DISTRIBUTED MEMDDI=           0 MILLION WORDS IN AGGREGATE,
 MEMDDI DISTRIBUTED OVER   1 PROCESSORS IS           0 WORDS/PROCESSOR.
 TOTAL MEMORY REQUESTED ON EACH PROCESSOR=     1000000 WORDS.
 TIMLIM=      525600.00 MINUTES, OR     365.0 DAYS.
 PARALL= F  BALTYP=  DLB     KDIAG=    0  COREFL= F
 MXSEQ2=     300 MXSEQ3=     150  mem10=         0

 ** LOOKING UP INTERNALLY STORED DATA FOR SOLVENT=WATER    **
 OPTICAL AND PHYSICAL CONSTANTS:
 EPS= 78.390; EPSINF=  1.776; RSOLV=  1.385 A; VMOL=  18.070 ML/MOL;
 TCE= .25700E-03 1/K; STEN= 71.810 DYN/CM;  DSTEN=  0.6500; CMF=  1.2770


     -----------------------------------
     INPUT FOR PCM SOLVATION CALCULATION 
     -----------------------------------
     IEF   =     -10
     ICOMP =       0     IFIELD=       0     ICAV  =       1
     IDISP =       1     IREP  =       0     IDP   =       0

     SOLVNT=WATER        EPS   = 78.3900     EPSINF=  1.7760
     VMOL  = 18.0700     TCE   =  0.00025700 STEN  = 71.8100
     DSTEN =  0.6500     CMF   =  1.2770     RSOLV =  1.3850

     NESFP =       0
     OMEGA = 40.0000     RET   =100.0000     FRO   =  0.7000

     TABS  =298.0000     IPRINT=       0

     --------------------------------
     INPUT FOR ITERATIVE C-PCM METHOD 
     --------------------------------
     IPCMIT  =         1     MXDIIS  =        50
     MXITR1  =        50     MXITR2  =        50
     THRES   = 0.100E-09     IMUL    =         3
     RCUT(1) =   15.0000     RCUT(2) =   30.0000

     IDIRCT  =         1
     IMGABI  =         0     RABI    =    4.0000
     IMGASC  =         0     RASC    =   20.0000
     THRSLS  = 0.500E-03     DENSLS  =    0.0100
     IEFPOL  =         1     REFPOL  =    0.0000

     INPUT FOR ISOTROPIC DIELECTRICS
     -------------------------------
     EPS=    78.39

     INPUT FOR CAVITY DEFINITION 
     ---------------------------
   ATOM               COORDINATES                RADIUS       EPS
      1     -0.1897      0.0620      0.0345      0.0100     78.3900
      2     -0.0248     -0.0320      1.1053      1.7700     78.3900
      3      1.0405     -0.1009      1.2977      0.0100     78.3900
      4     -0.4128      0.8728      1.5680      0.0100     78.3900
      5     -0.7870     -1.2516      1.6400      1.7700     78.3900
      6     -0.1350     -2.1247      2.2310      1.5900     78.3900
      7     -2.0112     -1.2577      1.4324      1.5900     78.3900

     ----------------------------
     INPUT FOR TESSERA DEFINITION
     ----------------------------
     NTSALL  =       240     MTHALL  =         4
     MTHAUT  =         0     AUTFRE  =    2.0000
     NTSFRZ  =        60     KEEPSM  =         0
     AREAKP  =   10.0000     BONDRY  =    1.0000
     AREATL  =    0.0100

     SPHERE     INITS       METHOD
          1       240       FIXPVA
          2       240       FIXPVA
          3       240       FIXPVA
          4       240       FIXPVA
          5       240       FIXPVA
          6       240       FIXPVA
          7       240       FIXPVA

     ------------------------------
      FIXPVA TESSELLATION FOR PCM
         PEIFENG SU AND HUI LI
     UNIVERSITY OF NEBRASKA-LINCOLN
     ------------------------------


     -----------------------------
     INPUT FOR PCM GRADIENT METHOD
     -----------------------------
     IPCDER  =         3     IFAST   =         0
     FIXPVA GRADIENTS BY PEIFENG SU AND HUI LI
  

 PCM DIMENSIONS: MXSP=  2000, MXTS=      1680, MEMORY=         64963

          ----------------
          PROPERTIES INPUT
          ----------------

     MOMENTS            FIELD           POTENTIAL          DENSITY
 IEMOM =       1   IEFLD =       0   IEPOT =       0   IEDEN =       0
 WHERE =COMASS     WHERE =NUCLEI     WHERE =NUCLEI     WHERE =NUCLEI  
 OUTPUT=BOTH       OUTPUT=BOTH       OUTPUT=BOTH       OUTPUT=BOTH    
 IEMINT=       0   IEFINT=       0                     IEDINT=       0
                                                       MORB  =       0
          EXTRAPOLATION IN EFFECT
          DIIS IN EFFECT
 ORBITAL PRINTING OPTION: NPREO=     1    23     2     1

     -------------------------------
     INTEGRAL TRANSFORMATION OPTIONS
     -------------------------------
     NWORD  =            0
     CUTOFF = 1.0E-09     MPTRAN =       0
     DIRTRF =       T     AOINTS =DUP     

          ----------------------
          INTEGRAL INPUT OPTIONS
          ----------------------
 NOPK  =       1 NORDER=       0 SCHWRZ=       T

     ------------------------------------------
     THE POINT GROUP IS C1 , NAXIS= 1, ORDER= 1
     ------------------------------------------

     DIMENSIONS OF THE SYMMETRY SUBSPACES ARE
 A   =   23

 ..... DONE SETTING UP THE RUN .....
 STEP CPU TIME =     0.02 TOTAL CPU TIME =        0.0 (    0.0 MIN)
 TOTAL WALL CLOCK TIME=        0.0 SECONDS, CPU UTILIZATION IS 100.00%

                    --------------------------------
                    SINGLE POINT ENERGY AND GRADIENT
                    --------------------------------

          ********************
          1 ELECTRON INTEGRALS
          ********************
 ...... END OF ONE-ELECTRON INTEGRALS ......
 STEP CPU TIME =     0.00 TOTAL CPU TIME =        0.0 (    0.0 MIN)
 TOTAL WALL CLOCK TIME=        0.0 SECONDS, CPU UTILIZATION IS 100.00%

          -------------
          GUESS OPTIONS
          -------------
          GUESS =HUCKEL            NORB  =       0          NORDER=       0
          MIX   =       F          PRTMO =       F          PUNMO =       F
          TOLZ  = 1.0E-08          TOLE  = 1.0E-05
          SYMDEN=       F          PURIFY=       F

 INITIAL GUESS ORBITALS GENERATED BY HUCKEL   ROUTINE.
 HUCKEL GUESS REQUIRES     10848 WORDS.

 SYMMETRIES FOR INITIAL GUESS ORBITALS FOLLOW.   BOTH SET(S).
    16 ORBITALS ARE OCCUPIED (    4 CORE ORBITALS).
     5=A        6=A        7=A        8=A        9=A       10=A       11=A   
    12=A       13=A       14=A       15=A       16=A       17=A       18=A   
    19=A       20=A       21=A       22=A       23=A   
 ...... END OF INITIAL ORBITAL SELECTION ......
 STEP CPU TIME =     0.00 TOTAL CPU TIME =        0.0 (    0.0 MIN)
 TOTAL WALL CLOCK TIME=        0.0 SECONDS, CPU UTILIZATION IS 100.00%

                    ----------------------
                    AO INTEGRAL TECHNOLOGY
                    ----------------------
     S,P,L SHELL ROTATED AXIS INTEGRALS, REPROGRAMMED BY
        KAZUYA ISHIMURA (IMS) AND JOSE SIERRA (SYNSTAR).
     S,P,D,L SHELL ROTATED AXIS INTEGRALS PROGRAMMED BY
        KAZUYA ISHIMURA (INSTITUTE FOR MOLECULAR SCIENCE).
     S,P,D,F,G SHELL TO TOTAL QUARTET ANGULAR MOMENTUM SUM 5,
        ERIC PROGRAM BY GRAHAM FLETCHER (ELORET AND NASA ADVANCED
        SUPERCOMPUTING DIVISION, AMES RESEARCH CENTER).
     S,P,D,F,G,L SHELL GENERAL RYS QUADRATURE PROGRAMMED BY
        MICHEL DUPUIS (PACIFIC NORTHWEST NATIONAL LABORATORY).

          --------------------
          2 ELECTRON INTEGRALS
          --------------------

 DIRECT SCF METHOD SKIPS INTEGRAL STORAGE ON DISK.
 DIRECT TRANSFORMATION SKIPS AO INTEGRAL STORAGE ON DISK.
  ...... END OF TWO-ELECTRON INTEGRALS .....
 STEP CPU TIME =     0.01 TOTAL CPU TIME =        0.0 (    0.0 MIN)
 TOTAL WALL CLOCK TIME=        0.0 SECONDS, CPU UTILIZATION IS  75.00%
  
 DONE CAVITATION ENERGY
 STEP CPU TIME =     0.01 TOTAL CPU TIME =        0.0 (    0.0 MIN)
 TOTAL WALL CLOCK TIME=        0.0 SECONDS, CPU UTILIZATION IS 100.00%
  
 DONE DISPERSION-REPULSION ENERGY
 STEP CPU TIME =     0.00 TOTAL CPU TIME =        0.0 (    0.0 MIN)
 TOTAL WALL CLOCK TIME=        0.0 SECONDS, CPU UTILIZATION IS  80.00%

          -------------------------------------
          ---- POLARISABLE CONTINUUM MODEL ----
          ----      UNIVERSITY OF PISA     ----
          -------------------------------------

     ----------------------------
     INPUT FOR TESSERA DEFINITION
     ----------------------------
     NTSALL  =       240     MTHALL  =         4
     MTHAUT  =         0     AUTFRE  =    2.0000
     NTSFRZ  =        60     KEEPSM  =         0
     AREAKP  =   10.0000     BONDRY  =    1.0000
     AREATL  =    0.0100

     SPHERE     INITS       METHOD
          1       240       FIXPVA
          2       240       FIXPVA
          3       240       FIXPVA
          4       240       FIXPVA
          5       240       FIXPVA
          6       240       FIXPVA
          7       240       FIXPVA

     ------------------------------
      FIXPVA TESSELLATION FOR PCM
         PEIFENG SU AND HUI LI
     UNIVERSITY OF NEBRASKA-LINCOLN
     ------------------------------


     INPUT FOR CAVITY DEFINITION 
     ---------------------------
   ATOM               COORDINATES                RADIUS       EPS
      1     -0.1897      0.0620      0.0345      0.0100     78.3900
      2     -0.0248     -0.0320      1.1053      1.7700     78.3900
      3      1.0405     -0.1009      1.2977      0.0100     78.3900
      4     -0.4128      0.8728      1.5680      0.0100     78.3900
      5     -0.7870     -1.2516      1.6400      1.7700     78.3900
      6     -0.1350     -2.1247      2.2310      1.5900     78.3900
      7     -2.0112     -1.2577      1.4324      1.5900     78.3900

 MEMORY USED TO GENERATE CAVITY=    391282


 TOTAL NUMBER OF SPHERES=     7
 SPHERE           CENTER  (X,Y,Z) (A)               RADIUS (A)      AREA(A*A)
     1  -0.189724523   0.062046358   0.034518223   0.012000000   0.000000000
     2  -0.024764279  -0.031986802   1.105314015   2.124000000  34.803037740
     3   1.040487374  -0.100859376   1.297723375   0.012000000   0.000000000
     4  -0.412759862   0.872822154   1.567970757   0.012000000   0.000000000
     5  -0.787005999  -1.251642113   1.640040748   2.124000000   6.003781683
     6  -0.135039631  -2.124723524   2.231018494   1.908000000  22.767971193
     7  -2.011193001  -1.257656828   1.432414287   1.908000000  22.953178029

 TOTAL NUMBER OF TESSERAE=     461
 SURFACE AREA=    86.52796865(A**2)    CAVITY VOLUME=     73.45939479 (A**3)
 STEP CPU TIME =     0.01 TOTAL CPU TIME =        0.0 (    0.0 MIN)
 TOTAL WALL CLOCK TIME=        0.0 SECONDS, CPU UTILIZATION IS 100.00%

          THE SOLUTE IS ENCLOSED IN ONE CAVITY
 DONE CHECKING SEPARATION.
 STEP CPU TIME =     0.00 TOTAL CPU TIME =        0.0 (    0.0 MIN)
 TOTAL WALL CLOCK TIME=        0.0 SECONDS, CPU UTILIZATION IS 100.00%

 ..... DONE GENERATING CAVITY .....
 STEP CPU TIME =     0.00 TOTAL CPU TIME =        0.0 (    0.0 MIN)
 TOTAL WALL CLOCK TIME=        0.0 SECONDS, CPU UTILIZATION IS 100.00%
 NUCLEI-NUCLEAR CHARGE POLARIZATION ADJUSTMENT TO VNN=        0.0000000000

          --------------------------
                 RHF SCF CALCULATION
          --------------------------

     NUCLEAR ENERGY =       113.0631940411
     MAXIT =   30     NPUNCH=    2
     EXTRAP=T  DAMP=F  SHIFT=F  RSTRCT=F  DIIS=T  DEM=F  SOSCF=F
     DENSITY MATRIX CONV=  2.00E-05
     MEMORY REQUIRED FOR RHF ITERS=    154618 WORDS.

 DIRECT SCF CALCULATION, SCHWRZ=T   FDIFF=F,  DIRTHR=  0.00E+00 NITDIR=10
 SCHWARZ INEQUALITY OVERHEAD:       273 INTEGRALS, T=        0.00

                                                                                   NONZERO     BLOCKS
 ITER EX DEM     TOTAL ENERGY        E CHANGE  DENSITY CHANGE    DIIS ERROR      INTEGRALS    SKIPPED
   1  0  0     -225.3372855648  -225.3372855648   0.471988380   0.890312670          36580        490
          * * *   INITIATING DIIS PROCEDURE   * * *
   2  1  0     -225.6524588518    -0.3151732870   0.116952934   0.093529244          36579        495
   3  2  0     -225.6690974508    -0.0166385990   0.037264320   0.027718565          36583        492
   4  3  0     -225.6706388690    -0.0015414182   0.012047274   0.008179590          36582        493
   5  4  0     -225.6708401183    -0.0002012493   0.003197598   0.001552486          36582        493
   6  5  0     -225.6708513741    -0.0000112558   0.000992192   0.000522517          36582        493
   7  6  0     -225.6708523468    -0.0000009727   0.000123882   0.000093166          36582        493
   8  7  0     -225.6708523707    -0.0000000240   0.000031299   0.000019508          36582        493
   9  8  0     -225.6708523719    -0.0000000012   0.000003958   0.000003655          36582        493
  10  9  0     -225.6708523720    -0.0000000001   0.000000777   0.000000671          36582        493

          -----------------
          DENSITY CONVERGED
          -----------------
     TIME TO FORM FOCK OPERATORS=       1.4 SECONDS (       0.1 SEC/ITER)
     FOCK TIME ON FIRST ITERATION=       0.2, LAST ITERATION=       0.1
     TIME TO SOLVE SCF EQUATIONS=       0.0 SECONDS (       0.0 SEC/ITER)

 FINAL RHF ENERGY IS     -225.6708523720 AFTER  10 ITERATIONS
  
   PCM ASC=      0.9776779399
   GCAVP  =      0.0150092549
   GDISP  =     -0.0173562199
   GREP   =      0.0041807120

          ------------
          EIGENVECTORS
          ------------

                      1          2          3          4          5
                  -20.0681   -20.0621   -11.2133   -11.0909    -1.2845
                     A          A          A          A          A   
    1  H  1  S    0.000107   0.000053  -0.000539  -0.012975   0.010451
    2  C  2  S   -0.000006   0.000009  -0.008834   0.988087  -0.028168
    3  C  2  S   -0.000163  -0.000202  -0.010342   0.064087   0.077971
    4  C  2  X    0.001141  -0.000646   0.004084  -0.000107  -0.020532
    5  C  2  Y   -0.000294   0.000428   0.006740   0.000639  -0.031764
    6  C  2  Z    0.000346  -0.000359  -0.002970  -0.000340   0.013826
    7  H  3  S   -0.000368  -0.000055  -0.000341  -0.012872   0.010806
    8  H  4  S    0.000120   0.000080  -0.000551  -0.012976   0.010417
    9  C  5  S    0.000818   0.000835   0.989231   0.010583  -0.153290
   10  C  5  S   -0.014822  -0.015008   0.054508  -0.010096   0.356406
   11  C  5  X   -0.007791   0.014447   0.000367  -0.004170  -0.042669
   12  C  5  Y    0.010491   0.000254   0.000772  -0.006541  -0.069643
   13  C  5  Z   -0.007093   0.002351  -0.000346   0.002855   0.030914
   14  O  6  S    0.990213   0.007408   0.000695   0.000043  -0.135067
   15  O  6  S    0.049743  -0.000056  -0.010292  -0.000256   0.482158
   16  O  6  X   -0.005769  -0.001436   0.002339   0.000188  -0.067096
   17  O  6  Y    0.007705  -0.000690  -0.002765   0.000255   0.089711
   18  O  6  Z   -0.005218   0.000131   0.001917  -0.000110  -0.060706
   19  O  7  S   -0.007412   0.990217   0.000704   0.000061  -0.131885
   20  O  7  S   -0.000806   0.049658  -0.010331  -0.000338   0.470456
   21  O  7  X   -0.000082   0.010746  -0.004064   0.000110   0.123120
   22  O  7  Y   -0.001386   0.000024   0.000195   0.000138   0.000779
   23  O  7  Z    0.000746   0.001839  -0.000809  -0.000060   0.020827

                      6          7          8          9         10
                   -1.1572    -0.9279    -0.6248    -0.5531    -0.5379
                     A          A          A          A          A   
    1  H  1  S    0.003718   0.176540  -0.148987  -0.301128  -0.212616
    2  C  2  S   -0.001759  -0.201626   0.036610   0.000128  -0.002025
    3  C  2  S    0.003889   0.577396  -0.133449  -0.000349   0.006573
    4  C  2  X    0.001721  -0.006900  -0.204338  -0.074774   0.462028
    5  C  2  Y   -0.001746  -0.002896  -0.330035   0.234158  -0.202595
    6  C  2  Z    0.001250   0.000739   0.144967   0.426542   0.191886
    7  H  3  S   -0.004919   0.173690  -0.159734  -0.009984   0.395311
    8  H  4  S    0.003459   0.176781  -0.148617   0.311931  -0.193242
    9  C  5  S   -0.001728  -0.036310  -0.133624  -0.000112   0.000339
   10  C  5  S    0.005128   0.110638   0.405107   0.000227   0.000852
   11  C  5  X   -0.256461   0.108618   0.133366  -0.048345   0.127191
   12  C  5  Y    0.119691   0.165858   0.205897   0.148982  -0.041826
   13  C  5  Z   -0.109801  -0.071904  -0.089455   0.274674   0.045955
   14  O  6  S    0.156107   0.038914   0.068694   0.000113   0.036160
   15  O  6  S   -0.562860  -0.154589  -0.316084  -0.000647  -0.189832
   16  O  6  X    0.042906   0.028541  -0.012148  -0.032302   0.037416
   17  O  6  Y   -0.073791   0.021609   0.203986   0.096499   0.165533
   18  O  6  Z    0.047809  -0.006863  -0.113753   0.176752  -0.083738
   19  O  7  S   -0.157948   0.042137   0.069035   0.000249  -0.038983
   20  O  7  S    0.569192  -0.167746  -0.317658  -0.001350   0.205490
   21  O  7  X    0.098662   0.005865   0.206850  -0.030089  -0.155456
   22  O  7  Y    0.009555   0.032650   0.099670   0.097856  -0.089738
   23  O  7  Z    0.011806  -0.016825  -0.018845   0.181534   0.023371

                     11         12         13         14         15
                   -0.5193    -0.4428    -0.4363    -0.2770    -0.2666
                     A          A          A          A          A   
    1  H  1  S   -0.049957   0.246237  -0.117044   0.039552   0.058374
    2  C  2  S    0.001048  -0.000072  -0.000453   0.003797   0.046869
    3  C  2  S   -0.036218   0.000307   0.001444  -0.017681  -0.201127
    4  C  2  X   -0.107315   0.051312   0.213958  -0.021699   0.199802
    5  C  2  Y   -0.144508  -0.159546  -0.092740   0.041425   0.353253
    6  C  2  Z    0.062159  -0.292554   0.088988  -0.026440  -0.156622
    7  H  3  S   -0.060213   0.008040   0.216569  -0.056610   0.078187
    8  H  4  S   -0.049203  -0.254522  -0.105464   0.036634   0.058221
    9  C  5  S    0.068782  -0.000066  -0.001729  -0.001080  -0.009629
   10  C  5  S   -0.193153   0.000149   0.006572   0.003525   0.015181
   11  C  5  X    0.184561  -0.072634  -0.352466  -0.078801  -0.082290
   12  C  5  Y    0.303727   0.226205   0.158637   0.022797  -0.132508
   13  C  5  Z   -0.132388   0.412689  -0.149281  -0.026079   0.058576
   14  O  6  S   -0.071675  -0.000061  -0.056291  -0.006039   0.005003
   15  O  6  S    0.377564   0.000445   0.337498   0.045014  -0.038046
   16  O  6  X    0.441230  -0.062617   0.099833   0.718531   0.311789
   17  O  6  Y   -0.099608   0.196530  -0.415110   0.225493   0.477619
   18  O  6  Z    0.132243   0.360930   0.243192   0.000419  -0.207775
   19  O  7  S   -0.067517   0.000319   0.059190   0.007181   0.004789
   20  O  7  S    0.354084  -0.001790  -0.352069  -0.053016  -0.035141
   21  O  7  X   -0.313057  -0.057837   0.477136   0.204733   0.287679
   22  O  7  Y    0.266130   0.190800   0.141873  -0.562442   0.564673
   23  O  7  Z   -0.198251   0.348140   0.003240   0.343497  -0.260121

                     16         17         18         19         20
                   -0.2415     0.3706     0.6877     0.7241     0.7534
                     A          A          A          A          A   
    1  H  1  S   -0.001748   0.227609  -0.126988  -0.521696   0.860258
    2  C  2  S    0.000010  -0.000024   0.073264   0.003917  -0.000558
    3  C  2  S   -0.000035  -0.000085  -0.517194  -0.034287   0.003583
    4  C  2  X    0.001487  -0.014894   0.496769  -0.931834  -0.177156
    5  C  2  Y   -0.006742   0.044004   0.815237   0.382857   0.553768
    6  C  2  Z   -0.013642   0.082912  -0.360352  -0.374885   1.007047
    7  H  3  S    0.000372   0.007147  -0.130308   1.022090   0.027526
    8  H  4  S    0.001394  -0.234217  -0.125816  -0.469630  -0.895424
    9  C  5  S   -0.000002   0.000154  -0.150437   0.000504   0.000143
   10  C  5  S   -0.000002  -0.001107   1.132860  -0.012562  -0.001450
   11  C  5  X   -0.000375  -0.131702   0.404987  -0.215587   0.048935
   12  C  5  Y    0.001228   0.417059   0.609097   0.135327  -0.150660
   13  C  5  Z    0.002383   0.762234  -0.261688  -0.110130  -0.281324
   14  O  6  S   -0.000009  -0.000006   0.025848  -0.023585  -0.000155
   15  O  6  S    0.000027   0.000045  -0.155673   0.181774   0.001465
   16  O  6  X    0.105756   0.087779  -0.017186  -0.058537  -0.018230
   17  O  6  Y   -0.335481  -0.279589  -0.276618   0.177745   0.051610
   18  O  6  Z   -0.612623  -0.510402   0.147783  -0.107023   0.092555
   19  O  7  S    0.000013  -0.000003   0.023838   0.022968   0.000027
   20  O  7  S   -0.000051   0.000031  -0.140523  -0.168856   0.000116
   21  O  7  X   -0.107241   0.086752  -0.249525  -0.193522  -0.018540
   22  O  7  Y    0.341217  -0.275382  -0.154200  -0.095851   0.057753
   23  O  7  Z    0.622433  -0.502022   0.040624   0.017639   0.110078

                     21         22         23
                    0.8063     0.9380     1.1104
                     A          A          A   
    1  H  1  S   -0.775836  -0.089338  -0.146244
    2  C  2  S   -0.205524  -0.036290  -0.000187
    3  C  2  S    1.494171   0.359021   0.006682
    4  C  2  X    0.187679  -0.093024  -0.447973
    5  C  2  Y    0.372406  -0.113882   0.166313
    6  C  2  Z   -0.174153   0.048830  -0.168178
    7  H  3  S   -0.752502  -0.055694   0.300071
    8  H  4  S   -0.768887  -0.092293  -0.133206
    9  C  5  S    0.043609  -0.116591  -0.001187
   10  C  5  S   -0.297378   0.974840   0.010196
   11  C  5  X   -0.030476  -0.541677   1.131891
   12  C  5  Y   -0.052785  -0.780657  -0.555231
   13  C  5  Z    0.025036   0.333728   0.499311
   14  O  6  S   -0.013523   0.076396   0.078953
   15  O  6  S    0.086082  -0.584238  -0.681642
   16  O  6  X   -0.031397   0.537084   0.203662
   17  O  6  Y    0.093583  -0.301671  -0.516342
   18  O  6  Z   -0.057463   0.258157   0.318430
   19  O  7  S   -0.013416   0.080712  -0.074949
   20  O  7  S    0.086374  -0.618359   0.651027
   21  O  7  X    0.113205  -0.626475   0.600342
   22  O  7  Y    0.021177   0.209185   0.136375
   23  O  7  Z    0.006974  -0.222385   0.028423
 ...... END OF RHF CALCULATION ......
 STEP CPU TIME =     1.44 TOTAL CPU TIME =        1.5 (    0.0 MIN)
 TOTAL WALL CLOCK TIME=        1.5 SECONDS, CPU UTILIZATION IS  98.68%

     ----------------------------------------------------------------
     PROPERTY VALUES FOR THE RHF   SELF-CONSISTENT FIELD WAVEFUNCTION
     ----------------------------------------------------------------

          ---------------------------------------
          MULLIKEN AND LOWDIN POPULATION ANALYSES
          ---------------------------------------

     ATOMIC MULLIKEN POPULATION IN EACH MOLECULAR ORBITAL

                      1          2          3          4          5

                  2.000000   2.000000   2.000000   2.000000   2.000000

    1             0.000000   0.000000  -0.000004  -0.001830   0.001605
    2             0.000003   0.000002  -0.001519   2.007041   0.052141
    3            -0.000000  -0.000000  -0.000002  -0.001826   0.001667
    4             0.000000   0.000000  -0.000004  -0.001829   0.001595
    5            -0.003243  -0.003209   2.004476  -0.001557   0.612828
    6             2.003126   0.000113  -0.001473   0.000000   0.679477
    7             0.000114   2.003095  -0.001476  -0.000000   0.650687

                      6          7          8          9         10

                  2.000000   2.000000   2.000000   2.000000   2.000000

    1             0.000187   0.189857   0.076862   0.283079   0.137374
    2            -0.000515   1.043035   0.634507   0.806383   0.929654
    3             0.000318   0.184315   0.088267   0.000312   0.475720
    4             0.000161   0.190252   0.076510   0.303656   0.113443
    5             0.486252   0.289082   0.519074   0.357143   0.068267
    6             0.746320   0.048042   0.303772   0.121625   0.138497
    7             0.767277   0.055416   0.301007   0.127801   0.137044

                     11         12         13         14         15

                  2.000000   2.000000   2.000000   2.000000   2.000000

    1             0.007429   0.151718   0.033786   0.003105   0.006970
    2             0.110603   0.281929   0.147757   0.007019   0.398149
    3             0.011276   0.000163   0.116307   0.006330   0.011945
    4             0.007180   0.162012   0.027424   0.002664   0.006957
    5             0.413682   0.548693   0.273795   0.004832   0.043950
    6             0.751385   0.442770   0.685855   1.069817   0.672018
    7             0.698444   0.412715   0.715076   0.906233   0.860011

                     16

                  2.000000

    1            -0.000001
    2             0.000375
    3             0.000000
    4            -0.000001
    5             0.000010
    6             0.982991
    7             1.016627

               ----- POPULATIONS IN EACH AO -----
                             MULLIKEN      LOWDIN
              1  H  1  S      0.89014     0.92856
              2  C  2  S      1.98785     1.98597
              3  C  2  S      1.16738     1.00904
              4  C  2  X      1.07762     1.09112
              5  C  2  Y      1.09386     1.11979
              6  C  2  Z      1.08986     1.09859
              7  H  3  S      0.89479     0.93394
              8  H  4  S      0.89002     0.92835
              9  C  5  S      1.99064     1.98815
             10  C  5  S      0.98150     0.94842
             11  C  5  X      0.85177     0.92622
             12  C  5  Y      0.89437     0.93792
             13  C  5  Z      0.89579     0.91626
             14  O  6  S      1.99607     1.99626
             15  O  6  S      1.82295     1.71568
             16  O  6  X      1.75738     1.77100
             17  O  6  Y      1.55534     1.58309
             18  O  6  Z      1.51260     1.52415
             19  O  7  S      1.99609     1.99626
             20  O  7  S      1.82332     1.71701
             21  O  7  X      1.36580     1.41729
             22  O  7  Y      1.83387     1.83499
             23  O  7  Z      1.63099     1.63194

          ----- MULLIKEN ATOMIC OVERLAP POPULATIONS -----
          (OFF-DIAGONAL ELEMENTS NEED TO BE MULTIPLIED BY 2)

             1           2           3           4           5

    1    0.5426834
    2    0.3937887   5.0126802
    3   -0.0137040   0.3961112   0.5445413
    4   -0.0135620   0.3935889  -0.0136873   0.5426599
    5   -0.0181664   0.3360678  -0.0175333  -0.0181320   4.4989493
    6    0.0003095  -0.0573770  -0.0014490   0.0002792   0.4171773
    7   -0.0012120  -0.0582962   0.0005146  -0.0011248   0.4157138

             6           7

    6    8.3284415
    7   -0.0430445   8.3375196

          TOTAL MULLIKEN AND LOWDIN ATOMIC POPULATIONS
       ATOM         MULL.POP.    CHARGE          LOW.POP.     CHARGE
    1 H             0.890137    0.109863         0.928556    0.071444
    2 C             6.416563   -0.416563         6.304516   -0.304516
    3 H             0.894793    0.105207         0.933943    0.066057
    4 H             0.890022    0.109978         0.928353    0.071647
    5 C             5.614077    0.385923         5.716961    0.283039
    6 O             8.644337   -0.644337         8.590175   -0.590175
    7 O             8.650070   -0.650070         8.597497   -0.597497

          -------------------------------
          BOND ORDER AND VALENCE ANALYSIS     BOND ORDER THRESHOLD=0.050
          -------------------------------

                   BOND                       BOND                       BOND
  ATOM PAIR DIST  ORDER      ATOM PAIR DIST  ORDER      ATOM PAIR DIST  ORDER
    1   2  1.088  0.977        2   3  1.085  0.982        2   4  1.088  0.976
    2   5  1.534  0.924        5   6  1.240  1.513        5   7  1.242  1.506
    6   7  2.216  0.258

                       TOTAL       BONDED        FREE
      ATOM            VALENCE     VALENCE     VALENCE
    1 H                 0.988       0.988      -0.000
    2 C                 3.953       3.953      -0.000
    3 H                 0.989       0.989       0.000
    4 H                 0.988       0.988      -0.000
    5 C                 3.942       3.942       0.000
    6 O                 1.833       1.833       0.000
    7 O                 1.825       1.825       0.000

    **** A SOLVENT MODEL IS IN USE IN THIS RUN ****
 ELECTRICAL PROPERTIES (MOMENTS, DENSITY, FIELD/GRADIENT, AND/OR POTENTIAL)
 ARE COMPUTED USING THE SOLVATED SYSTEM'S DENSITY MATRIX, BUT
 ONLY WITH AO INTEGRAL CONTRIBUTIONS FROM THE QUANTUM SOLUTE.
 THE ONE EXCEPTION IS THE DIPOLE, WHICH IS ALSO PRINTED FOR THE TOTAL SYSTEM.

          ----------------------------
          SOLUTE ELECTROSTATIC MOMENTS
          ----------------------------

 POINT   1           X           Y           Z (BOHR)    CHARGE
                -1.397077   -2.198757    3.024912       -1.00 (A.U.)
         DX          DY          DZ         /D/  (DEBYE)
     1.916412    3.081929   -1.350724    3.872386

          ----------------------------
          SYSTEM ELECTROSTATIC MOMENTS
          ----------------------------

 POINT   1           X           Y           Z (BOHR)    CHARGE
                -1.397077   -2.198757    3.024912       -1.00 (A.U.)
         DX          DY          DZ         /D/  (DEBYE)
     1.916412    3.081929   -1.350724    3.872386
 INCLUDING PCM SURFACE CHARGES, TOTAL CHARGE=   -0.022322, AND TOTAL DIPOLE IS
         DX          DY          DZ         /D/  (DEBYE)
    -0.004138   -0.003260    0.007672    0.009306
 ...... END OF PROPERTY EVALUATION ......
 STEP CPU TIME =     0.01 TOTAL CPU TIME =        1.5 (    0.0 MIN)
 TOTAL WALL CLOCK TIME=        1.5 SECONDS, CPU UTILIZATION IS  99.34%

 .... DONE WITH PCM CONTRIBUTION TO GRADIENT ....
 STEP CPU TIME =     0.13 TOTAL CPU TIME =        1.6 (    0.0 MIN)
 TOTAL WALL CLOCK TIME=        1.6 SECONDS, CPU UTILIZATION IS  99.39%

 BEGINNING ONE ELECTRON GRADIENT...
 ..... END OF 1-ELECTRON GRADIENT ......
 STEP CPU TIME =     0.00 TOTAL CPU TIME =        1.6 (    0.0 MIN)
 TOTAL WALL CLOCK TIME=        1.7 SECONDS, CPU UTILIZATION IS  98.79%

          ----------------------
          GRADIENT OF THE ENERGY
          ----------------------
 THE COARSE/FINE SCHWARZ SCREENINGS SKIPPED          572/         167 BLOCKS.
 THE NUMBER OF GRADIENT INTEGRAL BLOCKS COMPUTED WAS      6434
 ...... END OF 2-ELECTRON GRADIENT ......
 STEP CPU TIME =     0.03 TOTAL CPU TIME =        1.7 (    0.0 MIN)
 TOTAL WALL CLOCK TIME=        1.7 SECONDS, CPU UTILIZATION IS  98.81%

                         ----------------------
                         GRADIENT OF THE ENERGY
                         ----------------------

 UNITS ARE HARTREE/BOHR    E'X               E'Y               E'Z 
    1 H               -0.002299079      -0.001274984      -0.000098410
    2 C               -0.020904555      -0.039110362       0.017947449
    3 H               -0.000570385      -0.001489602       0.000913686
    4 H               -0.002648802      -0.000742986       0.000222122
    5 C               -0.027961163      -0.046082267       0.019683150
    6 O               -0.076172326       0.092251568      -0.063736129
    7 O                0.130556311      -0.003551366       0.025068132

                   MAXIMUM GRADIENT =    0.130556311
                       RMS GRADIENT =    0.044540148
  $VIB   
          IVIB=   0 IATOM=   0 ICOORD=   0 E=     -225.6708523720
 -2.299078592E-03-1.274984337E-03-9.841002212E-05-2.090455525E-02-3.911036237E-02
  1.794744889E-02-5.703847696E-04-1.489602382E-03 9.136857945E-04-2.648802370E-03
 -7.429861804E-04 2.221220083E-04-2.796116348E-02-4.608226677E-02 1.968315049E-02
 -7.617232625E-02 9.225156807E-02-6.373612943E-02 1.305563107E-01-3.551366035E-03
  2.506813227E-02
  1.916411575E+00 3.081929122E+00-1.350723708E+00

..... END OF SINGLE POINT GRADIENT .....
 STEP CPU TIME =     0.00 TOTAL CPU TIME =        1.7 (    0.0 MIN)
 TOTAL WALL CLOCK TIME=        1.7 SECONDS, CPU UTILIZATION IS  98.81%

     INPUT FOR CAVITY DEFINITION 
     ---------------------------
   ATOM               COORDINATES                RADIUS       EPS
      1     -0.1897      0.0620      0.0345      0.0100     78.3900
      2     -0.0248     -0.0320      1.1053      1.7700     78.3900
      3      1.0405     -0.1009      1.2977      0.0100     78.3900
      4     -0.4128      0.8728      1.5680      0.0100     78.3900
      5     -0.7870     -1.2516      1.6400      1.7700     78.3900
      6     -0.1350     -2.1247      2.2310      1.5900     78.3900
      7     -2.0112     -1.2577      1.4324      1.5900     78.3900

 CREATION OF A NEW CAVITY WITH THE ORIGINAL SPHERE
 SIZES FOR THE COMPUTATION OF THE CAVITATION ENERGY.

     INPUT FOR CAVITY DEFINITION 
     ---------------------------
   ATOM               COORDINATES                RADIUS       EPS
      1     -0.1897      0.0620      0.0345      0.0100     78.3900
      2     -0.0248     -0.0320      1.1053      1.7700     78.3900
      3      1.0405     -0.1009      1.2977      0.0100     78.3900
      4     -0.4128      0.8728      1.5680      0.0100     78.3900
      5     -0.7870     -1.2516      1.6400      1.7700     78.3900
      6     -0.1350     -2.1247      2.2310      1.5900     78.3900
      7     -2.0112     -1.2577      1.4324      1.5900     78.3900

 MEMORY USED TO GENERATE CAVITY=    391282


 TOTAL NUMBER OF SPHERES=     7
 SPHERE           CENTER  (X,Y,Z) (A)               RADIUS (A)      AREA(A*A)
     1  -0.189724523   0.062046358   0.034518223   0.010000000   0.000000000
     2  -0.024764279  -0.031986802   1.105314015   1.770000000  27.318378191
     3   1.040487374  -0.100859376   1.297723375   0.010000000   0.000000000
     4  -0.412759862   0.872822154   1.567970757   0.010000000   0.000000000
     5  -0.787005999  -1.251642113   1.640040748   1.770000000   8.788161614
     6  -0.135039631  -2.124723524   2.231018494   1.590000000  19.384112516
     7  -2.011193001  -1.257656828   1.432414287   1.590000000  19.450703288

 TOTAL NUMBER OF TESSERAE=     595
 SURFACE AREA=    74.94135561(A**2)    CAVITY VOLUME=     52.46895621 (A**3)
 STEP CPU TIME =     0.01 TOTAL CPU TIME =        1.7 (    0.0 MIN)
 TOTAL WALL CLOCK TIME=        1.7 SECONDS, CPU UTILIZATION IS  99.40%

          THE SOLUTE IS ENCLOSED IN ONE CAVITY
 DONE CHECKING SEPARATION.
 STEP CPU TIME =     0.00 TOTAL CPU TIME =        1.7 (    0.0 MIN)
 TOTAL WALL CLOCK TIME=        1.7 SECONDS, CPU UTILIZATION IS  99.40%

  ************************************
         CAVITATION FREE ENERGY
  ************************************

 PIEROTTI (SINGLE SPHERE, RADIUS FROM TOTAL  VOLUME):    7.57843 KCAL/MOL
 CAVITATION ENERGY (ENTHALPY) =    1.23296 KCAL/MOL
 THERMAL EXPANSION COEF. =      0.000257
 NUMERAL DENSITY =              0.033330
 SOLVENT MOLECULE DIAMETER =    2.770000 ANG.
 CAVITY DIAMETER =              4.644810 ANG.

 PIEROTTI (SINGLE SPHERE, RADIUS FROM TOTAL SURFACE):    8.25532 KCAL/MOL
 CAVITATION ENERGY (ENTHALPY) =    1.34887 KCAL/MOL
 THERMAL EXPANSION COEF. =      0.000257
 NUMERAL DENSITY =              0.033330
 SOLVENT MOLECULE DIAMETER =    2.770000 ANG.
 CAVITY DIAMETER =              4.884114 ANG.

 CLAVERIE-PIEROTTI (SPHERE BY SPHERE, SURFACE):    9.41845  KCAL/MOL
 CAVITATION ENERGY (ENTHALPY) =    2.89182 KCAL/MOL
 THERMAL EXPANSION COEF. =      0.000257
 NUMERAL DENSITY =              0.033330
 SOLVENT MOLECULE DIAMETER =    2.770000 ANG.

 SINANOGLU (SINGLE SPHERE, RADIUS FROM TOTAL SURFACE):    8.43343 KCAL/MOL
 CAVITATION ENERGY (ENTHALPY) =     13.48456 KCAL/MOL
 MICROSCOPIC CAVITY FACTOR =    1.277000
 SURFACE TENSION =             71.810000
 SURFACE TENSION DERIVATIVE =   0.650000
 ABSOLUTE TEMPERATURE =       298.000000
 CAVITY DIAMETER =              4.884114 ANG.

     INPUT FOR CAVITY DEFINITION 
     ---------------------------
   ATOM               COORDINATES                RADIUS       EPS
      1     -0.1897      0.0620      0.0345      0.0100     78.3900
      2     -0.0248     -0.0320      1.1053      1.7700     78.3900
      3      1.0405     -0.1009      1.2977      0.0100     78.3900
      4     -0.4128      0.8728      1.5680      0.0100     78.3900
      5     -0.7870     -1.2516      1.6400      1.7700     78.3900
      6     -0.1350     -2.1247      2.2310      1.5900     78.3900
      7     -2.0112     -1.2577      1.4324      1.5900     78.3900

     INPUT FOR PCM DISP-REP CALCULATION 
     -----------------------------------
     ICLAV=   1     N  =   2     RHO=  0.0335  ILJ=   0

       ATOM      DK        RW 
 ------------------------------
 1)        SOLVENT
        1      1.000      1.200
        2      1.360      1.500
 ------------------------------
 2)        SOLUTE 
        1      1.000      1.200
        2      1.000      1.720
        3      1.000      1.200
        4      1.000      1.200
        5      1.000      1.720
        6      1.360      1.500
        7      1.360      1.500

DISPERSION-REPULSION FREE ENERGY:  ATOM-ATOM INTERACTION.


CAVITY REFERRED TO SOLVENT ATOM OF TYPE  1


     INPUT FOR CAVITY DEFINITION 
     ---------------------------
   ATOM               COORDINATES                RADIUS       EPS
      1     -0.1897      0.0620      0.0345      0.0100     78.3900
      2     -0.0248     -0.0320      1.1053      1.7700     78.3900
      3      1.0405     -0.1009      1.2977      0.0100     78.3900
      4     -0.4128      0.8728      1.5680      0.0100     78.3900
      5     -0.7870     -1.2516      1.6400      1.7700     78.3900
      6     -0.1350     -2.1247      2.2310      1.5900     78.3900
      7     -2.0112     -1.2577      1.4324      1.5900     78.3900

 MEMORY USED TO GENERATE CAVITY=    391282


 TOTAL NUMBER OF SPHERES=     7
 SPHERE           CENTER  (X,Y,Z) (A)               RADIUS (A)      AREA(A*A)
     1  -0.189724523   0.062046358   0.034518223   1.210000000   0.000000000
     2  -0.024764279  -0.031986802   1.105314015   2.970000000  62.657527443
     3   1.040487374  -0.100859376   1.297723375   1.210000000   0.000000000
     4  -0.412759862   0.872822154   1.567970757   1.210000000   0.000000000
     5  -0.787005999  -1.251642113   1.640040748   2.970000000  11.552501743
     6  -0.135039631  -2.124723524   2.231018494   2.790000000  48.177947385
     7  -2.011193001  -1.257656828   1.432414287   2.790000000  47.111403385

 TOTAL NUMBER OF TESSERAE=     428
 SURFACE AREA=   169.49937996(A**2)    CAVITY VOLUME=    195.66310235 (A**3)
 STEP CPU TIME =     0.00 TOTAL CPU TIME =        1.7 (    0.0 MIN)
 TOTAL WALL CLOCK TIME=        1.7 SECONDS, CPU UTILIZATION IS  99.40%

          THE SOLUTE IS ENCLOSED IN ONE CAVITY
 DONE CHECKING SEPARATION.
 STEP CPU TIME =     0.00 TOTAL CPU TIME =        1.7 (    0.0 MIN)
 TOTAL WALL CLOCK TIME=        1.7 SECONDS, CPU UTILIZATION IS  99.40%

CAVITY REFERRED TO SOLVENT ATOM OF TYPE  2


     INPUT FOR CAVITY DEFINITION 
     ---------------------------
   ATOM               COORDINATES                RADIUS       EPS
      1     -0.1897      0.0620      0.0345      0.0100     78.3900
      2     -0.0248     -0.0320      1.1053      1.7700     78.3900
      3      1.0405     -0.1009      1.2977      0.0100     78.3900
      4     -0.4128      0.8728      1.5680      0.0100     78.3900
      5     -0.7870     -1.2516      1.6400      1.7700     78.3900
      6     -0.1350     -2.1247      2.2310      1.5900     78.3900
      7     -2.0112     -1.2577      1.4324      1.5900     78.3900

 MEMORY USED TO GENERATE CAVITY=    391282


 TOTAL NUMBER OF SPHERES=     7
 SPHERE           CENTER  (X,Y,Z) (A)               RADIUS (A)      AREA(A*A)
     1  -0.189724523   0.062046358   0.034518223   1.510000000   0.000000000
     2  -0.024764279  -0.031986802   1.105314015   3.270000000  74.954259771
     3   1.040487374  -0.100859376   1.297723375   1.510000000   0.000000000
     4  -0.412759862   0.872822154   1.567970757   1.510000000   0.000000000
     5  -0.787005999  -1.251642113   1.640040748   3.270000000  13.244793016
     6  -0.135039631  -2.124723524   2.231018494   3.090000000  56.382454648
     7  -2.011193001  -1.257656828   1.432414287   3.090000000  56.224626022

 TOTAL NUMBER OF TESSERAE=     411
 SURFACE AREA=   200.80613346(A**2)    CAVITY VOLUME=    253.15342778 (A**3)
 STEP CPU TIME =     0.00 TOTAL CPU TIME =        1.7 (    0.0 MIN)
 TOTAL WALL CLOCK TIME=        1.7 SECONDS, CPU UTILIZATION IS  99.40%

          THE SOLUTE IS ENCLOSED IN ONE CAVITY
 DONE CHECKING SEPARATION.
 STEP CPU TIME =     0.00 TOTAL CPU TIME =        1.7 (    0.0 MIN)
 TOTAL WALL CLOCK TIME=        1.7 SECONDS, CPU UTILIZATION IS  99.40%


   GDISP =      -10.89119356   KCAL/MOL
   GREP  =        2.62343666   KCAL/MOL
 ..... DONE COMPUTING DISPERSION-REPULSION .....
 STEP CPU TIME =     0.00 TOTAL CPU TIME =        1.7 (    0.0 MIN)
 TOTAL WALL CLOCK TIME=        1.7 SECONDS, CPU UTILIZATION IS  98.82%

             ----------------------------------------------
             -------   RESULTS OF PCM CALCULATION   -------
             ----------------------------------------------

 FREE ENERGY IN SOLVENT = <PSI| H(0)+V/2 |PSI>       =     -225.6726861190 A.U.
 INTERNAL ENERGY IN SOLVENT = <PSI| H(0) |PSI>       =     -225.5653953617 A.U.
 DELTA INTERNAL ENERGY =  <D-PSI| H(0) |D-PSI>       =        0.0000000000 A.U.
 ELECTROSTATIC INTERACTION                           =       -0.1072907573 A.U.
 PIEROTTI CAVITATION ENERGY                          =        0.0150092549 A.U.
 DISPERSION FREE ENERGY                              =       -0.0173562199 A.U.
 REPULSION FREE ENERGY                               =        0.0041807120 A.U.
 TOTAL INTERACTION (DELTA + ES + CAV + DISP + REP)   =       -0.1054570103 A.U.
 TOTAL FREE ENERGY IN SOLVENT                        =     -225.6708523720 A.U.

 FREE ENERGY IN SOLVENT       =     -141611.76 KCAL/MOL
 INTERNAL ENERGY IN SOLVENT   =     -141544.44 KCAL/MOL
 DELTA INTERNAL ENERGY        =           0.00 KCAL/MOL
 ELECTROSTATIC INTERACTION    =         -67.33 KCAL/MOL
 PIEROTTI CAVITATION ENERGY   =           9.42 KCAL/MOL
 DISPERSION FREE ENERGY       =         -10.89 KCAL/MOL
 REPULSION FREE ENERGY        =           2.62 KCAL/MOL
 TOTAL INTERACTION            =         -66.18 KCAL/MOL
 TOTAL FREE ENERGY IN SOLVENT =     -141610.61 KCAL/MOL

 -INTERNAL ENERGY IN SOLVENT-
    OMITS ES,CAV,DISP,REP (USES SOLVATED ORBITALS IN THE GAS PHASE HAMILTONIAN)
 -FREE ENERGY IN SOLVENT-
    INCLUDES ES+DISP+REP WHICH ARE IN THE SELF-CONSISTENT WAVEFUNCTION.
 -TOTAL FREE ENERGY IN SOLVENT-
    INCLUDES ES+DISP+REP+CAV, MEANING CAVITATION IS NOT IN THE SCF ENERGY.

 .... DONE PRINTING PCM SOLVENT SUMMARY ....
 STEP CPU TIME =     0.00 TOTAL CPU TIME =        1.7 (    0.0 MIN)
 TOTAL WALL CLOCK TIME=        1.7 SECONDS, CPU UTILIZATION IS  98.82%
               825121  WORDS OF DYNAMIC MEMORY USED
 EXECUTION OF GAMESS TERMINATED NORMALLY Wed Aug  9 19:57:43 2017
 DDI: 263640 bytes (0.3 MB / 0 MWords) used by master data server.

 ----------------------------------------
 CPU timing information for all processes
 ========================================
 0: 1.668 + 0.16 = 1.685
 ----------------------------------------
 ddikick.x: exited gracefully.
unset echo
----- accounting info -----
Files used on the master node compute-0-6.local were:
-rw-rw-r-- 1 sarom sarom 3.1K Aug  9 19:57 /scratch/pcm-acetate-c-d-r.F05
-rw-rw-r-- 1 sarom sarom 2.6M Aug  9 19:57 /scratch/pcm-acetate-c-d-r.F10
-rw-rw-r-- 1 sarom sarom    8 Aug  9 19:57 /scratch/pcm-acetate-c-d-r.F26
-rw-rw-r-- 1 sarom sarom    0 Aug  9 19:57 /scratch/pcm-acetate-c-d-r.F27
rm: No match.
ls: No match.
ls: No match.
ls: No match.
Wed Aug  9 19:57:46 CDT 2017
0.242u 0.175s 0:05.18 7.9%	0+0k 8+360io 0pf+0w
/opt/gridengine/default/spool/compute-0-6/active_jobs/35726.1/pe_hostfile compute-0-6.local
