-catch_rsh /opt/gridengine/default/spool/compute-1-1/active_jobs/35733.1/pe_hostfile
compute-1-1
The primary node assigned by SGE to this run is compute-1-1
Warning: no access to tty (Bad file descriptor).
Thus no job control in this shell.
source /home/sarom/dir.git.branch.saromleang-travis-ci/install.info
setenv GMS_PATH /home/sarom/dir.git.branch.saromleang-travis-ci
setenv GMS_BUILD_DIR /home/sarom/dir.git.branch.saromleang-travis-ci
setenv GMS_TARGET linux64
setenv GMS_FORTRAN gfortran
setenv GMS_GFORTRAN_VERNO 4.4
setenv GMS_MATHLIB mkl-so
setenv GMS_MATHLIB none
setenv GMS_MATHLIB_PATH /share/apps/intel/compilers_and_libraries_2017.1.132/linux/mkl/lib/intel64
setenv GMS_MKL_VERNO 12
setenv GMS_DDI_COMM sockets
setenv GMS_LIBCCHEM false
setenv GMS_EIGEN_PATH
setenv GMS_PHI false
setenv GMS_SHMTYPE sysv
setenv GMS_OPENMP false
unset echo
pcm-efp-fragonly
/home/sarom/dir.git.branch.saromleang-travis-ci/tests/solvent/pcm/parallel
----- GAMESS execution script 'rungms' -----
This job is running on host compute-1-1.local
under operating system Linux at Wed Aug 9 19:59:26 CDT 2017
Available scratch disk space (Kbyte units) at beginning of the job is
Filesystem           1K-blocks      Used Available Use% Mounted on
/dev/sda1             16126920   9109384   6198336  60% /
GAMESS temporary binary files will be written to /scratch
GAMESS supplementary output files will be written to /home/sarom/restart
Copying input file pcm-efp-fragonly.inp to your run's scratch directory...
cp /home/sarom/dir.git.branch.saromleang-travis-ci/tests/solvent/pcm/parallel/pcm-efp-fragonly.inp /scratch/pcm-efp-fragonly.F05
unset echo
The generated host list is
compute-1-1.local
/home/sarom/dir.git.branch.saromleang-travis-ci/ddikick.x /home/sarom/dir.git.branch.saromleang-travis-ci/gamess.00.x pcm-efp-fragonly -ddi 1 1 compute-1-1.local -scr /scratch

 Distributed Data Interface kickoff program.
 Initiating 1 compute processes on 1 nodes to run the following command:
 /home/sarom/dir.git.branch.saromleang-travis-ci/gamess.00.x pcm-efp-fragonly 

          ******************************************************
          *         GAMESS VERSION = 20 APR 2017 (R1)          *
          *             FROM IOWA STATE UNIVERSITY             *
          * M.W.SCHMIDT, K.K.BALDRIDGE, J.A.BOATZ, S.T.ELBERT, *
          *   M.S.GORDON, J.H.JENSEN, S.KOSEKI, N.MATSUNAGA,   *
          *          K.A.NGUYEN, S.J.SU, T.L.WINDUS,           *
          *       TOGETHER WITH M.DUPUIS, J.A.MONTGOMERY       *
          *         J.COMPUT.CHEM.  14, 1347-1363(1993)        *
          **************** 64 BIT LINUX VERSION ****************

  SINCE 1993, STUDENTS AND POSTDOCS WORKING AT IOWA STATE UNIVERSITY
  AND ALSO IN THEIR VARIOUS JOBS AFTER LEAVING ISU HAVE MADE IMPORTANT
  CONTRIBUTIONS TO THE CODE:
     IVANA ADAMOVIC, CHRISTINE AIKENS, YURI ALEXEEV, POOJA ARORA,
     ANDREY ASADCHEV, ROB BELL, PRADIPTA BANDYOPADHYAY, JONATHAN BENTZ,
     BRETT BODE, KURT BRORSEN, CALEB CARLIN, GALINA CHABAN, WEI CHEN,
     CHEOL HO CHOI, PAUL DAY, ALBERT DEFUSCO, NUWAN DESILVA, TIM DUDLEY,
     DMITRI FEDOROV, GRAHAM FLETCHER, MARK FREITAG, KURT GLAESEMANN,
     DAN KEMP, GRANT MERRILL, NORIYUKI MINEZAWA, JONATHAN MULLIN,
     TAKESHI NAGATA, SEAN NEDD, HEATHER NETZLOFF, BOSILJKA NJEGIC, RYAN OLSON,
     MIKE PAK, SPENCER PRUITT, LUKE ROSKOP, JIM SHOEMAKER, LYUDMILA SLIPCHENKO,
     TONY SMITH, SAROM SOK LEANG, JIE SONG, TETSUYA TAKETSUGU, SIMON WEBB,
     PENG XU, SOOHAENG YOO, FEDERICO ZAHARIEV

  ADDITIONAL CODE HAS BEEN PROVIDED BY COLLABORATORS IN OTHER GROUPS:
     IOWA STATE UNIVERSITY:
          JOE IVANIC, AARON WEST, LAIMUTIS BYTAUTAS, KLAUS RUEDENBERG
     UNIVERSITY OF TOKYO: KIMIHIKO HIRAO, TAKAHITO NAKAJIMA,
          TAKAO TSUNEDA, MUNEAKI KAMIYA, SUSUMU YANAGISAWA,
          KIYOSHI YAGI, MAHITO CHIBA, SEIKEN TOKURA, NAOAKI KAWAKAMI
     UNIVERSITY OF AARHUS: FRANK JENSEN
     UNIVERSITY OF IOWA: VISVALDAS KAIRYS, HUI LI
     NATIONAL INST. OF STANDARDS AND TECHNOLOGY: WALT STEVENS, DAVID GARMER
     UNIVERSITY OF PISA: BENEDETTA MENNUCCI, JACOPO TOMASI
     UNIVERSITY OF MEMPHIS: HENRY KURTZ, PRAKASHAN KORAMBATH
     UNIVERSITY OF ALBERTA: TOBY ZENG, MARIUSZ KLOBUKOWSKI
     UNIVERSITY OF NEW ENGLAND: MARK SPACKMAN
     MIE UNIVERSITY: HIROAKI UMEDA
     NAT. INST. OF ADVANCED INDUSTRIAL SCIENCE AND TECHNOLOGY: KAZUO KITAURA
     MICHIGAN STATE UNIVERSITY:
          KAROL KOWALSKI, MARTA WLOCH, JEFFREY GOUR, JESSE LUTZ,
          WEI LI, PIOTR PIECUCH
     UNIVERSITY OF SILESIA: MONIKA MUSIAL, STANISLAW KUCHARSKI
     FACULTES UNIVERSITAIRES NOTRE-DAME DE LA PAIX:
          OLIVIER QUINET, BENOIT CHAMPAGNE
     UNIVERSITY OF CALIFORNIA - SANTA BARBARA: BERNARD KIRTMAN
     INSTITUTE FOR MOLECULAR SCIENCE:
          KAZUYA ISHIMURA, MICHIO KATOUDA, AND SHIGERU NAGASE
     UNIVERSITY OF NOTRE DAME: ANNA POMOGAEVA, DAN CHIPMAN
     KYUSHU UNIVERSITY:
          HARUYUKI NAKANO,
          FENG LONG GU, JACEK KORCHOWIEC, MARCIN MAKOWSKI, AND YURIKO AOKI,
          HIROTOSHI MORI AND EISAKU MIYOSHI
     PENNSYLVANIA STATE UNIVERSITY:
          TZVETELIN IORDANOV, CHET SWALINA, JONATHAN SKONE,
          SHARON HAMMES-SCHIFFER
     WASEDA UNIVERSITY:
          MASATO KOBAYASHI, TOMOKO AKAMA, TSUGUKI TOUMA,
          TAKESHI YOSHIKAWA, YASUHIRO IKABATA, JUNJI SEINO,
          YUYA NAKAJIMA, HIROMI NAKAI
     NANJING UNIVERSITY: SHUHUA LI
     UNIVERSITY OF NEBRASKA:
          PEIFENG SU, DEJUN SI, NANDUN THELLAMUREGE, YALI WANG, HUI LI
     UNIVERSITY OF ZURICH: ROBERTO PEVERATI, KIM BALDRIDGE
     N. COPERNICUS UNIVERSITY AND JACKSON STATE UNIVERSITY:
          MARIA BARYSZ
     UNIVERSITY OF COPENHAGEN: Jimmy Kromann, CASPER STEINMANN
     TOKYO INSTITUTE OF TECHNOLOGY: HIROYA NAKATA
     NAGOYA UNIVERSITY: YOSHIO NISHIMOTO, STEPHAN IRLE
     MOSCOW STATE UNIVERSITY: VLADIMIR MIRONOV

 EXECUTION OF GAMESS BEGUN Wed Aug  9 19:59:26 2017

            ECHO OF THE FIRST FEW INPUT CARDS -
 INPUT CARD>!    8 EFP1 (RHF-style) waters embedded in PCM water, no QM molecule            
 INPUT CARD>!                                                                               
 INPUT CARD>!    this test case came from Hui when EFP gradients were made more exact,      
 INPUT CARD>!    shortly after the FIXPVA changes made PCM more exact.                      
 INPUT CARD>!                                                                               
 INPUT CARD>!      NSERCH:   0  E=       -0.1258734675  R.M.S.=  0.0026132                  
 INPUT CARD>!      NSERCH:   1  E=       -0.1303830351  R.M.S.=  0.0019628                  
 INPUT CARD>!      NSERCH:   2  E=       -0.1345145091  R.M.S.=  0.0011755                  
 INPUT CARD>!      NSERCH:   3  E=       -0.1357567291  R.M.S.=  0.0019828                  
 INPUT CARD>!      NSERCH:   4  E=       -0.1352783911  R.M.S.=  0.0026416                  
 INPUT CARD>!      NSERCH:   5  E=       -0.1376058298  R.M.S.=  0.0009786                  
 INPUT CARD>!      NSERCH:   6  E=       -0.1361186467  R.M.S.=  0.0025855                  
 INPUT CARD>!      NSERCH:   7  E=       -0.1381149610  R.M.S.=  0.0010957                  
 INPUT CARD>!      NSERCH:   8  E=       -0.1373772559  R.M.S.=  0.0022000                  
 INPUT CARD>!      NSERCH:   9  E=       -0.1386688951  R.M.S.=  0.0006354                  
 INPUT CARD>!      NSERCH:  10  E=       -0.1376666615  R.M.S.=  0.0019592                  
 INPUT CARD>!              ...snipped...                                                    
 INPUT CARD>!      NSERCH:  20  E=       -0.1390927536  R.M.S.=  0.0005220                  
 INPUT CARD>!      NSERCH:  21  E=       -0.1392020667  R.M.S.=  0.0001310                  
 INPUT CARD>!      NSERCH:  22  E=       -0.1391556833  R.M.S.=  0.0003371                  
 INPUT CARD>!      NSERCH:  23  E=       -0.1392150786  R.M.S.=  0.0000785                  
 INPUT CARD>!      NSERCH:  24  E=       -0.1391927204  R.M.S.=  0.0002484                  
 INPUT CARD>!      NSERCH:  25  E=       -0.1392197580  R.M.S.=  0.0000749                  
 INPUT CARD>!      NSERCH:  26  E=       -0.1392072037  R.M.S.=  0.0001759                  
 INPUT CARD>!      NSERCH:  27  E=       -0.1392227615  R.M.S.=  0.0000443                  
 INPUT CARD>!      NSERCH:  28  E=       -0.1392171086  R.M.S.=  0.0001192                  
 INPUT CARD>!      NSERCH:  29  E=       -0.1392243760  R.M.S.=  0.0000154                  
 INPUT CARD>!      NSERCH:  30  E=       -0.1392246762  R.M.S.=  0.0000149                  
 INPUT CARD>!                                                                               
 INPUT CARD>!    This run takes 6 seconds on 2.66 GHz Cloverton ( 2 Oct 2015)               
 INPUT CARD>!                                                                               
 INPUT CARD>!   -------------------------------------------------------------------         
 INPUT CARD>!    some data from 2008 showed more monotonic approach to the                  
 INPUT CARD>!    same minimum.  Unclear what happened!  (change noticed in 2015)            
 INPUT CARD>!    This could be due to change in hessian guess, or in stepping,              
 INPUT CARD>!    as the very first gradient is clearly the same as in 2008.                 
 INPUT CARD>!    FINAL EFPPCM ENERGY   =   -.1258734675 RMS GRADIENT =  .0026132            
 INPUT CARD>!    FINAL EFPPCM ENERGY   =   -.1305449786 RMS GRADIENT =  .0018910            
 INPUT CARD>!    FINAL EFPPCM ENERGY   =   -.1344605011 RMS GRADIENT =  .0010762            
 INPUT CARD>!    FINAL EFPPCM ENERGY   =   -.1360956317 RMS GRADIENT =  .0013444            
 INPUT CARD>!    FINAL EFPPCM ENERGY   =   -.1369954217 RMS GRADIENT =  .0012671            
 INPUT CARD>!    FINAL EFPPCM ENERGY   =   -.1375151694 RMS GRADIENT =  .0013082            
 INPUT CARD>!    FINAL EFPPCM ENERGY   =   -.1382570837 RMS GRADIENT =  .0008956            
 INPUT CARD>!    FINAL EFPPCM ENERGY   =   -.1388046133 RMS GRADIENT =  .0007547            
 INPUT CARD>!    FINAL EFPPCM ENERGY   =   -.1390234209 RMS GRADIENT =  .0005301            
 INPUT CARD>!    FINAL EFPPCM ENERGY   =   -.1391341390 RMS GRADIENT =  .0004092            
 INPUT CARD>!    FINAL EFPPCM ENERGY   =   -.1391647866 RMS GRADIENT =  .0003348            
 INPUT CARD>!    FINAL EFPPCM ENERGY   =   -.1392001882 RMS GRADIENT =  .0001445            
 INPUT CARD>!    FINAL EFPPCM ENERGY   =   -.1392076822 RMS GRADIENT =  .0001269            
 INPUT CARD>!    FINAL EFPPCM ENERGY   =   -.1392189163 RMS GRADIENT =  .0000709            
    1000000 WORDS OF MEMORY AVAILABLE

     $CONTRL OPTIONS
     ---------------
 SCFTYP=RHF          RUNTYP=OPTIMIZE     EXETYP=RUN     
 MPLEVL=       0     CITYP =NONE         CCTYP =NONE         VBTYP =NONE    
 DFTTYP=NONE         TDDFT =NONE    
 MULT  =       1     ICHARG=       0     NZVAR =       0     COORD =FRAGONLY
 PP    =NONE         RELWFN=NONE         LOCAL =NONE         NUMGRD=       F
 ISPHER=      -1     NOSYM =       0     MAXIT =      30     UNITS =ANGS    
 PLTORB=       F     MOLPLT=       F     AIMPAC=       F     FRIEND=        
 NPRINT=       7     IREST =       0     GEOM  =INPUT   
 NORMF =       0     NORMP =       0     ITOL  =      20     ICUT  =       9
 INTTYP=BEST         GRDTYP=BEST         QMTTOL= 1.0E-06

     $SYSTEM OPTIONS
     ---------------
  REPLICATED MEMORY=     1000000 WORDS (ON EVERY NODE).
 DISTRIBUTED MEMDDI=           0 MILLION WORDS IN AGGREGATE,
 MEMDDI DISTRIBUTED OVER   1 PROCESSORS IS           0 WORDS/PROCESSOR.
 TOTAL MEMORY REQUESTED ON EACH PROCESSOR=     1000000 WORDS.
 TIMLIM=      525600.00 MINUTES, OR     365.0 DAYS.
 PARALL= F  BALTYP=  DLB     KDIAG=    0  COREFL= F
 MXSEQ2=     300 MXSEQ3=     150  mem10=         0

 READING $EFRAG GROUP
 COORD=CART      POSITION=OPTIMIZE  POLMETHD=FRGSCF   NBUFFMO=0
 READING COORDINATES OF FRAGMENT   1 NAMED   H2ORHF
 READING COORDINATES OF FRAGMENT   2 NAMED   H2ORHF
 READING COORDINATES OF FRAGMENT   3 NAMED   H2ORHF
 READING COORDINATES OF FRAGMENT   4 NAMED   H2ORHF
 READING COORDINATES OF FRAGMENT   5 NAMED   H2ORHF
 READING COORDINATES OF FRAGMENT   6 NAMED   H2ORHF
 READING COORDINATES OF FRAGMENT   7 NAMED   H2ORHF
 READING COORDINATES OF FRAGMENT   8 NAMED   H2ORHF
 FINISHED READING $EFRAG GROUP,   8 FRAGMENTS WILL BE USED.



     SUMMARY OF THE EFFECTIVE FRAGMENT POTENTIAL MODEL CHOSEN
     --------------------------------------------------------
 TOTAL NUMBER OF MULTIPOLE POINTS   =        64  (EFP1/EFP2 ELECTROSTATICS)
 TOTAL NUMBER OF POLARIZABLE POINTS =        40  (EFP1/EFP2 INDUCTION)
 TOTAL NUMBER OF L-J POINTS         =         0  (REPULSION AND DISPERSION)
 TOTAL NUMBER OF REPULSIVE POINTS   =        24  (EFP1 REPULSION/ETC.)

 THIS IS A -EFP1- TYPE RUN, WITH PAULI REPULSION, CHARGE TRANSFER, AND
 HIGHER ORDER EFFECTS COLLECTED IN A FITTED REPULSIVE POTENTIAL.

 OPTIONS FOR EFP SCREENING:
     ELECTROSTATIC EFP-EFP SCREENING CHOICE IS GAUSSIAN, FOR CHARGE/CHARGE
     POLARIZATION EFP-EFP SCREENING IS OFF

     $EWALD OPTIONS
     -----------

     IFEWLD   =        F         TINFOIL        =        T
     BETA    =    0.200         ELECTRIC CONST =     1.00
     EPSILON =     1.00         CUT_OFF        = 0.10E+04
     CUTLIST =  1000.00         LEVEL          =    1
     KMAX    =       10         EWLDPL         =        F

            MULTIPOLE COORDINATES, ELECTRONIC AND NUCLEAR CHARGES

                  X              Y              Z           ELEC.   NUC.
 ZO1       -2.5601210028  -2.8470254006  -3.2436320580    8.00000    0.0
 ZH2       -3.4702201495  -1.4760947948  -3.9318566348    1.00000    0.0
 ZH3       -2.9780819235  -2.9217958717  -1.5112630742    1.00000    0.0
 O1        -2.5601210028  -2.8470254006  -3.2436320580   -8.21083    0.0
 H2        -3.4702201495  -1.4760947948  -3.9318566348   -0.55665    0.0
 H3        -2.9780819235  -2.9217958717  -1.5112630742   -0.55665    0.0
 B12       -3.0151702643  -2.1615604021  -3.5877445916   -0.33793    0.0
 B13       -2.7691011513  -2.8844109405  -2.3774478113   -0.33793    0.0
 ZO1       -2.8994578890  -2.9571554564   2.4946283157    8.00000    0.0
 ZH2       -1.1613119550  -2.8814635445   2.8876978988    1.00000    0.0
 ZH3       -3.5979550933  -4.2496672318   3.5060131172    1.00000    0.0
 O1        -2.8994578890  -2.9571554564   2.4946283157   -8.21083    0.0
 H2        -1.1613119550  -2.8814635445   2.8876978988   -0.55665    0.0
 H3        -3.5979550933  -4.2496672318   3.5060131172   -0.55665    0.0
 B12       -2.0303851661  -2.9193092147   2.6911627775   -0.33793    0.0
 B13       -3.2487067353  -3.6034110584   3.0003203867   -0.33793    0.0
 ZO1        2.8424338767  -3.0175844526   2.8018892765    8.00000    0.0
 ZH2        3.9177987413  -1.7285780267   3.4047467159    1.00000    0.0
 ZH3        3.2410745190  -3.2539786283   1.0795107807    1.00000    0.0
 O1         2.8424338767  -3.0175844526   2.8018892765   -8.21083    0.0
 H2         3.9177987413  -1.7285780267   3.4047467159   -0.55665    0.0
 H3         3.2410745190  -3.2539786283   1.0795107807   -0.55665    0.0
 B12        3.3801159629  -2.3730814868   3.1033182591   -0.33793    0.0
 B13        3.0417538517  -3.1357817877   1.9407002915   -0.33793    0.0
 ZO1        3.1402401414  -3.5229801407  -2.9189289075    8.00000    0.0
 ZH2        1.4257378635  -3.2438508003  -3.3238400101    1.00000    0.0
 ZH3        3.6620957928  -4.9495390159  -3.8537982595    1.00000    0.0
 O1         3.1402401414  -3.5229801407  -2.9189289075   -8.21083    0.0
 H2         1.4257378635  -3.2438508003  -3.3238400101   -0.55665    0.0
 H3         3.6620957928  -4.9495390159  -3.8537982595   -0.55665    0.0
 B12        2.2829892825  -3.3834152011  -3.1213841442   -0.33793    0.0
 B13        3.4011682472  -4.2362593089  -3.3863632689   -0.33793    0.0
 ZO1       -2.5601210028   2.9046371366  -3.2436320580    8.00000    0.0
 ZH2       -3.4702201050   4.2755677888  -3.9318566012    1.00000    0.0
 ZH3       -2.9780819103   2.8298666491  -1.5112630717    1.00000    0.0
 O1        -2.5601210028   2.9046371366  -3.2436320580   -8.21083    0.0
 H2        -3.4702201050   4.2755677888  -3.9318566012   -0.55665    0.0
 H3        -2.9780819103   2.8298666491  -1.5112630717   -0.55665    0.0
 B12       -3.0151702421   3.5901021584  -3.5877445748   -0.33793    0.0
 B13       -2.7691011447   2.8672515885  -2.3774478100   -0.33793    0.0
 ZO1       -2.8994578890   2.7945070808   2.4946283157    8.00000    0.0
 ZH2       -1.1613119550   2.8701989927   2.8876978988    1.00000    0.0
 ZH3       -3.5979550909   1.5019952970   3.5060131081    1.00000    0.0
 O1        -2.8994578890   2.7945070808   2.4946283157   -8.21083    0.0
 H2        -1.1613119550   2.8701989927   2.8876978988   -0.55665    0.0
 H3        -3.5979550909   1.5019952970   3.5060131081   -0.55665    0.0
 B12       -2.0303851661   2.8323533225   2.6911627775   -0.33793    0.0
 B13       -3.2487067341   2.1482514746   3.0003203821   -0.33793    0.0
 ZO1        2.8424338767   2.7340780657   2.8018892765    8.00000    0.0
 ZH2        3.9177987825   4.0230844465   3.4047467390    1.00000    0.0
 ZH3        3.2410745245   2.4976838950   1.0795107813    1.00000    0.0
 O1         2.8424338767   2.7340780657   2.8018892765   -8.21083    0.0
 H2         3.9177987825   4.0230844465   3.4047467390   -0.55665    0.0
 H3         3.2410745245   2.4976838950   1.0795107813   -0.55665    0.0
 B12        3.3801159835   3.3785810089   3.1033182706   -0.33793    0.0
 B13        3.0417538545   2.6158807331   1.9407002918   -0.33793    0.0
 ZO1        3.1402401414   2.2286823965  -2.9189289075    8.00000    0.0
 ZH2        1.4257378635   2.5078117369  -3.3238400101    1.00000    0.0
 ZH3        3.6620957928   0.8021235213  -3.8537982595    1.00000    0.0
 O1         3.1402401414   2.2286823965  -2.9189289075   -8.21083    0.0
 H2         1.4257378635   2.5078117369  -3.3238400101   -0.55665    0.0
 H3         3.6620957928   0.8021235213  -3.8537982595   -0.55665    0.0
 B12        2.2829892825   2.3682473361  -3.1213841442   -0.33793    0.0
 B13        3.4011682472   1.5154032283  -3.3863632689   -0.33793    0.0

   CHARGE SCREENING PARAMETERS (COEF AND ZETA)
   ICHGP=   3 AI-FRAGMENT SCREENING= 1   FRAGMENT-FRAGMENT SCREENING= 1

             GAUSSIAN DAMPING    EXPONENTIAL DAMPING
 ZO1        3.17107   0.30798      3.17107   0.30798
 ZH2       -0.74355   0.22035     -0.74355   0.22035
 ZH3       -0.74355   0.22035     -0.74355   0.22035
 O1         3.06389   0.30817      3.06389   0.30817
 H2        -1.50149   0.23358     -1.50149   0.23358
 H3        -1.50149   0.23358     -1.50149   0.23358
 B12        1.99014   0.44003      1.99014   0.44003
 B13        1.99014   0.44003      1.99014   0.44003
 ZO1        3.17107   0.30798      3.17107   0.30798
 ZH2       -0.74355   0.22035     -0.74355   0.22035
 ZH3       -0.74355   0.22035     -0.74355   0.22035
 O1         3.06389   0.30817      3.06389   0.30817
 H2        -1.50149   0.23358     -1.50149   0.23358
 H3        -1.50149   0.23358     -1.50149   0.23358
 B12        1.99014   0.44003      1.99014   0.44003
 B13        1.99014   0.44003      1.99014   0.44003
 ZO1        3.17107   0.30798      3.17107   0.30798
 ZH2       -0.74355   0.22035     -0.74355   0.22035
 ZH3       -0.74355   0.22035     -0.74355   0.22035
 O1         3.06389   0.30817      3.06389   0.30817
 H2        -1.50149   0.23358     -1.50149   0.23358
 H3        -1.50149   0.23358     -1.50149   0.23358
 B12        1.99014   0.44003      1.99014   0.44003
 B13        1.99014   0.44003      1.99014   0.44003
 ZO1        3.17107   0.30798      3.17107   0.30798
 ZH2       -0.74355   0.22035     -0.74355   0.22035
 ZH3       -0.74355   0.22035     -0.74355   0.22035
 O1         3.06389   0.30817      3.06389   0.30817
 H2        -1.50149   0.23358     -1.50149   0.23358
 H3        -1.50149   0.23358     -1.50149   0.23358
 B12        1.99014   0.44003      1.99014   0.44003
 B13        1.99014   0.44003      1.99014   0.44003
 ZO1        3.17107   0.30798      3.17107   0.30798
 ZH2       -0.74355   0.22035     -0.74355   0.22035
 ZH3       -0.74355   0.22035     -0.74355   0.22035
 O1         3.06389   0.30817      3.06389   0.30817
 H2        -1.50149   0.23358     -1.50149   0.23358
 H3        -1.50149   0.23358     -1.50149   0.23358
 B12        1.99014   0.44003      1.99014   0.44003
 B13        1.99014   0.44003      1.99014   0.44003
 ZO1        3.17107   0.30798      3.17107   0.30798
 ZH2       -0.74355   0.22035     -0.74355   0.22035
 ZH3       -0.74355   0.22035     -0.74355   0.22035
 O1         3.06389   0.30817      3.06389   0.30817
 H2        -1.50149   0.23358     -1.50149   0.23358
 H3        -1.50149   0.23358     -1.50149   0.23358
 B12        1.99014   0.44003      1.99014   0.44003
 B13        1.99014   0.44003      1.99014   0.44003
 ZO1        3.17107   0.30798      3.17107   0.30798
 ZH2       -0.74355   0.22035     -0.74355   0.22035
 ZH3       -0.74355   0.22035     -0.74355   0.22035
 O1         3.06389   0.30817      3.06389   0.30817
 H2        -1.50149   0.23358     -1.50149   0.23358
 H3        -1.50149   0.23358     -1.50149   0.23358
 B12        1.99014   0.44003      1.99014   0.44003
 B13        1.99014   0.44003      1.99014   0.44003
 ZO1        3.17107   0.30798      3.17107   0.30798
 ZH2       -0.74355   0.22035     -0.74355   0.22035
 ZH3       -0.74355   0.22035     -0.74355   0.22035
 O1         3.06389   0.30817      3.06389   0.30817
 H2        -1.50149   0.23358     -1.50149   0.23358
 H3        -1.50149   0.23358     -1.50149   0.23358
 B12        1.99014   0.44003      1.99014   0.44003
 B13        1.99014   0.44003      1.99014   0.44003

   SCREENING FOR POLARIZATION WITH EXPONENTIAL FORMULA  OFF

   SCREENING FOR POLARIZATION WITH TANG-TOENNIS FORMULA  OFF

                  DIPOLE MOMENTS AND THE SECOND MOMENT TENSOR

                  X        Y        Z           XX/XY    YY/XZ    ZZ/YZ
 O1           -0.27164  0.26511  0.21357     -4.33908 -4.13268 -3.75622
                                             -0.26588 -0.00861 -0.26386
 H2           -0.02583  0.04326 -0.03217     -0.27820 -0.27271 -0.28085
                                             -0.00877  0.00160 -0.00335
 H3           -0.00743 -0.01079  0.05832     -0.28166 -0.28264 -0.26746
                                             -0.00200 -0.00556  0.00096
 B12           0.09142 -0.13821  0.07058     -0.14452 -0.13233 -0.13818
                                             -0.01638  0.00390 -0.01119
 B13           0.04147  0.00851 -0.17507     -0.14997 -0.14796 -0.11709
                                             -0.00571 -0.00737 -0.00440
 O1            0.21265 -0.24889  0.28726     -3.74813 -4.17929 -4.30057
                                              0.25395 -0.02033 -0.28023
 H2            0.05857  0.01033  0.00603     -0.26736 -0.28289 -0.28151
                                             -0.00084  0.00543 -0.00199
 H3           -0.03252 -0.04081  0.02915     -0.28078 -0.27407 -0.27691
                                              0.00324 -0.00193 -0.00908
 B12          -0.17565 -0.00855 -0.03889     -0.11680 -0.14892 -0.14931
                                              0.00432  0.00660 -0.00595
 B13           0.07162  0.13030 -0.10164     -0.13793 -0.13503 -0.14207
                                              0.01076 -0.00499 -0.01711
 O1            0.30149  0.21530 -0.22898     -4.27047 -4.16590 -3.79161
                                              0.28520  0.00792  0.28799
 H2            0.03111  0.04170  0.02944     -0.27595 -0.27458 -0.28123
                                              0.00930  0.00139  0.00269
 H3            0.00581 -0.01533 -0.05748     -0.28123 -0.28309 -0.26744
                                              0.00146 -0.00568  0.00073
 B12          -0.10809 -0.13007 -0.06197     -0.14027 -0.13519 -0.13956
                                              0.01772  0.00414  0.01036
 B13          -0.03941  0.02474  0.17400     -0.14859 -0.14859 -0.11784
                                              0.00537 -0.00700  0.00727
 O1           -0.24394 -0.23469 -0.27404     -3.82088 -4.07586 -4.33125
                                             -0.29897  0.03177  0.26873
 H2           -0.05674  0.01751 -0.00687     -0.26738 -0.28270 -0.28168
                                             -0.00087  0.00566  0.00134
 H3            0.02687 -0.04625 -0.02669     -0.28151 -0.27233 -0.27792
                                             -0.00228 -0.00060  0.00900
 B12           0.17315 -0.02914  0.04014     -0.11842 -0.14670 -0.14990
                                             -0.00789  0.00769  0.00492
 B13          -0.05381  0.14396  0.09392     -0.14067 -0.13037 -0.14398
                                             -0.01011 -0.00217  0.01699
 O1           -0.27164  0.26511  0.21357     -4.33908 -4.13268 -3.75622
                                             -0.26588 -0.00861 -0.26386
 H2           -0.02583  0.04326 -0.03217     -0.27820 -0.27271 -0.28085
                                             -0.00877  0.00160 -0.00335
 H3           -0.00743 -0.01079  0.05832     -0.28166 -0.28264 -0.26746
                                             -0.00200 -0.00556  0.00096
 B12           0.09142 -0.13821  0.07058     -0.14452 -0.13233 -0.13818
                                             -0.01638  0.00390 -0.01119
 B13           0.04147  0.00851 -0.17507     -0.14997 -0.14796 -0.11709
                                             -0.00571 -0.00737 -0.00440
 O1            0.21265 -0.24889  0.28726     -3.74813 -4.17929 -4.30057
                                              0.25395 -0.02033 -0.28023
 H2            0.05857  0.01033  0.00603     -0.26736 -0.28289 -0.28151
                                             -0.00084  0.00543 -0.00199
 H3           -0.03252 -0.04081  0.02915     -0.28078 -0.27407 -0.27691
                                              0.00324 -0.00193 -0.00908
 B12          -0.17565 -0.00855 -0.03889     -0.11680 -0.14892 -0.14931
                                              0.00432  0.00660 -0.00595
 B13           0.07162  0.13030 -0.10164     -0.13793 -0.13503 -0.14207
                                              0.01076 -0.00499 -0.01711
 O1            0.30149  0.21530 -0.22898     -4.27047 -4.16590 -3.79161
                                              0.28520  0.00792  0.28799
 H2            0.03111  0.04170  0.02944     -0.27595 -0.27458 -0.28123
                                              0.00930  0.00139  0.00269
 H3            0.00581 -0.01533 -0.05748     -0.28123 -0.28309 -0.26744
                                              0.00146 -0.00568  0.00073
 B12          -0.10809 -0.13007 -0.06197     -0.14027 -0.13519 -0.13956
                                              0.01772  0.00414  0.01036
 B13          -0.03941  0.02474  0.17400     -0.14859 -0.14859 -0.11784
                                              0.00537 -0.00700  0.00727
 O1           -0.24394 -0.23469 -0.27404     -3.82088 -4.07586 -4.33125
                                             -0.29897  0.03177  0.26873
 H2           -0.05674  0.01751 -0.00687     -0.26738 -0.28270 -0.28168
                                             -0.00087  0.00566  0.00134
 H3            0.02687 -0.04625 -0.02669     -0.28151 -0.27233 -0.27792
                                             -0.00228 -0.00060  0.00900
 B12           0.17315 -0.02914  0.04014     -0.11842 -0.14670 -0.14990
                                             -0.00789  0.00769  0.00492
 B13          -0.05381  0.14396  0.09392     -0.14067 -0.13037 -0.14398
                                             -0.01011 -0.00217  0.01699

                  THE THIRD MOMENT TENSOR

               XXX/XYY  YYY/YYZ  ZZZ/XZZ  XXY/YZZ  XXZ/XYZ
 O1           -0.62549  0.59103  0.44458  0.19691  0.17137
              -0.19544  0.18228 -0.19434  0.20295 -0.01313
 H2           -0.02319  0.03598 -0.03837  0.01039 -0.01141
              -0.00111 -0.00848 -0.00716  0.01287 -0.00316
 H3           -0.00468 -0.01590  0.04353 -0.00556  0.02005
              -0.00161  0.02128  0.00393 -0.00477  0.00039
 B12           0.26193 -0.40317  0.23011 -0.13394  0.07487
               0.08689  0.07474  0.08578 -0.13511 -0.00040
 B13           0.11083  0.04176 -0.51766  0.01460 -0.17263
               0.03466 -0.17395  0.03619  0.01437  0.00079
 O1            0.44201 -0.55724  0.65959 -0.19047  0.20660
               0.17980  0.20748  0.17298 -0.18252 -0.01366
 H2            0.04361  0.01516  0.00286  0.00448 -0.00428
               0.02145  0.00103  0.02021  0.00531  0.00039
 H3           -0.03871 -0.03519  0.02557 -0.01208  0.00811
              -0.00909  0.00248 -0.01100 -0.00867 -0.00339
 B12          -0.51952 -0.04048 -0.10189 -0.01409 -0.03321
              -0.17441 -0.03189 -0.17340 -0.01467  0.00089
 B13           0.23328  0.38024 -0.29187  0.12743 -0.09592
               0.07569 -0.09696  0.07592  0.12622 -0.00042
 O1            0.69107  0.47851 -0.48063  0.15479 -0.18605
               0.21642 -0.18917  0.21936  0.17141 -0.01395
 H2            0.02669  0.03690  0.03586  0.00846  0.01003
               0.00290  0.00859  0.00918  0.01315 -0.00304
 H3            0.00235 -0.02042 -0.04265 -0.00695 -0.01961
               0.00092 -0.02073 -0.00451 -0.00431 -0.00012
 B12          -0.31048 -0.38131 -0.20474 -0.12655 -0.06660
              -0.10331 -0.06638 -0.10210 -0.12833 -0.00031
 B13          -0.10241  0.08756  0.51343  0.03060  0.17138
              -0.03214  0.17242 -0.03357  0.02957  0.00084
 O1           -0.51578 -0.51593 -0.63055 -0.18913 -0.19963
              -0.20158 -0.19405 -0.19439 -0.17212 -0.01294
 H2           -0.04180  0.02313 -0.00403  0.00484  0.00403
              -0.02015 -0.00140 -0.01935  0.00784 -0.00025
 H3            0.03340 -0.03869 -0.02387 -0.01509 -0.00810
               0.00749 -0.00076  0.01003 -0.01126 -0.00241
 B12           0.50992 -0.10286  0.10662 -0.03426  0.03495
               0.17141  0.03311  0.17003 -0.03493  0.00061
 B13          -0.18073  0.42217  0.26935  0.14208  0.08823
              -0.05862  0.08946 -0.05857  0.14027 -0.00028
 O1           -0.62549  0.59103  0.44458  0.19691  0.17137
              -0.19544  0.18228 -0.19434  0.20295 -0.01313
 H2           -0.02319  0.03598 -0.03837  0.01039 -0.01141
              -0.00111 -0.00848 -0.00716  0.01287 -0.00316
 H3           -0.00468 -0.01590  0.04353 -0.00556  0.02005
              -0.00161  0.02128  0.00393 -0.00477  0.00039
 B12           0.26193 -0.40317  0.23011 -0.13394  0.07487
               0.08689  0.07474  0.08578 -0.13511 -0.00040
 B13           0.11083  0.04176 -0.51766  0.01460 -0.17263
               0.03466 -0.17395  0.03619  0.01437  0.00079
 O1            0.44201 -0.55724  0.65959 -0.19047  0.20660
               0.17980  0.20748  0.17298 -0.18252 -0.01366
 H2            0.04361  0.01516  0.00286  0.00448 -0.00428
               0.02145  0.00103  0.02021  0.00531  0.00039
 H3           -0.03871 -0.03519  0.02557 -0.01208  0.00811
              -0.00909  0.00248 -0.01100 -0.00867 -0.00339
 B12          -0.51952 -0.04048 -0.10189 -0.01409 -0.03321
              -0.17441 -0.03189 -0.17340 -0.01467  0.00089
 B13           0.23328  0.38024 -0.29187  0.12743 -0.09592
               0.07569 -0.09696  0.07592  0.12622 -0.00042
 O1            0.69107  0.47851 -0.48063  0.15479 -0.18605
               0.21642 -0.18917  0.21936  0.17141 -0.01395
 H2            0.02669  0.03690  0.03586  0.00846  0.01003
               0.00290  0.00859  0.00918  0.01315 -0.00304
 H3            0.00235 -0.02042 -0.04265 -0.00695 -0.01961
               0.00092 -0.02073 -0.00451 -0.00431 -0.00012
 B12          -0.31048 -0.38131 -0.20474 -0.12655 -0.06660
              -0.10331 -0.06638 -0.10210 -0.12833 -0.00031
 B13          -0.10241  0.08756  0.51343  0.03060  0.17138
              -0.03214  0.17242 -0.03357  0.02957  0.00084
 O1           -0.51578 -0.51593 -0.63055 -0.18913 -0.19963
              -0.20158 -0.19405 -0.19439 -0.17212 -0.01294
 H2           -0.04180  0.02313 -0.00403  0.00484  0.00403
              -0.02015 -0.00140 -0.01935  0.00784 -0.00025
 H3            0.03340 -0.03869 -0.02387 -0.01509 -0.00810
               0.00749 -0.00076  0.01003 -0.01126 -0.00241
 B12           0.50992 -0.10286  0.10662 -0.03426  0.03495
               0.17141  0.03311  0.17003 -0.03493  0.00061
 B13          -0.18073  0.42217  0.26935  0.14208  0.08823
              -0.05862  0.08946 -0.05857  0.14027 -0.00028

                  POLARIZABLE POINTS AND THE POLARIZABILITY TENSOR

              X       Y       Z       XX/YZ    YY/YX    ZZ/ZX    XY/ZY     XZ
 LMO1     -2.5602 -2.8469 -3.2435   0.00141  0.00142  0.00141 -0.00010 -0.00007
                                    0.00005 -0.00010 -0.00007  0.00005
 LMO2     -2.8071 -2.8627 -2.3028   0.87601  0.70311  2.84291  0.11375 -0.65428
                                    0.10843  0.03720 -0.43167 -0.16902
 LMO3     -3.0688 -2.0938 -3.5903   1.36209  2.09673  0.96322 -0.91395  0.57265
                                   -0.77438 -0.83741  0.35004 -0.49694
 LMO4     -2.7534 -3.3222 -3.4881   0.52147  1.29350  1.35374 -0.38939 -0.05668
                                   -0.07419  0.09165  0.23062  0.02361
 LMO5     -2.0069 -2.7232 -3.2822   1.22793  0.74028  1.20050  0.03032  0.05036
                                   -0.29433 -0.45072 -0.23695 -0.39213
 LMO1     -2.8994 -2.9573  2.4948   0.00141  0.00141  0.00142 -0.00004  0.00007
                                   -0.00010 -0.00004  0.00007 -0.00010
 LMO2     -3.2517 -3.6672  3.0586   0.97194  1.95102  1.49908  0.47708 -0.39267
                                   -0.88175  0.73902 -0.63537 -0.95156
 LMO3     -1.9557 -2.9395  2.7298   2.85595  0.71285  0.85324  0.16543  0.39814
                                    0.04277 -0.09651  0.64084  0.11257
 LMO4     -3.1343 -2.4657  2.6567   1.35228  1.26833  0.54811 -0.04583 -0.23638
                                    0.04208  0.07705  0.03552 -0.44215
 LMO5     -2.9464 -3.1188  1.9519   1.21313  0.70211  1.25347  0.40036  0.20260
                                   -0.42095  0.27749 -0.06930  0.06328
 LMO1      2.8426 -3.0175  2.8018   0.00143  0.00139  0.00142  0.00009 -0.00008
                                   -0.00004  0.00009 -0.00008 -0.00004
 LMO2      3.0818 -3.1238  1.8650   0.85064  0.74539  2.82602 -0.17334 -0.64502
                                    0.10808 -0.08163 -0.39516  0.35616
 LMO3      3.4418 -2.3124  3.1018   1.59249  1.93953  0.89002  1.01936  0.59763
                                    0.63128  0.92764  0.34777  0.38319
 LMO4      2.9765 -3.4964  3.0770   0.57053  1.24731  1.35087  0.47558 -0.07451
                                    0.08740  0.01349  0.22863 -0.04708
 LMO5      2.3089 -2.8241  2.8302   1.27166  0.74304  1.15401 -0.08924  0.09197
                                    0.31363  0.37285 -0.21117  0.44811
 LMO1      3.1401 -3.5231 -2.9191   0.00143  0.00140  0.00141  0.00005  0.00008
                                    0.00009  0.00005  0.00008  0.00009
 LMO2      3.3957 -4.3030 -3.4410   0.82968  2.19791  1.39445 -0.34227 -0.25431
                                    0.88805 -0.61693 -0.47093  0.98818
 LMO3      2.2062 -3.3958 -3.1592   2.81330  0.74235  0.86640 -0.41919  0.40821
                                   -0.08773 -0.14453  0.62483 -0.18786
 LMO4      3.4366 -3.0760 -3.1069   1.34645  1.29500  0.52725  0.02312 -0.24351
                                   -0.05230 -0.08220  0.09546  0.39213
 LMO5      3.1672 -3.6589 -2.3678   1.11748  0.81844  1.23280 -0.44002  0.28088
                                    0.41602 -0.33470 -0.05809 -0.02840
 LMO1     -2.5602  2.9048 -3.2435   0.00141  0.00142  0.00141 -0.00010 -0.00007
                                    0.00005 -0.00010 -0.00007  0.00005
 LMO2     -2.8071  2.8889 -2.3028   0.87601  0.70311  2.84291  0.11375 -0.65428
                                    0.10843  0.03720 -0.43167 -0.16902
 LMO3     -3.0688  3.6579 -3.5903   1.36209  2.09673  0.96322 -0.91395  0.57265
                                   -0.77438 -0.83741  0.35004 -0.49694
 LMO4     -2.7534  2.4295 -3.4881   0.52147  1.29350  1.35374 -0.38939 -0.05668
                                   -0.07419  0.09165  0.23062  0.02361
 LMO5     -2.0069  3.0285 -3.2822   1.22793  0.74028  1.20050  0.03032  0.05036
                                   -0.29433 -0.45072 -0.23695 -0.39213
 LMO1     -2.8994  2.7944  2.4948   0.00141  0.00141  0.00142 -0.00004  0.00007
                                   -0.00010 -0.00004  0.00007 -0.00010
 LMO2     -3.2517  2.0845  3.0586   0.97194  1.95102  1.49908  0.47708 -0.39267
                                   -0.88175  0.73902 -0.63537 -0.95156
 LMO3     -1.9557  2.8122  2.7298   2.85595  0.71285  0.85324  0.16543  0.39814
                                    0.04277 -0.09651  0.64084  0.11257
 LMO4     -3.1343  3.2859  2.6567   1.35228  1.26833  0.54811 -0.04583 -0.23638
                                    0.04208  0.07705  0.03552 -0.44215
 LMO5     -2.9464  2.6329  1.9519   1.21313  0.70211  1.25347  0.40036  0.20260
                                   -0.42095  0.27749 -0.06930  0.06328
 LMO1      2.8426  2.7342  2.8018   0.00143  0.00139  0.00142  0.00009 -0.00008
                                   -0.00004  0.00009 -0.00008 -0.00004
 LMO2      3.0818  2.6279  1.8650   0.85064  0.74539  2.82602 -0.17334 -0.64502
                                    0.10808 -0.08163 -0.39516  0.35616
 LMO3      3.4418  3.4392  3.1018   1.59249  1.93953  0.89002  1.01936  0.59763
                                    0.63128  0.92764  0.34777  0.38319
 LMO4      2.9765  2.2553  3.0770   0.57053  1.24731  1.35087  0.47558 -0.07451
                                    0.08740  0.01349  0.22863 -0.04708
 LMO5      2.3089  2.9276  2.8302   1.27166  0.74304  1.15401 -0.08924  0.09197
                                    0.31363  0.37285 -0.21117  0.44811
 LMO1      3.1401  2.2286 -2.9191   0.00143  0.00140  0.00141  0.00005  0.00008
                                    0.00009  0.00005  0.00008  0.00009
 LMO2      3.3957  1.4486 -3.4410   0.82968  2.19791  1.39445 -0.34227 -0.25431
                                    0.88805 -0.61693 -0.47093  0.98818
 LMO3      2.2062  2.3559 -3.1592   2.81330  0.74235  0.86640 -0.41919  0.40821
                                   -0.08773 -0.14453  0.62483 -0.18786
 LMO4      3.4366  2.6756 -3.1069   1.34645  1.29500  0.52725  0.02312 -0.24351
                                   -0.05230 -0.08220  0.09546  0.39213
 LMO5      3.1672  2.0927 -2.3678   1.11748  0.81844  1.23280 -0.44002  0.28088
                                    0.41602 -0.33470 -0.05809 -0.02840

                    --------------                     ------------------
                      REP POINTS                         REP PARAMETERS  
                    --------------                     ------------------

                X         Y         Z               COEF       N          ZETA

  O1        -2.56012  -2.84703  -3.24363        -0.00016       0       0.01886
                                                 1.24695       0       0.41986
  H2        -3.47022  -1.47609  -3.93186         0.00044       0       0.06432
                                                 0.11726       0       0.69633
  H3        -2.97808  -2.92180  -1.51126         0.00044       0       0.06432
                                                 0.11726       0       0.69633
  O1        -2.89946  -2.95716   2.49463        -0.00016       0       0.01886
                                                 1.24695       0       0.41986
  H2        -1.16131  -2.88146   2.88770         0.00044       0       0.06432
                                                 0.11726       0       0.69633
  H3        -3.59796  -4.24967   3.50601         0.00044       0       0.06432
                                                 0.11726       0       0.69633
  O1         2.84243  -3.01758   2.80189        -0.00016       0       0.01886
                                                 1.24695       0       0.41986
  H2         3.91780  -1.72858   3.40475         0.00044       0       0.06432
                                                 0.11726       0       0.69633
  H3         3.24107  -3.25398   1.07951         0.00044       0       0.06432
                                                 0.11726       0       0.69633
  O1         3.14024  -3.52298  -2.91893        -0.00016       0       0.01886
                                                 1.24695       0       0.41986
  H2         1.42574  -3.24385  -3.32384         0.00044       0       0.06432
                                                 0.11726       0       0.69633
  H3         3.66210  -4.94954  -3.85380         0.00044       0       0.06432
                                                 0.11726       0       0.69633
  O1        -2.56012   2.90464  -3.24363        -0.00016       0       0.01886
                                                 1.24695       0       0.41986
  H2        -3.47022   4.27557  -3.93186         0.00044       0       0.06432
                                                 0.11726       0       0.69633
  H3        -2.97808   2.82987  -1.51126         0.00044       0       0.06432
                                                 0.11726       0       0.69633
  O1        -2.89946   2.79451   2.49463        -0.00016       0       0.01886
                                                 1.24695       0       0.41986
  H2        -1.16131   2.87020   2.88770         0.00044       0       0.06432
                                                 0.11726       0       0.69633
  H3        -3.59796   1.50200   3.50601         0.00044       0       0.06432
                                                 0.11726       0       0.69633
  O1         2.84243   2.73408   2.80189        -0.00016       0       0.01886
                                                 1.24695       0       0.41986
  H2         3.91780   4.02308   3.40475         0.00044       0       0.06432
                                                 0.11726       0       0.69633
  H3         3.24107   2.49768   1.07951         0.00044       0       0.06432
                                                 0.11726       0       0.69633
  O1         3.14024   2.22868  -2.91893        -0.00016       0       0.01886
                                                 1.24695       0       0.41986
  H2         1.42574   2.50781  -3.32384         0.00044       0       0.06432
                                                 0.11726       0       0.69633
  H3         3.66210   0.80212  -3.85380         0.00044       0       0.06432
                                                 0.11726       0       0.69633

 THERE ARE   1 FRAGMENT TYPES, AND   1 FRAGMENT-FRAGMENT INTERACTIONS.

 REPULSIVE FIT FOR FRAGMENT PAIR H2ORHF-H2ORHF (COEF,EXPONENT)
 O1      -O1         -24.26976500    1.43620410
 O1      -H2           3.70228520    1.66183490
 O1      -H3           3.70228520    1.66183490
 O1      -CENTER       4.26456410    1.25780170
 H2      -O1           3.70228520    1.66183490
 H2      -H2           6.23169300    3.52648490
 H2      -H3           6.23169300    3.52648490
 H2      -CENTER      -0.42798437    1.13356290
 H3      -O1           3.70228520    1.66183490
 H3      -H2           6.23169300    3.52648490
 H3      -H3           6.23169300    3.52648490
 H3      -CENTER      -0.42798437    1.13356290
 CENTER  -O1           4.26456410    1.25780170
 CENTER  -H2          -0.42798437    1.13356290
 CENTER  -H3          -0.42798437    1.13356290
 CENTER  -CENTER     128.74969000    1.87124510

 ** LOOKING UP INTERNALLY STORED DATA FOR SOLVENT=WATER    **
 OPTICAL AND PHYSICAL CONSTANTS:
 EPS= 78.390; EPSINF=  1.776; RSOLV=  1.385 A; VMOL=  18.070 ML/MOL;
 TCE= .25700E-03 1/K; STEN= 71.810 DYN/CM;  DSTEN=  0.6500; CMF=  1.2770


     -----------------------------------
     INPUT FOR PCM SOLVATION CALCULATION 
     -----------------------------------
     IEF   =     -10
     ICOMP =       0     IFIELD=       0     ICAV  =       0
     IDISP =       0     IREP  =       0     IDP   =       0

     SOLVNT=WATER        EPS   = 78.3900     EPSINF=  1.7760
     VMOL  = 18.0700     TCE   =  0.00025700 STEN  = 71.8100
     DSTEN =  0.6500     CMF   =  1.2770     RSOLV =  1.3850

     NESFP =       0
     OMEGA = 40.0000     RET   =100.0000     FRO   =  0.7000

     TABS  =298.0000     IPRINT=       0

     --------------------------------
     INPUT FOR ITERATIVE C-PCM METHOD 
     --------------------------------
     IPCMIT  =         1     MXDIIS  =        50
     MXITR1  =        50     MXITR2  =        50
     THRES   = 0.100E-09     IMUL    =         3
     RCUT(1) =   15.0000     RCUT(2) =   30.0000

     IDIRCT  =         1
     IMGABI  =         0     RABI    =    4.0000
     IMGASC  =         0     RASC    =   20.0000
     THRSLS  = 0.500E-03     DENSLS  =    0.0100
     IEFPOL  =         1     REFPOL  =    0.0000

     INPUT FOR ISOTROPIC DIELECTRICS
     -------------------------------
     EPS=    78.39

     INPUT FOR CAVITY DEFINITION 
     ---------------------------
   ATOM               COORDINATES                RADIUS       EPS
      1     -1.3548     -1.5066     -1.7165      1.5900     78.3900
      2     -1.8364     -0.7811     -2.0806      0.0100     78.3900
      3     -1.5759     -1.5461     -0.7997      0.0100     78.3900
      4     -1.5343     -1.5649      1.3201      1.5900     78.3900
      5     -0.6145     -1.5248      1.5281      0.0100     78.3900
      6     -1.9040     -2.2488      1.8553      0.0100     78.3900
      7      1.5042     -1.5968      1.4827      1.5900     78.3900
      8      2.0732     -0.9147      1.8017      0.0100     78.3900
      9      1.7151     -1.7219      0.5713      0.0100     78.3900
     10      1.6617     -1.8643     -1.5446      1.5900     78.3900
     11      0.7545     -1.7166     -1.7589      0.0100     78.3900
     12      1.9379     -2.6192     -2.0393      0.0100     78.3900
     13     -1.3548      1.5371     -1.7165      1.5900     78.3900
     14     -1.8364      2.2625     -2.0806      0.0100     78.3900
     15     -1.5759      1.4975     -0.7997      0.0100     78.3900
     16     -1.5343      1.4788      1.3201      1.5900     78.3900
     17     -0.6145      1.5188      1.5281      0.0100     78.3900
     18     -1.9040      0.7948      1.8553      0.0100     78.3900
     19      1.5042      1.4468      1.4827      1.5900     78.3900
     20      2.0732      2.1289      1.8017      0.0100     78.3900
     21      1.7151      1.3217      0.5713      0.0100     78.3900
     22      1.6617      1.1794     -1.5446      1.5900     78.3900
     23      0.7545      1.3271     -1.7589      0.0100     78.3900
     24      1.9379      0.4245     -2.0393      0.0100     78.3900

     ----------------------------
     INPUT FOR TESSERA DEFINITION
     ----------------------------
     NTSALL  =        60     MTHALL  =         4
     MTHAUT  =         0     AUTFRE  =    2.0000
     NTSFRZ  =        60     KEEPSM  =         0
     AREAKP  =   10.0000     BONDRY  =    1.0000
     AREATL  =    0.0100

     SPHERE     INITS       METHOD
          1        60       FIXPVA
          2        60       FIXPVA
          3        60       FIXPVA
          4        60       FIXPVA
          5        60       FIXPVA
          6        60       FIXPVA
          7        60       FIXPVA
          8        60       FIXPVA
          9        60       FIXPVA
         10        60       FIXPVA
         11        60       FIXPVA
         12        60       FIXPVA
         13        60       FIXPVA
         14        60       FIXPVA
         15        60       FIXPVA
         16        60       FIXPVA
         17        60       FIXPVA
         18        60       FIXPVA
         19        60       FIXPVA
         20        60       FIXPVA
         21        60       FIXPVA
         22        60       FIXPVA
         23        60       FIXPVA
         24        60       FIXPVA

     ------------------------------
      FIXPVA TESSELLATION FOR PCM
         PEIFENG SU AND HUI LI
     UNIVERSITY OF NEBRASKA-LINCOLN
     ------------------------------


     -----------------------------
     INPUT FOR PCM GRADIENT METHOD
     -----------------------------
     IPCDER  =         3     IFAST   =         0
     FIXPVA GRADIENTS BY PEIFENG SU AND HUI LI
  

 PCM DIMENSIONS: MXSP=  2000, MXTS=       960, MEMORY=         49123

          ----------------
          PROPERTIES INPUT
          ----------------

     MOMENTS            FIELD           POTENTIAL          DENSITY
 IEMOM =       1   IEFLD =       0   IEPOT =       0   IEDEN =       0
 WHERE =COMASS     WHERE =NUCLEI     WHERE =NUCLEI     WHERE =NUCLEI  
 OUTPUT=BOTH       OUTPUT=BOTH       OUTPUT=BOTH       OUTPUT=BOTH    
 IEMINT=       0   IEFINT=       0                     IEDINT=       0
                                                       MORB  =       0
          EXTRAPOLATION IN EFFECT
 ORBITAL PRINTING OPTION: NPREO=     1     0     2     1

     -------------------------------
     INTEGRAL TRANSFORMATION OPTIONS
     -------------------------------
     NWORD  =            0
     CUTOFF = 1.0E-09     MPTRAN =       0
     DIRTRF =       F     AOINTS =DUP     

          ----------------------
          INTEGRAL INPUT OPTIONS
          ----------------------
 NOPK  =       1 NORDER=       0 SCHWRZ=       F

 ..... DONE SETTING UP THE RUN .....
 STEP CPU TIME =     0.02 TOTAL CPU TIME =        0.0 (    0.0 MIN)
 TOTAL WALL CLOCK TIME=        0.0 SECONDS, CPU UTILIZATION IS  66.67%


          -----------------------------
          STATIONARY POINT LOCATION RUN
          -----------------------------

 OBTAINING INITIAL HESSIAN, HESS=GUESS   
 DIAGONAL GUESS HESSIAN FOR FRAGMENTS(TRANS)=  0.0300
 DIAGONAL GUESS HESSIAN FOR FRAGMENTS(ROT)  =  0.0100

          PARAMETERS CONTROLLING GEOMETRY SEARCH ARE
          METHOD =QA                  UPHESS =BFGS    
          NNEG   =         0          NFRZ   =         0
          NSTEP  =        30          IFOLOW =         1
          HESS   =GUESS               RESTAR =         F
          IHREP  =         0          HSSEND =         F
          NPRT   =         0          NPUN   =         0
          OPTTOL = 1.000E-05          RMIN   = 1.500E-03
          RMAX   = 1.000E-01          RLIM   = 7.000E-02
          DXMAX  = 3.000E-01          PURIFY =         F
          MOVIE  =         F          TRUPD  =         T
          TRMAX  = 5.000E-01          TRMIN  = 5.000E-02
          ITBMAT =         5          STPT   =         F
          STSTEP = 1.000E-02          PROJCT=          T

 BEGINNING GEOMETRY SEARCH POINT NSERCH=   0 ...

  
 COORDINATES OF FRAGMENT MULTIPOLE CENTERS (ANGS)
 MULTIPOLE NAME        X              Y              Z
 ------------------------------------------------------------
 FRAGNAME=H2ORHF
 ZO1              -1.3547577900  -1.5065810700  -1.7164562900
 ZH2              -1.8363615530  -0.7811157832  -2.0806490784
 ZH3              -1.5759332003  -1.5461479022  -0.7997260365
 FRAGNAME=H2ORHF
 ZO1              -1.5343271500  -1.5648593900   1.3201005500
 ZH2              -0.6145398658  -1.5248049523   1.5281040307
 ZH3              -1.9039559792  -2.2488272159   1.8553023772
 FRAGNAME=H2ORHF
 ZO1               1.5041513400  -1.5968370400   1.4826960600
 ZH2               2.0732099610  -0.9147241652   1.8017145015
 ZH3               1.7151028985  -1.7219314596   0.5712525455
 FRAGNAME=H2ORHF
 ZO1               1.6617436400  -1.8642809400  -1.5446307700
 ZH2               0.7544680408  -1.7165720435  -1.7589005135
 ZH3               1.9378977781  -2.6191834415  -2.0393423621
 FRAGNAME=H2ORHF
 ZO1              -1.3547577900   1.5370678900  -1.7164562900
 ZH2              -1.8363615294   2.2625332014  -2.0806490606
 ZH3              -1.5759331933   1.4975010491  -0.7997260352
 FRAGNAME=H2ORHF
 ZO1              -1.5343271500   1.4787895700   1.3201005500
 ZH2              -0.6145398658   1.5188440077   1.5281040307
 ZH3              -1.9039559779   0.7948217396   1.8553023724
 FRAGNAME=H2ORHF
 ZO1               1.5041513400   1.4468119100   1.4826960600
 ZH2               2.0732099828   2.1289247608   1.8017145137
 ZH3               1.7151029015   1.3217174930   0.5712525458
 FRAGNAME=H2ORHF
 ZO1               1.6617436400   1.1793680200  -1.5446307700
 ZH2               0.7544680408   1.3270769165  -1.7589005135
 ZH3               1.9378977781   0.4244655185  -2.0393423621
  
  NTS    =                  306
  PCM ASC=      0.0013636398
  GELEC  =     -0.0363564055

                 --------------------------------------
                 FRAGMENT-FRAGMENT INTERACTION ENERGIES
                 --------------------------------------

                 CHARGE-CHARGE         =  -0.0416582382
                 CHARGE-DIPOLE         =  -0.0280829694
                 CHARGE-QUADRUPOLE     =  -0.0178977676
                 CHARGE-OCTUPOLE       =  -0.0000094187
                 DIPOLE-DIPOLE         =  -0.0052026218
                 DIPOLE-QUADRUPOLE     =  -0.0024849515
                 QUADRUPOLE-QUADRUPOLE =  -0.0039865446
                 OVERLAP PEN. ENERGY   =   0.0000000000
                                         --------------
                 ELECTROSTATIC ENERGY  =  -0.0993225118
                 REPULSION ENERGY      =   0.0254804749
                 POLARIZATION ENERGY   =  -0.0156750251
                 --------------------------------------
                 FINAL EFPPCM ENERGY   =  -0.1258734675


          ----------------------------------------
          EFFECTIVE FRAGMENT ELECTROSTATIC MOMENTS
          ----------------------------------------

 FRAGMENT   1  H2ORHF
          X           Y           Z (BOHR)    CHARGE
    -2.634436   -2.774496   -3.185204       -0.00 (A.U.)
         DX          DY          DZ         /D/  (DEBYE)
    -1.653598    1.602349    1.279080    2.633999

 FRAGMENT   2  H2ORHF
          X           Y           Z (BOHR)    CHARGE
    -2.841282   -3.025246    2.573218       -0.00 (A.U.)
         DX          DY          DZ         /D/  (DEBYE)
     1.304126   -1.465113    1.743496    2.624325

 FRAGMENT   3  H2ORHF
          X           Y           Z (BOHR)    CHARGE
     2.924915   -2.958683    2.739244       -0.00 (A.U.)
         DX          DY          DZ         /D/  (DEBYE)
     1.826199    1.296716   -1.366335    2.623613

 FRAGMENT   4  H2ORHF
          X           Y           Z (BOHR)    CHARGE
     3.073503   -3.587187   -2.993900       -0.00 (A.U.)
         DX          DY          DZ         /D/  (DEBYE)
    -1.481386   -1.405344   -1.671838    2.639041

 FRAGMENT   5  H2ORHF
          X           Y           Z (BOHR)    CHARGE
    -2.634436    2.977167   -3.185204       -0.00 (A.U.)
         DX          DY          DZ         /D/  (DEBYE)
    -1.656827    1.582801    1.301182    2.635035

 FRAGMENT   6  H2ORHF
          X           Y           Z (BOHR)    CHARGE
    -2.841282    2.726417    2.573218       -0.00 (A.U.)
         DX          DY          DZ         /D/  (DEBYE)
     1.282100   -1.497728    1.742926    2.631494

 FRAGMENT   7  H2ORHF
          X           Y           Z (BOHR)    CHARGE
     2.924915    2.792980    2.739244       -0.00 (A.U.)
         DX          DY          DZ         /D/  (DEBYE)
     1.824209    1.261468   -1.390648    2.617813

 FRAGMENT   8  H2ORHF
          X           Y           Z (BOHR)    CHARGE
     3.073503    2.164475   -2.993900       -0.00 (A.U.)
         DX          DY          DZ         /D/  (DEBYE)
    -1.468515   -1.400003   -1.661451    2.622397

          ----------------------------
          SYSTEM ELECTROSTATIC MOMENTS
          ----------------------------

 CENTER              X           Y           Z (BOHR)    CHARGE
                0.130675   -0.210572   -0.216661       -0.00 (A.U.)
         DX          DY          DZ         /D/  (DEBYE)
    -0.023691   -0.024854   -0.023586    0.041657


 .... DONE WITH PCM CONTRIBUTION TO GRADIENT ....
 STEP CPU TIME =     0.16 TOTAL CPU TIME =        0.2 (    0.0 MIN)
 TOTAL WALL CLOCK TIME=        0.2 SECONDS, CPU UTILIZATION IS  94.74%

                     -----------------------------
                     FRAGMENT GRADIENT INFORMATION
                     -----------------------------


      FRAGMENT NO.    1     E'X               E'Y               E'Z 
      TOTALS          -0.003210614       0.001722195      -0.002764951
      TORQUE           0.001881563       0.000790387       0.006206840

      FRAGMENT NO.    2     E'X               E'Y               E'Z 
      TOTALS          -0.002684807       0.003317613       0.001966886
      TORQUE          -0.000599462      -0.001247406      -0.000898687

      FRAGMENT NO.    3     E'X               E'Y               E'Z 
      TOTALS           0.003022594       0.002780525       0.002627475
      TORQUE          -0.002464619       0.001734554      -0.006410460

      FRAGMENT NO.    4     E'X               E'Y               E'Z 
      TOTALS           0.003146917       0.002509697      -0.001929632
      TORQUE          -0.000144844      -0.001787520      -0.001238406

      FRAGMENT NO.    5     E'X               E'Y               E'Z 
      TOTALS          -0.001085131      -0.001251950      -0.001929583
      TORQUE          -0.000084482      -0.001649723       0.000261121

      FRAGMENT NO.    6     E'X               E'Y               E'Z 
      TOTALS          -0.001040785      -0.003403804       0.002172746
      TORQUE          -0.006865114       0.000171710       0.000837590

      FRAGMENT NO.    7     E'X               E'Y               E'Z 
      TOTALS           0.001125419      -0.002595589       0.001620603
      TORQUE           0.000368861      -0.001445636      -0.000981175

      FRAGMENT NO.    8     E'X               E'Y               E'Z 
      TOTALS           0.000726407      -0.003078687      -0.001763543
      TORQUE           0.006144185       0.000423719      -0.001174355

      TOTAL FORCE ON ALL FRAGMENTS
      FORCE            0.000000000      -0.000000000      -0.000000000

          NSERCH=  0     ENERGY=      -0.1258735
  EFP           TOTAL GRADIENT                           TORQUES
    1  -0.0032089  0.0017114 -0.0027572     0.0018849  0.0007963  0.0062143
    2  -0.0026472  0.0032860  0.0019751    -0.0005961 -0.0012415 -0.0008912
    3   0.0030607  0.0027916  0.0026017    -0.0024613  0.0017405 -0.0064030
    4   0.0031558  0.0025411 -0.0019583    -0.0001415 -0.0017816 -0.0012309
    5  -0.0011266 -0.0012628 -0.0019026    -0.0000811 -0.0016438  0.0002686
    6  -0.0010463 -0.0034355  0.0022002    -0.0068618  0.0001776  0.0008451
    7   0.0011204 -0.0025845  0.0016141     0.0003722 -0.0014397 -0.0009737
    8   0.0006921 -0.0030473 -0.0017730     0.0061475  0.0004296 -0.0011668

          MAXIMUM GRADIENT = 0.0068618    RMS GRADIENT = 0.0026132

 NSERCH:   0  E=       -0.1258734675  GRAD. MAX=  0.0068618  R.M.S.=  0.0026132

          FORCE CONSTANT MATRIX NOT UPDATED --- TAKING FIRST STEP
          MIN SEARCH, CORRECT HESSIAN, TRYING PURE NR STEP
               NR STEP HAS LENGTH         =   1.368766
          TRIM/QA LAMBDA FOR NON-TS MODES =  -0.04352861
          TRIM/QA STEP HAS LENGTH         =   0.300000
          RADIUS OF STEP TAKEN=   0.30000  CURRENT TRUST RADIUS=   0.30000

 BEGINNING GEOMETRY SEARCH POINT NSERCH=   1 ...

  
 COORDINATES OF FRAGMENT MULTIPOLE CENTERS (ANGS)
 MULTIPOLE NAME        X              Y              Z
 ------------------------------------------------------------
 FRAGNAME=H2ORHF
 ZO1              -1.3361629743  -1.5239442114  -1.6947835136
 ZH2              -1.7256367109  -0.7613186061  -2.0917606523
 ZH3              -1.5722580913  -1.5046746409  -0.7811280897
 FRAGNAME=H2ORHF
 ZO1              -1.5174167962  -1.5878439958   1.3070704015
 ZH2              -0.5938587338  -1.5348483411   1.4944481484
 ZH3              -1.8634527130  -2.2835632614   1.8428990138
 FRAGNAME=H2ORHF
 ZO1               1.4850910249  -1.6229624348   1.4615733244
 ZH2               1.9592166404  -0.8945712177   1.8297167608
 ZH3               1.7363623702  -1.6790948176   0.5535037672
 FRAGNAME=H2ORHF
 ZO1               1.6398679152  -1.8816103361  -1.5316115713
 ZH2               0.7229433119  -1.7540231197  -1.7155931687
 ZH3               1.9165867699  -2.6290010148  -2.0372916113
 FRAGNAME=H2ORHF
 ZO1              -1.3476820560   1.5460325675  -1.7046165203
 ZH2              -1.8363166800   2.2744879286  -2.0531383204
 ZH3              -1.5412783163   1.5062420514  -0.7816779216
 FRAGNAME=H2ORHF
 ZO1              -1.5263066947   1.5086987189   1.3092444523
 ZH2              -0.6069353994   1.5075909167   1.5228647888
 ZH3              -1.9088378542   0.7687384657   1.7530993720
 FRAGNAME=H2ORHF
 ZO1               1.4977768398   1.4643541211   1.4728684995
 ZH2               2.0627718817   2.1586634220   1.7721904858
 ZH3               1.6869291098   1.3364657809   0.5570385779
 FRAGNAME=H2ORHF
 ZO1               1.6561294497   1.2053323898  -1.5361396379
 ZH2               0.7479989392   1.3083366388  -1.7718673510
 ZH3               1.9524152767   0.4057177773  -1.9407501100
  
  NTS    =                  306
  PCM ASC=      0.0011454634
  GELEC  =     -0.0359376748

                 --------------------------------------
                 FRAGMENT-FRAGMENT INTERACTION ENERGIES
                 --------------------------------------

                 CHARGE-CHARGE         =  -0.0438480758
                 CHARGE-DIPOLE         =  -0.0290540611
                 CHARGE-QUADRUPOLE     =  -0.0196731628
                 CHARGE-OCTUPOLE       =   0.0000023298
                 DIPOLE-DIPOLE         =  -0.0052956530
                 DIPOLE-QUADRUPOLE     =  -0.0027950516
                 QUADRUPOLE-QUADRUPOLE =  -0.0042921270
                 OVERLAP PEN. ENERGY   =   0.0000000000
                                         --------------
                 ELECTROSTATIC ENERGY  =  -0.1049558016
                 REPULSION ENERGY      =   0.0276172906
                 POLARIZATION ENERGY   =  -0.0171068493
                 --------------------------------------
                 FINAL EFPPCM ENERGY   =  -0.1303830351


          ----------------------------------------
          EFFECTIVE FRAGMENT ELECTROSTATIC MOMENTS
          ----------------------------------------

 FRAGMENT   1  H2ORHF
          X           Y           Z (BOHR)    CHARGE
    -2.591132   -2.797156   -3.148041       -0.00 (A.U.)
         DX          DY          DZ         /D/  (DEBYE)
    -1.495964    1.816305    1.207851    2.644953

 FRAGMENT   2  H2ORHF
          X           Y           Z (BOHR)    CHARGE
    -2.806432   -3.068554    2.546480       -0.00 (A.U.)
         DX          DY          DZ         /D/  (DEBYE)
     1.369042   -1.489294    1.715858    2.652629

 FRAGMENT   3  H2ORHF
          X           Y           Z (BOHR)    CHARGE
     2.883122   -2.995867    2.704879       -0.00 (A.U.)
         DX          DY          DZ         /D/  (DEBYE)
     1.718786    1.547279   -1.261562    2.634357

 FRAGMENT   4  H2ORHF
          X           Y           Z (BOHR)    CHARGE
     3.031203   -3.621269   -2.967254       -0.00 (A.U.)
         DX          DY          DZ         /D/  (DEBYE)
    -1.510418   -1.454635   -1.641516    2.663062

 FRAGMENT   5  H2ORHF
          X           Y           Z (BOHR)    CHARGE
    -2.618892    2.994400   -3.160517       -0.00 (A.U.)
         DX          DY          DZ         /D/  (DEBYE)
    -1.622017    1.612474    1.352072    2.656899

 FRAGMENT   6  H2ORHF
          X           Y           Z (BOHR)    CHARGE
    -2.827534    2.772663    2.543637       -0.00 (A.U.)
         DX          DY          DZ         /D/  (DEBYE)
     1.252596   -1.713710    1.564373    2.636866

 FRAGMENT   7  H2ORHF
          X           Y           Z (BOHR)    CHARGE
     2.910135    2.827124    2.718126       -0.00 (A.U.)
         DX          DY          DZ         /D/  (DEBYE)
     1.782215    1.306959   -1.445792    2.640975

 FRAGMENT   8  H2ORHF
          X           Y           Z (BOHR)    CHARGE
     3.064932    2.204085   -2.970595       -0.00 (A.U.)
         DX          DY          DZ         /D/  (DEBYE)
    -1.426350   -1.599933   -1.519792    2.627551

          ----------------------------
          SYSTEM ELECTROSTATIC MOMENTS
          ----------------------------

 CENTER              X           Y           Z (BOHR)    CHARGE
                0.130675   -0.210572   -0.216661       -0.00 (A.U.)
         DX          DY          DZ         /D/  (DEBYE)
     0.067891    0.025447   -0.028507    0.077906


 .... DONE WITH PCM CONTRIBUTION TO GRADIENT ....
 STEP CPU TIME =     0.13 TOTAL CPU TIME =        0.3 (    0.0 MIN)
 TOTAL WALL CLOCK TIME=        0.3 SECONDS, CPU UTILIZATION IS  96.88%

          NSERCH=  1     ENERGY=      -0.1303830
  EFP           TOTAL GRADIENT                           TORQUES
    1  -0.0026722  0.0008791 -0.0024137    -0.0004102  0.0003224  0.0035541
    2  -0.0032318  0.0029138  0.0024525    -0.0011100 -0.0005120  0.0018945
    3   0.0026419  0.0013110  0.0019280    -0.0001559  0.0002249 -0.0033170
    4   0.0034496  0.0018875 -0.0019605     0.0005237 -0.0005618 -0.0024037
    5  -0.0010702 -0.0004100 -0.0018940     0.0019073 -0.0005490  0.0007763
    6  -0.0004427 -0.0029923  0.0013504    -0.0048182  0.0005682 -0.0005225
    7   0.0012023 -0.0013271  0.0018925    -0.0015641 -0.0004717 -0.0014463
    8   0.0001232 -0.0022619 -0.0013552     0.0040364  0.0002110 -0.0000976

          MAXIMUM GRADIENT = 0.0048182    RMS GRADIENT = 0.0019628

 NSERCH:   1  E=       -0.1303830351  GRAD. MAX=  0.0048182  R.M.S.=  0.0019628

          HESSIAN UPDATED USING THE BFGS FORMULA
             ACTUAL ENERGY CHANGE WAS  -0.0045095677
          PREDICTED ENERGY CHANGE WAS  -0.0046424957 RATIO=  0.971
          MIN SEARCH, CORRECT HESSIAN, TRYING PURE NR STEP
               NR STEP HAS LENGTH         =   2.315331
          TRIM/QA LAMBDA FOR NON-TS MODES =  -0.02044040
          TRIM/QA STEP HAS LENGTH         =   0.500000
          RADIUS OF STEP TAKEN=   0.50000  CURRENT TRUST RADIUS=   0.50000

 BEGINNING GEOMETRY SEARCH POINT NSERCH=   2 ...

  
 COORDINATES OF FRAGMENT MULTIPOLE CENTERS (ANGS)
 MULTIPOLE NAME        X              Y              Z
 ------------------------------------------------------------
 FRAGNAME=H2ORHF
 ZO1              -1.2951430800  -1.5437403074  -1.6533702234
 ZH2              -1.5748216780  -0.7236811641  -2.0277514963
 ZH3              -1.5379549218  -1.5225002009  -0.7415206079
 FRAGNAME=H2ORHF
 ZO1              -1.4595995545  -1.6331469558   1.2683806155
 ZH2              -0.5326988751  -1.6809956478   1.4399734104
 ZH3              -1.8651271439  -2.3179717595   1.7757668752
 FRAGNAME=H2ORHF
 ZO1               1.4438997033  -1.6518485657   1.4278335889
 ZH2               1.8266965340  -0.8684522394   1.7892685573
 ZH3               1.7000818591  -1.6850344432   0.5200076944
 FRAGNAME=H2ORHF
 ZO1               1.5777499820  -1.9101893829  -1.4995908877
 ZH2               0.6497499284  -1.8884977913  -1.6705406742
 ZH3               1.9271637493  -2.6365324587  -1.9907265202
 FRAGNAME=H2ORHF
 ZO1              -1.3315823368   1.5503150223  -1.6693593170
 ZH2              -1.8005927086   2.2606634551  -2.0771740166
 ZH3              -1.5095722112   1.6036113333  -0.7439634223
 FRAGNAME=H2ORHF
 ZO1              -1.5182384135   1.5659328082   1.2924736599
 ZH2              -0.6045129205   1.5498607662   1.5285369291
 ZH3              -1.8863981374   0.7446956659   1.5769142123
 FRAGNAME=H2ORHF
 ZO1               1.4803629280   1.4841222875   1.4390786706
 ZH2               2.0052123106   2.1882847721   1.7848629601
 ZH3               1.6618677688   1.4395241341   0.5139054698
 FRAGNAME=H2ORHF
 ZO1               1.6526713409   1.2497759984  -1.5192534246
 ZH2               0.7465384965   1.3158826799  -1.7750494941
 ZH3               1.9496839240   0.3960745439  -1.7910176718
  
  NTS    =                  298
  PCM ASC=      0.0006593183
  GELEC  =     -0.0344779217

                 --------------------------------------
                 FRAGMENT-FRAGMENT INTERACTION ENERGIES
                 --------------------------------------

                 CHARGE-CHARGE         =  -0.0472706705
                 CHARGE-DIPOLE         =  -0.0309076612
                 CHARGE-QUADRUPOLE     =  -0.0226223860
                 CHARGE-OCTUPOLE       =   0.0000033504
                 DIPOLE-DIPOLE         =  -0.0055292512
                 DIPOLE-QUADRUPOLE     =  -0.0033340393
                 QUADRUPOLE-QUADRUPOLE =  -0.0048663837
                 OVERLAP PEN. ENERGY   =   0.0000000000
                                         --------------
                 ELECTROSTATIC ENERGY  =  -0.1145270414
                 REPULSION ENERGY      =   0.0345834344
                 POLARIZATION ENERGY   =  -0.0200929804
                 --------------------------------------
                 FINAL EFPPCM ENERGY   =  -0.1345145091


          ----------------------------------------
          EFFECTIVE FRAGMENT ELECTROSTATIC MOMENTS
          ----------------------------------------

 FRAGMENT   1  H2ORHF
          X           Y           Z (BOHR)    CHARGE
    -2.502716   -2.828284   -3.067582       -0.00 (A.U.)
         DX          DY          DZ         /D/  (DEBYE)
    -1.288264    1.964277    1.290875    2.680367

 FRAGMENT   2  H2ORHF
          X           Y           Z (BOHR)    CHARGE
    -2.703111   -3.163676    2.468690       -0.00 (A.U.)
         DX          DY          DZ         /D/  (DEBYE)
     1.279844   -1.713692    1.643422    2.697328

 FRAGMENT   3  H2ORHF
          X           Y           Z (BOHR)    CHARGE
     2.796143   -3.042211    2.640437       -0.00 (A.U.)
         DX          DY          DZ         /D/  (DEBYE)
     1.553470    1.733254   -1.304738    2.668292

 FRAGMENT   4  H2ORHF
          X           Y           Z (BOHR)    CHARGE
     2.920333   -3.684247   -2.903828       -0.00 (A.U.)
         DX          DY          DZ         /D/  (DEBYE)
    -1.408766   -1.659112   -1.601238    2.702080

 FRAGMENT   5  H2ORHF
          X           Y           Z (BOHR)    CHARGE
    -2.584742    3.010422   -3.099900       -0.00 (A.U.)
         DX          DY          DZ         /D/  (DEBYE)
    -1.554029    1.804297    1.242659    2.686018

 FRAGMENT   6  H2ORHF
          X           Y           Z (BOHR)    CHARGE
    -2.811364    2.870643    2.497461       -0.00 (A.U.)
         DX          DY          DZ         /D/  (DEBYE)
     1.292019   -1.930620    1.268595    2.646873

 FRAGMENT   7  H2ORHF
          X           Y           Z (BOHR)    CHARGE
     2.872173    2.874330    2.658197       -0.00 (A.U.)
         DX          DY          DZ         /D/  (DEBYE)
     1.684403    1.530803   -1.381990    2.662794

 FRAGMENT   8  H2ORHF
          X           Y           Z (BOHR)    CHARGE
     3.058685    2.278451   -2.926759       -0.00 (A.U.)
         DX          DY          DZ         /D/  (DEBYE)
    -1.433441   -1.811545   -1.280479    2.641226

          ----------------------------
          SYSTEM ELECTROSTATIC MOMENTS
          ----------------------------

 CENTER              X           Y           Z (BOHR)    CHARGE
                0.130675   -0.210572   -0.216661       -0.00 (A.U.)
         DX          DY          DZ         /D/  (DEBYE)
     0.125236   -0.082338   -0.122895    0.193822


 .... DONE WITH PCM CONTRIBUTION TO GRADIENT ....
 STEP CPU TIME =     0.14 TOTAL CPU TIME =        0.4 (    0.0 MIN)
 TOTAL WALL CLOCK TIME=        0.5 SECONDS, CPU UTILIZATION IS  97.83%

          NSERCH=  2     ENERGY=      -0.1345145
  EFP           TOTAL GRADIENT                           TORQUES
    1  -0.0014612 -0.0000369 -0.0014620    -0.0013616 -0.0006717  0.0023743
    2  -0.0006489 -0.0017557  0.0006052    -0.0006731  0.0001757 -0.0001967
    3   0.0016272  0.0002778  0.0013096     0.0008424 -0.0005819 -0.0021692
    4   0.0007531 -0.0021289 -0.0004920     0.0002476  0.0000091  0.0000851
    5  -0.0010121  0.0005658 -0.0010841     0.0016380 -0.0005448  0.0000734
    6  -0.0015101  0.0018777  0.0020104    -0.0011880 -0.0014008 -0.0001708
    7   0.0010602 -0.0001964  0.0011108    -0.0009151 -0.0007666 -0.0002582
    8   0.0011917  0.0013965 -0.0019979     0.0012329 -0.0014282  0.0007396

          MAXIMUM GRADIENT = 0.0023743    RMS GRADIENT = 0.0011755

 NSERCH:   2  E=       -0.1345145091  GRAD. MAX=  0.0023743  R.M.S.=  0.0011755

          HESSIAN UPDATED USING THE BFGS FORMULA
             ACTUAL ENERGY CHANGE WAS  -0.0041314740
          PREDICTED ENERGY CHANGE WAS  -0.0059178140 RATIO=  0.698
          MIN SEARCH, CORRECT HESSIAN, TRYING PURE NR STEP
               NR STEP HAS LENGTH         =   0.808181
          TRIM/QA LAMBDA FOR NON-TS MODES =  -0.00504777
          TRIM/QA STEP HAS LENGTH         =   0.500000
          RADIUS OF STEP TAKEN=   0.50000  CURRENT TRUST RADIUS=   0.50000

 BEGINNING GEOMETRY SEARCH POINT NSERCH=   3 ...

  
 COORDINATES OF FRAGMENT MULTIPOLE CENTERS (ANGS)
 MULTIPOLE NAME        X              Y              Z
 ------------------------------------------------------------
 FRAGNAME=H2ORHF
 ZO1              -1.2598014205  -1.5505262663  -1.6204613532
 ZH2              -1.3880822071  -0.6527678349  -1.8820952438
 ZH3              -1.4594593435  -1.5957454275  -0.6990654582
 FRAGNAME=H2ORHF
 ZO1              -1.4284496844  -1.6198234440   1.2417215804
 ZH2              -0.5049851815  -1.6840406950   1.4260254347
 ZH3              -1.8465589229  -2.3315851220   1.6993878699
 FRAGNAME=H2ORHF
 ZO1               1.4051211455  -1.6692080041   1.3987275964
 ZH2               1.6589014795  -0.8062834036   1.6847959972
 ZH3               1.6269573586  -1.7276566333   0.4831671634
 FRAGNAME=H2ORHF
 ZO1               1.5440956616  -1.8847670968  -1.4769768582
 ZH2               0.6169369687  -1.8792151367  -1.6536810971
 ZH3               1.9056754109  -2.6183282165  -1.9481738686
 FRAGNAME=H2ORHF
 ZO1              -1.3071278680   1.5390738280  -1.6353424426
 ZH2              -1.7848029319   2.1904774360  -2.1235824724
 ZH3              -1.4497676904   1.7264679176  -0.7213316164
 FRAGNAME=H2ORHF
 ZO1              -1.4955804444   1.5553326888   1.2554016961
 ZH2              -0.5629671867   1.5385081595   1.3997204432
 ZH3              -1.8203855503   0.6981019931   1.4802030117
 FRAGNAME=H2ORHF
 ZO1               1.4549292207   1.4930303139   1.4091923715
 ZH2               1.9775597600   2.1822231961   1.7870136845
 ZH3               1.5870832268   1.5331550412   0.4754880398
 FRAGNAME=H2ORHF
 ZO1               1.6384162859   1.2427514021  -1.4832854997
 ZH2               0.7151235046   1.3385025528  -1.6542843629
 ZH3               1.8605616803   0.3481449419  -1.6862858921
  
  NTS    =                  290
  PCM ASC=      0.0004831873
  GELEC  =     -0.0332468161

                 --------------------------------------
                 FRAGMENT-FRAGMENT INTERACTION ENERGIES
                 --------------------------------------

                 CHARGE-CHARGE         =  -0.0515179313
                 CHARGE-DIPOLE         =  -0.0314918320
                 CHARGE-QUADRUPOLE     =  -0.0271907920
                 CHARGE-OCTUPOLE       =   0.0001178831
                 DIPOLE-DIPOLE         =  -0.0055518568
                 DIPOLE-QUADRUPOLE     =  -0.0038086486
                 QUADRUPOLE-QUADRUPOLE =  -0.0056434739
                 OVERLAP PEN. ENERGY   =   0.0000000000
                                         --------------
                 ELECTROSTATIC ENERGY  =  -0.1250866515
                 REPULSION ENERGY      =   0.0458730999
                 POLARIZATION ENERGY   =  -0.0232963614
                 --------------------------------------
                 FINAL EFPPCM ENERGY   =  -0.1357567291


          ----------------------------------------
          EFFECTIVE FRAGMENT ELECTROSTATIC MOMENTS
          ----------------------------------------

 FRAGMENT   1  H2ORHF
          X           Y           Z (BOHR)    CHARGE
    -2.415357   -2.839919   -2.992462       -0.00 (A.U.)
         DX          DY          DZ         /D/  (DEBYE)
    -0.873482    1.990507    1.604804    2.701941

 FRAGMENT   2  H2ORHF
          X           Y           Z (BOHR)    CHARGE
    -2.645940   -3.143078    2.414398       -0.00 (A.U.)
         DX          DY          DZ         /D/  (DEBYE)
     1.253407   -1.845192    1.596024    2.742818

 FRAGMENT   3  H2ORHF
          X           Y           Z (BOHR)    CHARGE
     2.705588   -3.069277    2.576647       -0.00 (A.U.)
         DX          DY          DZ         /D/  (DEBYE)
     1.206394    1.844861   -1.525557    2.680713

 FRAGMENT   4  H2ORHF
          X           Y           Z (BOHR)    CHARGE
     2.858111   -3.638676   -2.859593       -0.00 (A.U.)
         DX          DY          DZ         /D/  (DEBYE)
    -1.390587   -1.753082   -1.605872    2.754243

 FRAGMENT   5  H2ORHF
          X           Y           Z (BOHR)    CHARGE
    -2.535708    2.997126   -3.045326       -0.00 (A.U.)
         DX          DY          DZ         /D/  (DEBYE)
    -1.537483    2.023593    1.028020    2.741461

 FRAGMENT   6  H2ORHF
          X           Y           Z (BOHR)    CHARGE
    -2.761965    2.846726    2.411398       -0.00 (A.U.)
         DX          DY          DZ         /D/  (DEBYE)
     1.420119   -2.029355    0.941440    2.649779

 FRAGMENT   7  H2ORHF
          X           Y           Z (BOHR)    CHARGE
     2.818657    2.898539    2.604206       -0.00 (A.U.)
         DX          DY          DZ         /D/  (DEBYE)
     1.611018    1.733896   -1.316427    2.708276

 FRAGMENT   8  H2ORHF
          X           Y           Z (BOHR)    CHARGE
     3.022016    2.263985   -2.842551       -0.00 (A.U.)
         DX          DY          DZ         /D/  (DEBYE)
    -1.627810   -1.852374   -0.952269    2.643459

          ----------------------------
          SYSTEM ELECTROSTATIC MOMENTS
          ----------------------------

 CENTER              X           Y           Z (BOHR)    CHARGE
                0.130675   -0.210572   -0.216661       -0.00 (A.U.)
         DX          DY          DZ         /D/  (DEBYE)
     0.061575    0.112855   -0.229839    0.263351


 .... DONE WITH PCM CONTRIBUTION TO GRADIENT ....
 STEP CPU TIME =     0.14 TOTAL CPU TIME =        0.6 (    0.0 MIN)
 TOTAL WALL CLOCK TIME=        0.6 SECONDS, CPU UTILIZATION IS  98.33%

          NSERCH=  3     ENERGY=      -0.1357567
  EFP           TOTAL GRADIENT                           TORQUES
    1   0.0007081 -0.0026207 -0.0005417    -0.0005847  0.0006110 -0.0011795
    2   0.0004135 -0.0008223 -0.0002893     0.0002265  0.0004135  0.0025124
    3  -0.0002960 -0.0021777  0.0003738     0.0012144 -0.0001839  0.0010013
    4  -0.0001559 -0.0014651  0.0001612     0.0001195  0.0009235 -0.0030369
    5   0.0000715  0.0022938 -0.0006378    -0.0008530  0.0055519 -0.0008965
    6  -0.0019277  0.0015530 -0.0005789    -0.0006778  0.0056073 -0.0000518
    7  -0.0006035  0.0018200  0.0012170    -0.0000791  0.0063073 -0.0002877
    8   0.0017900  0.0014190  0.0002956     0.0011837  0.0048186 -0.0006042

          MAXIMUM GRADIENT = 0.0063073    RMS GRADIENT = 0.0019828

 NSERCH:   3  E=       -0.1357567291  GRAD. MAX=  0.0063073  R.M.S.=  0.0019828

          HESSIAN UPDATED USING THE BFGS FORMULA
             ACTUAL ENERGY CHANGE WAS  -0.0012422200
          PREDICTED ENERGY CHANGE WAS  -0.0024598917 RATIO=  0.505
          MIN SEARCH, CORRECT HESSIAN, TRYING PURE NR STEP
               NR STEP HAS LENGTH         =   0.892324
[...]
 ZH3              -1.5245440667  -1.5611020330  -0.6944414009
 FRAGNAME=H2ORHF
 ZO1              -1.4846266846  -1.5903170427   1.2921555440
 ZH2              -0.5785140423  -1.7597800194   1.4949377745
 ZH3              -1.9963825110  -2.1766313352   1.8262154458
 FRAGNAME=H2ORHF
 ZO1               1.3396935586  -1.4936695686   1.4175646813
 ZH2               1.4849959461  -0.5764613468   1.5863685560
 ZH3               1.5529317778  -1.6395395733   0.5097486990
 FRAGNAME=H2ORHF
 ZO1               1.5080090030  -1.7361854716  -1.4710059679
 ZH2               0.5913224918  -1.8410067379  -1.6699451456
 ZH3               1.9713109346  -2.3841435550  -1.9773458700
 FRAGNAME=H2ORHF
 ZO1              -1.2572726135   1.4618320477  -1.6346292101
 ZH2              -1.7721007935   2.0764858241  -2.1326564527
 ZH3              -1.4658716941   1.6070530483  -0.7256321042
 FRAGNAME=H2ORHF
 ZO1              -1.4023491785   1.3129180062   1.1938571019
 ZH2              -0.4889028706   1.4315615951   1.3998133971
 ZH3              -1.5907214690   0.3959222516   1.3143275147
 FRAGNAME=H2ORHF
 ZO1               1.5032219777   1.4247691133   1.3586815335
 ZH2               2.0446082964   2.0266684847   1.8439613030
 ZH3               1.7269305405   1.5323438819   0.4480440633
 FRAGNAME=H2ORHF
 ZO1               1.6462117526   1.1847782618  -1.4700740252
 ZH2               0.7422994645   1.3550562101  -1.6817966025
 ZH3               1.7756727168   0.2543375718  -1.5617170025
  
  NTS    =                  281
  PCM ASC=      0.0006088173
  GELEC  =     -0.0329214447

                 --------------------------------------
                 FRAGMENT-FRAGMENT INTERACTION ENERGIES
                 --------------------------------------

                 CHARGE-CHARGE         =  -0.0565023101
                 CHARGE-DIPOLE         =  -0.0352677352
                 CHARGE-QUADRUPOLE     =  -0.0298121767
                 CHARGE-OCTUPOLE       =   0.0000547640
                 DIPOLE-DIPOLE         =  -0.0059634157
                 DIPOLE-QUADRUPOLE     =  -0.0047781632
                 QUADRUPOLE-QUADRUPOLE =  -0.0060697635
                 OVERLAP PEN. ENERGY   =   0.0000000000
                                         --------------
                 ELECTROSTATIC ENERGY  =  -0.1383388004
                 REPULSION ENERGY      =   0.0595544075
                 POLARIZATION ENERGY   =  -0.0275185384
                 --------------------------------------
                 FINAL EFPPCM ENERGY   =  -0.1392243760


          ----------------------------------------
          EFFECTIVE FRAGMENT ELECTROSTATIC MOMENTS
          ----------------------------------------

 FRAGMENT   1  H2ORHF
          X           Y           Z (BOHR)    CHARGE
    -2.486906   -2.663230   -2.956784       -0.00 (A.U.)
         DX          DY          DZ         /D/  (DEBYE)
    -0.810739    1.942278    1.704415    2.708278

 FRAGMENT   2  H2ORHF
          X           Y           Z (BOHR)    CHARGE
    -2.763837   -3.085183    2.519737       -0.00 (A.U.)
         DX          DY          DZ         /D/  (DEBYE)
     0.999440   -1.879223    1.832472    2.808615

 FRAGMENT   3  H2ORHF
          X           Y           Z (BOHR)    CHARGE
     2.569567   -2.741062    2.600663       -0.00 (A.U.)
         DX          DY          DZ         /D/  (DEBYE)
     0.932661    1.831897   -1.759120    2.705588

 FRAGMENT   4  H2ORHF
          X           Y           Z (BOHR)    CHARGE
     2.801781   -3.360517   -2.854377       -0.00 (A.U.)
         DX          DY          DZ         /D/  (DEBYE)
    -1.145272   -1.863538   -1.753268    2.803279

 FRAGMENT   5  H2ORHF
          X           Y           Z (BOHR)    CHARGE
    -2.452399    2.842814   -3.045544       -0.00 (A.U.)
         DX          DY          DZ         /D/  (DEBYE)
    -1.790018    1.881808    1.035273    2.795917

 FRAGMENT   6  H2ORHF
          X           Y           Z (BOHR)    CHARGE
    -2.573383    2.396634    2.290581       -0.00 (A.U.)
         DX          DY          DZ         /D/  (DEBYE)
     1.721492   -1.901190    0.855370    2.703649

 FRAGMENT   7  H2ORHF
          X           Y           Z (BOHR)    CHARGE
     2.921582    2.767446    2.522557       -0.00 (A.U.)
         DX          DY          DZ         /D/  (DEBYE)
     1.896722    1.754671   -1.069415    2.796439

 FRAGMENT   8  H2ORHF
          X           Y           Z (BOHR)    CHARGE
     3.028995    2.158523   -2.810116       -0.00 (A.U.)
         DX          DY          DZ         /D/  (DEBYE)
    -1.836555   -1.807436   -0.797637    2.697403

          ----------------------------
          SYSTEM ELECTROSTATIC MOMENTS
          ----------------------------

 CENTER              X           Y           Z (BOHR)    CHARGE
                0.130675   -0.210572   -0.216661       -0.00 (A.U.)
         DX          DY          DZ         /D/  (DEBYE)
    -0.032269   -0.040733    0.048091    0.070804


 .... DONE WITH PCM CONTRIBUTION TO GRADIENT ....
 STEP CPU TIME =     0.10 TOTAL CPU TIME =        3.5 (    0.1 MIN)
 TOTAL WALL CLOCK TIME=        3.5 SECONDS, CPU UTILIZATION IS 100.00%

          NSERCH= 29     ENERGY=      -0.1392244
  EFP           TOTAL GRADIENT                           TORQUES
    1   0.0000143  0.0000104  0.0000091     0.0000029 -0.0000200 -0.0000137
    2   0.0000119  0.0000220  0.0000107     0.0000088  0.0000180 -0.0000082
    3   0.0000077  0.0000074 -0.0000125    -0.0000023  0.0000177 -0.0000128
    4   0.0000181 -0.0000245 -0.0000300     0.0000028 -0.0000128 -0.0000064
    5  -0.0000092  0.0000220 -0.0000012    -0.0000055 -0.0000003  0.0000011
    6  -0.0000013 -0.0000148 -0.0000201     0.0000155 -0.0000021 -0.0000028
    7  -0.0000212  0.0000164  0.0000121     0.0000106  0.0000152 -0.0000045
    8  -0.0000204 -0.0000389  0.0000319     0.0000027  0.0000176 -0.0000200

          MAXIMUM GRADIENT = 0.0000389    RMS GRADIENT = 0.0000154

 NSERCH:  29  E=       -0.1392243760  GRAD. MAX=  0.0000389  R.M.S.=  0.0000154

          HESSIAN UPDATED USING THE BFGS FORMULA
             ACTUAL ENERGY CHANGE WAS  -0.0000072674
          PREDICTED ENERGY CHANGE WAS  -0.0000070543 RATIO=  1.030
          MIN SEARCH, CORRECT HESSIAN, TRYING PURE NR STEP
               NR STEP HAS LENGTH         =   0.006207
          RADIUS OF STEP TAKEN=   0.00621  CURRENT TRUST RADIUS=   0.05000

 BEGINNING GEOMETRY SEARCH POINT NSERCH=  30 ...

  
 COORDINATES OF FRAGMENT MULTIPOLE CENTERS (ANGS)
 MULTIPOLE NAME        X              Y              Z
 ------------------------------------------------------------
 FRAGNAME=H2ORHF
 ZO1              -1.2993916419  -1.4554207601  -1.6048853122
 ZH2              -1.3803897334  -0.5354429647  -1.7997150305
 ZH3              -1.5240165232  -1.5606599542  -0.6942004991
 FRAGNAME=H2ORHF
 ZO1              -1.4852648650  -1.5912623768   1.2919903435
 ZH2              -0.5793026576  -1.7604227694   1.4956952636
 ZH3              -1.9973938039  -2.1772360198   1.8260664557
 FRAGNAME=H2ORHF
 ZO1               1.3390980323  -1.4938591382   1.4180378193
 ZH2               1.4844637935  -0.5766463515   1.5867623090
 ZH3               1.5530970577  -1.6399827393   0.5104416732
 FRAGNAME=H2ORHF
 ZO1               1.5076943470  -1.7352912816  -1.4703287166
 ZH2               0.5908498764  -1.8396938166  -1.6687595143
 ZH3               1.9703801607  -2.3837489973  -1.9765923662
 FRAGNAME=H2ORHF
 ZO1              -1.2571753113   1.4613416082  -1.6347390044
 ZH2              -1.7718563493   2.0766646391  -2.1320914457
 ZH3              -1.4656995044   1.6056514799  -0.7255796257
 FRAGNAME=H2ORHF
 ZO1              -1.4018289694   1.3128725458   1.1940486604
 ZH2              -0.4882789587   1.4313312998   1.3996510814
 ZH3              -1.5905393705   0.3960615481   1.3153929354
 FRAGNAME=H2ORHF
 ZO1               1.5040673206   1.4247328415   1.3584403452
 ZH2               2.0448350453   2.0273219349   1.8435538438
 ZH3               1.7279481066   1.5320031467   0.4478092842
 FRAGNAME=H2ORHF
 ZO1               1.6467882229   1.1860963243  -1.4708441093
 ZH2               0.7427871485   1.3557985269  -1.6826498553
 ZH3               1.7770664977   0.2558509535  -1.5633080222
  
  NTS    =                  281
  PCM ASC=      0.0006095418
  GELEC  =     -0.0329164507

                 --------------------------------------
                 FRAGMENT-FRAGMENT INTERACTION ENERGIES
                 --------------------------------------

                 CHARGE-CHARGE         =  -0.0564872517
                 CHARGE-DIPOLE         =  -0.0352539143
                 CHARGE-QUADRUPOLE     =  -0.0298104187
                 CHARGE-OCTUPOLE       =   0.0000548019
                 DIPOLE-DIPOLE         =  -0.0059618100
                 DIPOLE-QUADRUPOLE     =  -0.0047753213
                 QUADRUPOLE-QUADRUPOLE =  -0.0060695926
                 OVERLAP PEN. ENERGY   =   0.0000000000
                                         --------------
                 ELECTROSTATIC ENERGY  =  -0.1383035068
                 REPULSION ENERGY      =   0.0594985712
                 POLARIZATION ENERGY   =  -0.0275032899
                 --------------------------------------
                 FINAL EFPPCM ENERGY   =  -0.1392246762


          ----------------------------------------
          EFFECTIVE FRAGMENT ELECTROSTATIC MOMENTS
          ----------------------------------------

 FRAGMENT   1  H2ORHF
          X           Y           Z (BOHR)    CHARGE
    -2.487812   -2.664193   -2.957096       -0.00 (A.U.)
         DX          DY          DZ         /D/  (DEBYE)
    -0.808992    1.943976    1.703154    2.708180

 FRAGMENT   2  H2ORHF
          X           Y           Z (BOHR)    CHARGE
    -2.765098   -3.086901    2.519524       -0.00 (A.U.)
         DX          DY          DZ         /D/  (DEBYE)
     0.997993   -1.877529    1.834685    2.808411

 FRAGMENT   3  H2ORHF
          X           Y           Z (BOHR)    CHARGE
     2.568529   -2.741446    2.601571       -0.00 (A.U.)
         DX          DY          DZ         /D/  (DEBYE)
     0.934532    1.831173   -1.759013    2.705674

 FRAGMENT   4  H2ORHF
          X           Y           Z (BOHR)    CHARGE
     2.801105   -3.358836   -2.853036       -0.00 (A.U.)
         DX          DY          DZ         /D/  (DEBYE)
    -1.147164   -1.863307   -1.751660    2.802893

 FRAGMENT   5  H2ORHF
          X           Y           Z (BOHR)    CHARGE
    -2.452192    2.841862   -3.045663       -0.00 (A.U.)
         DX          DY          DZ         /D/  (DEBYE)
    -1.789273    1.881000    1.037237    2.795625

 FRAGMENT   6  H2ORHF
          X           Y           Z (BOHR)    CHARGE
    -2.572425    2.396548    2.290998       -0.00 (A.U.)
         DX          DY          DZ         /D/  (DEBYE)
     1.720984   -1.900758    0.856557    2.703397

 FRAGMENT   7  H2ORHF
          X           Y           Z (BOHR)    CHARGE
     2.923132    2.767418    2.522084       -0.00 (A.U.)
         DX          DY          DZ         /D/  (DEBYE)
     1.895646    1.755516   -1.069764    2.796374

 FRAGMENT   8  H2ORHF
          X           Y           Z (BOHR)    CHARGE
     3.030162    2.160974   -2.811667       -0.00 (A.U.)
         DX          DY          DZ         /D/  (DEBYE)
    -1.834912   -1.808129   -0.799606    2.697333

          ----------------------------
          SYSTEM ELECTROSTATIC MOMENTS
          ----------------------------

 CENTER              X           Y           Z (BOHR)    CHARGE
                0.130675   -0.210572   -0.216661       -0.00 (A.U.)
         DX          DY          DZ         /D/  (DEBYE)
    -0.031187   -0.038059    0.051590    0.071293


 .... DONE WITH PCM CONTRIBUTION TO GRADIENT ....
 STEP CPU TIME =     0.08 TOTAL CPU TIME =        3.6 (    0.1 MIN)
 TOTAL WALL CLOCK TIME=        3.6 SECONDS, CPU UTILIZATION IS  99.72%

          NSERCH= 30     ENERGY=      -0.1392247
  EFP           TOTAL GRADIENT                           TORQUES
    1   0.0000208  0.0000104 -0.0000044    -0.0000241  0.0000287 -0.0000177
    2  -0.0000029 -0.0000014  0.0000159    -0.0000143 -0.0000079 -0.0000017
    3   0.0000116 -0.0000015 -0.0000245    -0.0000228 -0.0000187 -0.0000016
    4   0.0000077 -0.0000083 -0.0000092     0.0000032  0.0000127 -0.0000155
    5  -0.0000118  0.0000116 -0.0000012     0.0000298 -0.0000183 -0.0000020
    6  -0.0000044  0.0000080 -0.0000073    -0.0000054  0.0000004 -0.0000043
    7  -0.0000021  0.0000155  0.0000224    -0.0000158 -0.0000091  0.0000053
    8  -0.0000188 -0.0000343  0.0000084     0.0000327 -0.0000098 -0.0000005

          MAXIMUM GRADIENT = 0.0000343    RMS GRADIENT = 0.0000149

 NSERCH:  30  E=       -0.1392246762  GRAD. MAX=  0.0000343  R.M.S.=  0.0000149

          HESSIAN UPDATED USING THE BFGS FORMULA
             ACTUAL ENERGY CHANGE WAS  -0.0000003002
          PREDICTED ENERGY CHANGE WAS  -0.0000002771 RATIO=  1.083
          MIN SEARCH, CORRECT HESSIAN, TRYING PURE NR STEP
               NR STEP HAS LENGTH         =   0.013272
          RADIUS OF STEP TAKEN=   0.01327  CURRENT TRUST RADIUS=   0.05000

      ***** FAILURE TO LOCATE STATIONARY POINT, TOO MANY STEPS TAKEN *****
     UPDATED HESSIAN, GEOMETRY, AND VECTORS WILL BE PUNCHED FOR RESTART
 **** THE GEOMETRY SEARCH IS NOT CONVERGED! ****

 THE NEXT PREDICTED SET OF COORDINATES FOLLOWS.  THEIR
 ENERGY AND GRADIENT IS UNKNOWN.  YOU MAY PREFER TO RESTART
 WITH SOME OTHER COORDINATES THAN THESE.

 YOU SHOULD RESTART "OPTIMIZE" RUNS WITH THE COORDINATES
 WHOSE ENERGY IS LOWEST.  RESTART "SADPOINT" RUNS WITH THE
 COORDINATES WHOSE RMS GRADIENT IS SMALLEST.  THESE ARE NOT
 ALWAYS THE LAST POINT COMPUTED!
  
 COORDINATES OF FRAGMENT MULTIPOLE CENTERS (ANGS)
 MULTIPOLE NAME        X              Y              Z
 ------------------------------------------------------------
 FRAGNAME=H2ORHF
 ZO1              -1.3005957692  -1.4564217743  -1.6049198646
 ZH2              -1.3824407343  -0.5364306009  -1.7993320468
 ZH3              -1.5262181304  -1.5624394632  -0.6945719894
 FRAGNAME=H2ORHF
 ZO1              -1.4867950728  -1.5928618770   1.2916918271
 ZH2              -0.5807825614  -1.7616224861   1.4955045845
 ZH3              -1.9987365024  -2.1789100979   1.8258658713
 FRAGNAME=H2ORHF
 ZO1               1.3374242680  -1.4939087506   1.4193193922
 ZH2               1.4830983921  -0.5770336923   1.5896063003
 ZH3               1.5508828516  -1.6384551464   0.5113434968
 FRAGNAME=H2ORHF
 ZO1               1.5068093212  -1.7329547253  -1.4687899124
 ZH2               0.5901198666  -1.8376000077  -1.6678081596
 ZH3               1.9699090087  -2.3818888893  -1.9740636840
 FRAGNAME=H2ORHF
 ZO1              -1.2566515316   1.4599876460  -1.6349042683
 ZH2              -1.7723115199   2.0749028336  -2.1317468417
 ZH3              -1.4639539292   1.6045281284  -0.7255021466
 FRAGNAME=H2ORHF
 ZO1              -1.4001687977   1.3118226624   1.1941456189
 ZH2              -0.4866417494   1.4295317189   1.4002799537
 ZH3              -1.5896941762   0.3951609978   1.3153478371
 FRAGNAME=H2ORHF
 ZO1               1.5058981241   1.4244735797   1.3573885571
 ZH2               2.0463603492   2.0271984230   1.8426738346
 ZH3               1.7297190496   1.5321223048   0.4467874373
 FRAGNAME=H2ORHF
 ZO1               1.6481834162   1.1891422245  -1.4725189959
 ZH2               0.7438607952   1.3578899871  -1.6837137966
 ZH3               1.7789257116   0.2587972973  -1.5633111909

     EFFECTIVE FRAGMENT CALCULATION'S TOTAL ENERGY=  -0.1392246762
  $VIB   
          IVIB=   0 IATOM=   0 ICOORD=   0 E=       -0.1392246762
 2.078515164E-05 1.043902975E-05-4.410520372E-06
-2.411487209E-05 2.865070285E-05-1.770696067E-05
-2.868078758E-06-1.441571454E-06 1.589325960E-05
-1.434962322E-05-7.864882258E-06-1.728531871E-06
 1.158303662E-05-1.495334075E-06-2.454334707E-05
-2.279880487E-05-1.865484273E-05-1.583301724E-06
 7.684747225E-06-8.261545632E-06-9.236467202E-06
 3.180245148E-06 1.266366231E-05-1.550138052E-05
-1.181995921E-05 1.161350961E-05-1.236894668E-06
 2.984994139E-05-1.834778107E-05-2.013466254E-06
-4.438614200E-06 7.983416280E-06-7.274161784E-06
-5.403813308E-06 4.429068320E-07-4.344846991E-06
-2.122074738E-06 1.545001148E-05 2.238270746E-05
-1.581043060E-05-9.103966275E-06 5.310660913E-06
-1.880420858E-05-3.428751596E-05 8.425424037E-06
 3.271773158E-05-9.838171291E-06-5.404349371E-07
  0.000000000E+00 0.000000000E+00 0.000000000E+00
 ......END OF GEOMETRY SEARCH......
 STEP CPU TIME =     0.00 TOTAL CPU TIME =        3.6 (    0.1 MIN)
 TOTAL WALL CLOCK TIME=        3.6 SECONDS, CPU UTILIZATION IS  99.72%

             ----------------------------------------------
             -------   RESULTS OF PCM CALCULATION   -------
             ----------------------------------------------

 FREE ENERGY IN SOLVENT = <PSI| H(0)+V/2 |PSI>       =        0.0000000000 A.U.
 INTERNAL ENERGY IN SOLVENT = <PSI| H(0) |PSI>       =        0.0329164507 A.U.
 DELTA INTERNAL ENERGY =  <D-PSI| H(0) |D-PSI>       =        0.0000000000 A.U.
 ELECTROSTATIC INTERACTION                           =       -0.0329164507 A.U.
 PIEROTTI CAVITATION ENERGY                          =        0.0000000000 A.U.
 DISPERSION FREE ENERGY                              =        0.0000000000 A.U.
 REPULSION FREE ENERGY                               =        0.0000000000 A.U.
 TOTAL INTERACTION (DELTA + ES + CAV + DISP + REP)   =       -0.0329164507 A.U.
 TOTAL FREE ENERGY IN SOLVENT                        =        0.0000000000 A.U.

           -------   EFP/PCM ELECTROSTATIC INTERATIONS   -------
           ----------------  ITERATIVE METHOD  -----------------

           ------------- TOTAL:     -20.66 KCAL/MOL-------------



 FREE ENERGY IN SOLVENT       =           0.00 KCAL/MOL
 INTERNAL ENERGY IN SOLVENT   =          20.66 KCAL/MOL
 DELTA INTERNAL ENERGY        =           0.00 KCAL/MOL
 ELECTROSTATIC INTERACTION    =         -20.66 KCAL/MOL
 PIEROTTI CAVITATION ENERGY   =           0.00 KCAL/MOL
 DISPERSION FREE ENERGY       =           0.00 KCAL/MOL
 REPULSION FREE ENERGY        =           0.00 KCAL/MOL
 TOTAL INTERACTION            =         -20.66 KCAL/MOL
 TOTAL FREE ENERGY IN SOLVENT =           0.00 KCAL/MOL

 -INTERNAL ENERGY IN SOLVENT-
    OMITS ES,CAV,DISP,REP (USES SOLVATED ORBITALS IN THE GAS PHASE HAMILTONIAN)
 -FREE ENERGY IN SOLVENT-
    INCLUDES ES+DISP+REP WHICH ARE IN THE SELF-CONSISTENT WAVEFUNCTION.
 -TOTAL FREE ENERGY IN SOLVENT-
    INCLUDES ES+DISP+REP+CAV, MEANING CAVITATION IS NOT IN THE SCF ENERGY.

 .... DONE PRINTING PCM SOLVENT SUMMARY ....
 STEP CPU TIME =     0.00 TOTAL CPU TIME =        3.6 (    0.1 MIN)
 TOTAL WALL CLOCK TIME=        3.6 SECONDS, CPU UTILIZATION IS  99.72%
               493471  WORDS OF DYNAMIC MEMORY USED
 EXECUTION OF GAMESS TERMINATED NORMALLY Wed Aug  9 19:59:30 2017
 DDI: 263640 bytes (0.3 MB / 0 MWords) used by master data server.

 ----------------------------------------
 CPU timing information for all processes
 ========================================
 0: 3.588 + 0.35 = 3.624
 ----------------------------------------
 ddikick.x: exited gracefully.
unset echo
----- accounting info -----
Files used on the master node compute-1-1.local were:
-rw-rw-r-- 1 sarom sarom 5.1K Aug  9 19:59 /scratch/pcm-efp-fragonly.F05
-rw-rw-r-- 1 sarom sarom    0 Aug  9 19:59 /scratch/pcm-efp-fragonly.F08
-rw-rw-r-- 1 sarom sarom 991K Aug  9 19:59 /scratch/pcm-efp-fragonly.F10
-rw-rw-r-- 1 sarom sarom    0 Aug  9 19:59 /scratch/pcm-efp-fragonly.F25
-rw-rw-r-- 1 sarom sarom    0 Aug  9 19:59 /scratch/pcm-efp-fragonly.F26
-rw-rw-r-- 1 sarom sarom    0 Aug  9 19:59 /scratch/pcm-efp-fragonly.F27
rm: cannot remove `/scratch/tmp': Is a directory
ls: No match.
ls: No match.
ls: No match.
Wed Aug  9 19:59:33 CDT 2017
0.270u 0.146s 0:07.12 5.7%	0+0k 0+376io 0pf+0w
/opt/gridengine/default/spool/compute-1-1/active_jobs/35733.1/pe_hostfile compute-1-1.local
