-catch_rsh /opt/gridengine/default/spool/compute-0-1/active_jobs/35727.1/pe_hostfile
compute-0-1
The primary node assigned by SGE to this run is compute-0-1
Warning: no access to tty (Bad file descriptor).
Thus no job control in this shell.
source /home/sarom/dir.git.branch.saromleang-travis-ci/install.info
setenv GMS_PATH /home/sarom/dir.git.branch.saromleang-travis-ci
setenv GMS_BUILD_DIR /home/sarom/dir.git.branch.saromleang-travis-ci
setenv GMS_TARGET linux64
setenv GMS_FORTRAN gfortran
setenv GMS_GFORTRAN_VERNO 4.4
setenv GMS_MATHLIB mkl-so
setenv GMS_MATHLIB none
setenv GMS_MATHLIB_PATH /share/apps/intel/compilers_and_libraries_2017.1.132/linux/mkl/lib/intel64
setenv GMS_MKL_VERNO 12
setenv GMS_DDI_COMM sockets
setenv GMS_LIBCCHEM false
setenv GMS_EIGEN_PATH
setenv GMS_PHI false
setenv GMS_SHMTYPE sysv
setenv GMS_OPENMP false
unset echo
pcm-acetate-es
/home/sarom/dir.git.branch.saromleang-travis-ci/tests/solvent/pcm/parallel
----- GAMESS execution script 'rungms' -----
This job is running on host compute-0-1.local
under operating system Linux at Wed Aug 9 19:57:41 CDT 2017
Available scratch disk space (Kbyte units) at beginning of the job is
Filesystem           1K-blocks      Used Available Use% Mounted on
/dev/sda1             16126920   3965560  11342160  26% /
GAMESS temporary binary files will be written to /scratch
GAMESS supplementary output files will be written to /home/sarom/restart
Copying input file pcm-acetate-es.inp to your run's scratch directory...
cp /home/sarom/dir.git.branch.saromleang-travis-ci/tests/solvent/pcm/parallel/pcm-acetate-es.inp /scratch/pcm-acetate-es.F05
unset echo
The generated host list is
compute-0-1.local
/home/sarom/dir.git.branch.saromleang-travis-ci/ddikick.x /home/sarom/dir.git.branch.saromleang-travis-ci/gamess.00.x pcm-acetate-es -ddi 1 1 compute-0-1.local -scr /scratch

 Distributed Data Interface kickoff program.
 Initiating 1 compute processes on 1 nodes to run the following command:
 /home/sarom/dir.git.branch.saromleang-travis-ci/gamess.00.x pcm-acetate-es 

          ******************************************************
          *         GAMESS VERSION = 20 APR 2017 (R1)          *
          *             FROM IOWA STATE UNIVERSITY             *
          * M.W.SCHMIDT, K.K.BALDRIDGE, J.A.BOATZ, S.T.ELBERT, *
          *   M.S.GORDON, J.H.JENSEN, S.KOSEKI, N.MATSUNAGA,   *
          *          K.A.NGUYEN, S.J.SU, T.L.WINDUS,           *
          *       TOGETHER WITH M.DUPUIS, J.A.MONTGOMERY       *
          *         J.COMPUT.CHEM.  14, 1347-1363(1993)        *
          **************** 64 BIT LINUX VERSION ****************

  SINCE 1993, STUDENTS AND POSTDOCS WORKING AT IOWA STATE UNIVERSITY
  AND ALSO IN THEIR VARIOUS JOBS AFTER LEAVING ISU HAVE MADE IMPORTANT
  CONTRIBUTIONS TO THE CODE:
     IVANA ADAMOVIC, CHRISTINE AIKENS, YURI ALEXEEV, POOJA ARORA,
     ANDREY ASADCHEV, ROB BELL, PRADIPTA BANDYOPADHYAY, JONATHAN BENTZ,
     BRETT BODE, KURT BRORSEN, CALEB CARLIN, GALINA CHABAN, WEI CHEN,
     CHEOL HO CHOI, PAUL DAY, ALBERT DEFUSCO, NUWAN DESILVA, TIM DUDLEY,
     DMITRI FEDOROV, GRAHAM FLETCHER, MARK FREITAG, KURT GLAESEMANN,
     DAN KEMP, GRANT MERRILL, NORIYUKI MINEZAWA, JONATHAN MULLIN,
     TAKESHI NAGATA, SEAN NEDD, HEATHER NETZLOFF, BOSILJKA NJEGIC, RYAN OLSON,
     MIKE PAK, SPENCER PRUITT, LUKE ROSKOP, JIM SHOEMAKER, LYUDMILA SLIPCHENKO,
     TONY SMITH, SAROM SOK LEANG, JIE SONG, TETSUYA TAKETSUGU, SIMON WEBB,
     PENG XU, SOOHAENG YOO, FEDERICO ZAHARIEV

  ADDITIONAL CODE HAS BEEN PROVIDED BY COLLABORATORS IN OTHER GROUPS:
     IOWA STATE UNIVERSITY:
          JOE IVANIC, AARON WEST, LAIMUTIS BYTAUTAS, KLAUS RUEDENBERG
     UNIVERSITY OF TOKYO: KIMIHIKO HIRAO, TAKAHITO NAKAJIMA,
          TAKAO TSUNEDA, MUNEAKI KAMIYA, SUSUMU YANAGISAWA,
          KIYOSHI YAGI, MAHITO CHIBA, SEIKEN TOKURA, NAOAKI KAWAKAMI
     UNIVERSITY OF AARHUS: FRANK JENSEN
     UNIVERSITY OF IOWA: VISVALDAS KAIRYS, HUI LI
     NATIONAL INST. OF STANDARDS AND TECHNOLOGY: WALT STEVENS, DAVID GARMER
     UNIVERSITY OF PISA: BENEDETTA MENNUCCI, JACOPO TOMASI
     UNIVERSITY OF MEMPHIS: HENRY KURTZ, PRAKASHAN KORAMBATH
     UNIVERSITY OF ALBERTA: TOBY ZENG, MARIUSZ KLOBUKOWSKI
     UNIVERSITY OF NEW ENGLAND: MARK SPACKMAN
     MIE UNIVERSITY: HIROAKI UMEDA
     NAT. INST. OF ADVANCED INDUSTRIAL SCIENCE AND TECHNOLOGY: KAZUO KITAURA
     MICHIGAN STATE UNIVERSITY:
          KAROL KOWALSKI, MARTA WLOCH, JEFFREY GOUR, JESSE LUTZ,
          WEI LI, PIOTR PIECUCH
     UNIVERSITY OF SILESIA: MONIKA MUSIAL, STANISLAW KUCHARSKI
     FACULTES UNIVERSITAIRES NOTRE-DAME DE LA PAIX:
          OLIVIER QUINET, BENOIT CHAMPAGNE
     UNIVERSITY OF CALIFORNIA - SANTA BARBARA: BERNARD KIRTMAN
     INSTITUTE FOR MOLECULAR SCIENCE:
          KAZUYA ISHIMURA, MICHIO KATOUDA, AND SHIGERU NAGASE
     UNIVERSITY OF NOTRE DAME: ANNA POMOGAEVA, DAN CHIPMAN
     KYUSHU UNIVERSITY:
          HARUYUKI NAKANO,
          FENG LONG GU, JACEK KORCHOWIEC, MARCIN MAKOWSKI, AND YURIKO AOKI,
          HIROTOSHI MORI AND EISAKU MIYOSHI
     PENNSYLVANIA STATE UNIVERSITY:
          TZVETELIN IORDANOV, CHET SWALINA, JONATHAN SKONE,
          SHARON HAMMES-SCHIFFER
     WASEDA UNIVERSITY:
          MASATO KOBAYASHI, TOMOKO AKAMA, TSUGUKI TOUMA,
          TAKESHI YOSHIKAWA, YASUHIRO IKABATA, JUNJI SEINO,
          YUYA NAKAJIMA, HIROMI NAKAI
     NANJING UNIVERSITY: SHUHUA LI
     UNIVERSITY OF NEBRASKA:
          PEIFENG SU, DEJUN SI, NANDUN THELLAMUREGE, YALI WANG, HUI LI
     UNIVERSITY OF ZURICH: ROBERTO PEVERATI, KIM BALDRIDGE
     N. COPERNICUS UNIVERSITY AND JACKSON STATE UNIVERSITY:
          MARIA BARYSZ
     UNIVERSITY OF COPENHAGEN: Jimmy Kromann, CASPER STEINMANN
     TOKYO INSTITUTE OF TECHNOLOGY: HIROYA NAKATA
     NAGOYA UNIVERSITY: YOSHIO NISHIMOTO, STEPHAN IRLE
     MOSCOW STATE UNIVERSITY: VLADIMIR MIRONOV

 EXECUTION OF GAMESS BEGUN Wed Aug  9 19:57:41 2017

            ECHO OF THE FIRST FEW INPUT CARDS -
 INPUT CARD>!   B3LYP calculation on the closed shell H3CCOO anion.                         
 INPUT CARD>!                                                                               
 INPUT CARD>!   Peifeng and Hui's Table 1.  The individual components of                    
 INPUT CARD>!   the gradient will match what is shown in the table.                         
 INPUT CARD>!                                                                               
 INPUT CARD>!   FINAL R-B3LYP E= -228.4798675471, 15 iters, RMS= 0.015718124                
 INPUT CARD>!   This will optimize in 21 steps to -228.4824090378, grad= 0.0000024          
 INPUT CARD>!                                                                               
 INPUT CARD>!   This run takes 29 seconds on a 2.66 GHz Cloverton (14 Nov 2008)             
 INPUT CARD>!                                                                               
 INPUT CARD> $contrl scftyp=rhf dfttyp=b3lyp runtyp=gradient icharg=-1 nzvar=15 $end        
 INPUT CARD> $system mwords=5 $end                                                          
 INPUT CARD> $basis  gbasis=N31 NGAUSS=6 NDFUNC=1 $end                                      
 INPUT CARD> $zmat   auto=.t. dlc=.t. $end                                                  
 INPUT CARD> $statpt nstep=50 opttol=1.0d-5 $end                                            
 INPUT CARD>                                                                                
 INPUT CARD> $pcm    solvnt=water $end                                                      
 INPUT CARD> $pcmcav radii=suahf $end                                                       
 INPUT CARD>                                                                                
 INPUT CARD> $data                                                                          
 INPUT CARD>acetate anion...Peifeng and Hui's table 1...optimized gas phase RHF geometry    
 INPUT CARD>C1                                                                              
 INPUT CARD>C           6.0  -0.1972303227   0.0134971931  -1.3827595804                    
 INPUT CARD>C           6.0   0.0637448024   0.0033053120   0.1491958176                    
 INPUT CARD>O           8.0   1.2472508140  -0.0024866137   0.4960573054                    
 INPUT CARD>O           8.0  -0.9587301521   0.0006624612   0.8425161126                    
 INPUT CARD>H           1.0   0.7264092898   0.0284660412  -1.9535182910                    
 INPUT CARD>H           1.0  -0.7979769902   0.8816767268  -1.6481709634                    
 INPUT CARD>H           1.0  -0.7767153404  -0.8649032362  -1.6620302476                    
 INPUT CARD> $end                                                                           
    5000000 WORDS OF MEMORY AVAILABLE

     BASIS OPTIONS
     -------------
     GBASIS=N31          IGAUSS=       6      POLAR=POPN31  
     NDFUNC=       1     NFFUNC=       0     DIFFSP=       F
     NPFUNC=       0      DIFFS=       F     BASNAM=        


     RUN TITLE
     ---------
 acetate anion...Peifeng and Hui's table 1...optimized gas phase RHF geometry    

 THE POINT GROUP OF THE MOLECULE IS C1      
 THE ORDER OF THE PRINCIPAL AXIS IS     0

 ATOM      ATOMIC                      COORDINATES (BOHR)
           CHARGE         X                   Y                   Z
 C           6.0    -0.3727112664        0.0255059966       -2.6130367139
 C           6.0     0.1204602097        0.0062461340        0.2819392138
 O           8.0     2.3569622764       -0.0046990185        0.9374123814
 O           8.0    -1.8117372836        0.0012518701        1.5921245931
 H           1.0     1.3727145127        0.0537930178       -3.6916142820
 H           1.0    -1.5079578560        1.6661274234       -3.1145915017
 H           1.0    -1.4677791638       -1.6344301223       -3.1407817513

          INTERNUCLEAR DISTANCES (ANGS.)
          ------------------------------

                1 C          2 C          3 O          4 O          5 H     

   1 C       0.0000000    1.5540590 *  2.3699650 *  2.3519989 *  1.0858636 *
   2 C       1.5540590 *  0.0000000    1.2333016 *  1.2353765 *  2.2048047 *
   3 O       2.3699650 *  1.2333016 *  0.0000000    2.2330239 *  2.5045268 *
   4 O       2.3519989 *  1.2353765 *  2.2330239 *  0.0000000    3.2647016  
   5 H       1.0858636 *  2.2048047 *  2.5045268 *  3.2647016    0.0000000  
   6 H       1.0886117 *  2.1782167 *  3.0923157    2.6467999 *  1.7734032 *
   7 H       1.0887526 *  2.1773147 *  3.0818084    2.6561412 *  1.7726978 *

                6 H          7 H     

   1 C       1.0886117 *  1.0887526 *
   2 C       2.1782167 *  2.1773147 *
   3 O       3.0923157    3.0818084  
   4 O       2.6467999 *  2.6561412 *
   5 H       1.7734032 *  1.7726978 *
   6 H       0.0000000    1.7467644 *
   7 H       1.7467644 *  0.0000000  

  * ... LESS THAN  3.000


     ATOMIC BASIS SET
     ----------------
 THE CONTRACTED PRIMITIVE FUNCTIONS HAVE BEEN UNNORMALIZED
 THE CONTRACTED BASIS FUNCTIONS ARE NOW NORMALIZED TO UNITY

  SHELL TYPE  PRIMITIVE        EXPONENT          CONTRACTION COEFFICIENT(S)

 C         

      1   S       1          3047.5248800    0.001834737132
      1   S       2           457.3695180    0.014037322813
      1   S       3           103.9486850    0.068842622264
      1   S       4            29.2101553    0.232184443216
      1   S       5             9.2866630    0.467941348435
      1   S       6             3.1639270    0.362311985337

      2   L       7             7.8682723   -0.119332419775    0.068999066591
      2   L       8             1.8812885   -0.160854151696    0.316423960957
      2   L       9             0.5442493    1.143456437840    0.744308290898

      3   L      10             0.1687145    1.000000000000    1.000000000000

      4   D      11             0.8000000    1.000000000000

 C         

      5   S      12          3047.5248800    0.001834737132
      5   S      13           457.3695180    0.014037322813
      5   S      14           103.9486850    0.068842622264
      5   S      15            29.2101553    0.232184443216
      5   S      16             9.2866630    0.467941348435
      5   S      17             3.1639270    0.362311985337

      6   L      18             7.8682723   -0.119332419775    0.068999066591
      6   L      19             1.8812885   -0.160854151696    0.316423960957
      6   L      20             0.5442493    1.143456437840    0.744308290898

      7   L      21             0.1687145    1.000000000000    1.000000000000

      8   D      22             0.8000000    1.000000000000

 O         

      9   S      23          5484.6716600    0.001831074430
      9   S      24           825.2349460    0.013950172200
      9   S      25           188.0469580    0.068445078098
      9   S      26            52.9645000    0.232714335992
      9   S      27            16.8975704    0.470192897984
      9   S      28             5.7996353    0.358520852987

     10   L      29            15.5396162   -0.110777549525    0.070874268231
     10   L      30             3.5999336   -0.148026262701    0.339752839147
     10   L      31             1.0137618    1.130767015354    0.727158577316

     11   L      32             0.2700058    1.000000000000    1.000000000000

     12   D      33             0.8000000    1.000000000000

 O         

     13   S      34          5484.6716600    0.001831074430
     13   S      35           825.2349460    0.013950172200
     13   S      36           188.0469580    0.068445078098
     13   S      37            52.9645000    0.232714335992
     13   S      38            16.8975704    0.470192897984
     13   S      39             5.7996353    0.358520852987

     14   L      40            15.5396162   -0.110777549525    0.070874268231
     14   L      41             3.5999336   -0.148026262701    0.339752839147
     14   L      42             1.0137618    1.130767015354    0.727158577316

     15   L      43             0.2700058    1.000000000000    1.000000000000

     16   D      44             0.8000000    1.000000000000

 H         

     17   S      45            18.7311370    0.033494604338
     17   S      46             2.8253944    0.234726953484
     17   S      47             0.6401217    0.813757326146

     18   S      48             0.1612778    1.000000000000

 H         

     19   S      49            18.7311370    0.033494604338
     19   S      50             2.8253944    0.234726953484
     19   S      51             0.6401217    0.813757326146

     20   S      52             0.1612778    1.000000000000

 H         

     21   S      53            18.7311370    0.033494604338
     21   S      54             2.8253944    0.234726953484
     21   S      55             0.6401217    0.813757326146

     22   S      56             0.1612778    1.000000000000

 TOTAL NUMBER OF BASIS SET SHELLS             =   22
 NUMBER OF CARTESIAN GAUSSIAN BASIS FUNCTIONS =   66
 NUMBER OF ELECTRONS                          =   32
 CHARGE OF MOLECULE                           =   -1
 SPIN MULTIPLICITY                            =    1
 NUMBER OF OCCUPIED ORBITALS (ALPHA)          =   16
 NUMBER OF OCCUPIED ORBITALS (BETA )          =   16
 TOTAL NUMBER OF ATOMS                        =    7
 THE NUCLEAR REPULSION ENERGY IS      113.0344089396

     LEBEDEV GRID-BASED DFT OPTIONS
     ------------------------------
     DFTTYP=B3LYP   
     NRAD  =      96     NLEB  =     302
     NRAD0 =      24     NLEB0 =     110
     SWOFF =    5.00E-03 (PURE SCF -> DFT)
     SWITCH=    3.00E-04 (COARSE -> TIGHT GRID)
     THRESH=    0.00E+00 GTHRE=    1.00E+00

 GRIMME'S EMPIRICAL DISPERSION CORRECTION= F

     $CONTRL OPTIONS
     ---------------
 SCFTYP=RHF          RUNTYP=GRADIENT     EXETYP=RUN     
 MPLEVL=       0     CITYP =NONE         CCTYP =NONE         VBTYP =NONE    
 DFTTYP=B3LYP        TDDFT =NONE    
 MULT  =       1     ICHARG=      -1     NZVAR =      15     COORD =UNIQUE  
 PP    =NONE         RELWFN=NONE         LOCAL =NONE         NUMGRD=       F
 ISPHER=      -1     NOSYM =       0     MAXIT =      30     UNITS =ANGS    
 PLTORB=       F     MOLPLT=       F     AIMPAC=       F     FRIEND=        
 NPRINT=       7     IREST =       0     GEOM  =INPUT   
 NORMF =       0     NORMP =       0     ITOL  =      20     ICUT  =       9
 INTTYP=BEST         GRDTYP=BEST         QMTTOL= 1.0E-06

     $SYSTEM OPTIONS
     ---------------
  REPLICATED MEMORY=     5000000 WORDS (ON EVERY NODE).
 DISTRIBUTED MEMDDI=           0 MILLION WORDS IN AGGREGATE,
 MEMDDI DISTRIBUTED OVER   1 PROCESSORS IS           0 WORDS/PROCESSOR.
 TOTAL MEMORY REQUESTED ON EACH PROCESSOR=     5000000 WORDS.
 TIMLIM=      525600.00 MINUTES, OR     365.0 DAYS.
 PARALL= F  BALTYP=  DLB     KDIAG=    0  COREFL= F
 MXSEQ2=     300 MXSEQ3=     150  mem10=         0

 ** LOOKING UP INTERNALLY STORED DATA FOR SOLVENT=WATER    **
 OPTICAL AND PHYSICAL CONSTANTS:
 EPS= 78.390; EPSINF=  1.776; RSOLV=  1.385 A; VMOL=  18.070 ML/MOL;
 TCE= .25700E-03 1/K; STEN= 71.810 DYN/CM;  DSTEN=  0.6500; CMF=  1.2770


     -----------------------------------
     INPUT FOR PCM SOLVATION CALCULATION 
     -----------------------------------
     IEF   =     -10
     ICOMP =       0     IFIELD=       0     ICAV  =       0
     IDISP =       0     IREP  =       0     IDP   =       0

     SOLVNT=WATER        EPS   = 78.3900     EPSINF=  1.7760
     VMOL  = 18.0700     TCE   =  0.00025700 STEN  = 71.8100
     DSTEN =  0.6500     CMF   =  1.2770     RSOLV =  1.3850

     NESFP =       0
     OMEGA = 40.0000     RET   =100.0000     FRO   =  0.7000

     TABS  =298.0000     IPRINT=       0

     --------------------------------
     INPUT FOR ITERATIVE C-PCM METHOD 
     --------------------------------
     IPCMIT  =         1     MXDIIS  =        50
     MXITR1  =        50     MXITR2  =        50
     THRES   = 0.100E-09     IMUL    =         3
     RCUT(1) =   15.0000     RCUT(2) =   30.0000

     IDIRCT  =         1
     IMGABI  =         0     RABI    =    4.0000
     IMGASC  =         0     RASC    =   20.0000
     THRSLS  = 0.500E-03     DENSLS  =    0.0100
     IEFPOL  =         1     REFPOL  =    0.0000

     INPUT FOR ISOTROPIC DIELECTRICS
     -------------------------------
     EPS=    78.39

     INPUT FOR CAVITY DEFINITION 
     ---------------------------
   ATOM               COORDINATES                RADIUS       EPS
      1     -0.1972      0.0135     -1.3828      1.7700     78.3900
      2      0.0637      0.0033      0.1492      1.7700     78.3900
      3      1.2473     -0.0025      0.4961      1.5900     78.3900
      4     -0.9587      0.0007      0.8425      1.5900     78.3900
      5      0.7264      0.0285     -1.9535      0.0100     78.3900
      6     -0.7980      0.8817     -1.6482      0.0100     78.3900
      7     -0.7767     -0.8649     -1.6620      0.0100     78.3900

     ----------------------------
     INPUT FOR TESSERA DEFINITION
     ----------------------------
     NTSALL  =        60     MTHALL  =         4
     MTHAUT  =         0     AUTFRE  =    2.0000
     NTSFRZ  =        60     KEEPSM  =         0
     AREAKP  =   10.0000     BONDRY  =    1.0000
     AREATL  =    0.0100

     SPHERE     INITS       METHOD
          1        60       FIXPVA
          2        60       FIXPVA
          3        60       FIXPVA
          4        60       FIXPVA
          5        60       FIXPVA
          6        60       FIXPVA
          7        60       FIXPVA

     ------------------------------
      FIXPVA TESSELLATION FOR PCM
         PEIFENG SU AND HUI LI
     UNIVERSITY OF NEBRASKA-LINCOLN
     ------------------------------


     -----------------------------
     INPUT FOR PCM GRADIENT METHOD
     -----------------------------
     IPCDER  =         3     IFAST   =         0
     FIXPVA GRADIENTS BY PEIFENG SU AND HUI LI
  

 PCM DIMENSIONS: MXSP=  2000, MXTS=       420, MEMORY=         37243

          ----------------
          PROPERTIES INPUT
          ----------------

     MOMENTS            FIELD           POTENTIAL          DENSITY
 IEMOM =       1   IEFLD =       0   IEPOT =       0   IEDEN =       0
 WHERE =COMASS     WHERE =NUCLEI     WHERE =NUCLEI     WHERE =NUCLEI  
 OUTPUT=BOTH       OUTPUT=BOTH       OUTPUT=BOTH       OUTPUT=BOTH    
 IEMINT=       0   IEFINT=       0                     IEDINT=       0
                                                       MORB  =       0
          EXTRAPOLATION IN EFFECT
          DIIS IN EFFECT
 ORBITAL PRINTING OPTION: NPREO=     1    66     2     1

     -------------------------------
     INTEGRAL TRANSFORMATION OPTIONS
     -------------------------------
     NWORD  =            0
     CUTOFF = 1.0E-09     MPTRAN =       0
     DIRTRF =       F     AOINTS =DUP     

          ----------------------
          INTEGRAL INPUT OPTIONS
          ----------------------
 NOPK  =       1 NORDER=       0 SCHWRZ=       T


 -----------------------------------------------
  STATISTICS ON AUTOMATIC COORDINATE GENERATION 
 -----------------------------------------------
  NUMBER OF USER SPECIFIED BONDS                             0
  NUMBER OF BONDS                                            6
  NUMBER OF ANGLES                                           9
  NUMBER OF TORSIONS                                         6
  NUMBER OF EXTRA COORD.                                     0
  NUMBER OF EXTRA COORD. FOR CONSTRAINTS                     0
  NUMBER OF CONSTRAINED COORD.                               0

  TOTAL NUMBER OF PRIMITIVES                                21
 -----------------------------------------------

   --- ENCODED Z MATRIX ---
 COORD  TYPE   I   J   K   L   M   N
    1      1    1   2
    2      1    1   7
    3      1    1   5
    4      1    1   6
    5      1    2   4
    6      1    2   3
    7      2    1   2   3
    8      2    1   2   4
    9      2    2   1   7
   10      2    2   1   5
   11      2    2   1   6
   12      2    3   2   4
   13      2    5   1   7
   14      2    5   1   6
   15      2    6   1   7
   16      3    3   2   1   6
   17      3    3   2   1   7
   18      3    3   2   1   5
   19      3    4   2   1   6
   20      3    4   2   1   5
   21      3    4   2   1   7

          INDEP./SYM. INTERNAL COORDINATES
          --------------------------------
 CRD  1=  -0.1047 (  5)  0.5210 (  7) -0.5417 (  8) -0.2559 (  9)  0.4779 ( 10)
          -0.2680 ( 11)  0.1177 ( 15)
 CRD  2=   0.6867 (  1)  0.2389 (  7)  0.1792 (  8)  0.1915 (  9)  0.2168 ( 10)
           0.1862 ( 11) -0.4181 ( 12) -0.2127 ( 13) -0.2114 ( 14) -0.1938 ( 15)
 CRD  3=   0.1561 (  2) -0.1537 (  4)  0.6220 (  9) -0.6125 ( 11) -0.2257 ( 13)
           0.2309 ( 14)  0.1463 ( 16)  0.1440 ( 17) -0.1936 ( 20)
 CRD  4=  -0.1115 (  2)  0.2274 (  3) -0.1172 (  4)  0.2790 (  5) -0.2784 (  6)
          -0.3585 (  7)  0.3713 (  8) -0.2619 (  9)  0.5149 ( 10) -0.2750 ( 11)
          -0.1229 ( 13) -0.1167 ( 14)  0.2490 ( 15)
 CRD  5=   0.2756 (  2)  0.2752 (  3)  0.2758 (  4) -0.4276 (  5) -0.4212 (  6)
           0.2091 (  7)  0.2020 (  8) -0.1554 (  9) -0.1649 ( 10) -0.1553 ( 11)
          -0.4111 ( 12)  0.1679 ( 13)  0.1680 ( 14)  0.1582 ( 15)
 CRD  6=  -0.2094 (  1) -0.4088 (  2) -0.4184 (  3) -0.4092 (  4) -0.3929 (  5)
          -0.3977 (  6)  0.1152 (  9)  0.1181 ( 10)  0.1154 ( 11) -0.1819 ( 12)
          -0.1213 ( 13) -0.1215 ( 14) -0.1195 ( 15)
 CRD  7=   0.5267 (  2) -0.5237 (  4)  0.3424 ( 13) -0.3440 ( 14)  0.1649 ( 16)
           0.1630 ( 17) -0.2224 ( 18)  0.1315 ( 19) -0.2558 ( 20)  0.1296 ( 21)
 CRD  8=   0.2958 (  2) -0.5922 (  3)  0.3001 (  4) -0.2049 ( 13) -0.2016 ( 14)
           0.4117 ( 15)  0.2274 ( 16) -0.2298 ( 17)  0.2270 ( 19) -0.2302 ( 21)
 CRD  9=  -0.3918 ( 16) -0.3908 ( 17) -0.4063 ( 18) -0.4145 ( 19) -0.4291 ( 20)
          -0.4136 ( 21)
 CRD 10=   0.2264 (  2)  0.2382 (  3)  0.2255 (  4) -0.3507 (  5) -0.3580 (  6)
          -0.2330 (  7) -0.2271 (  8)  0.2037 (  9)  0.2098 ( 10)  0.2034 ( 11)
           0.4601 ( 12) -0.2202 ( 13) -0.2199 ( 14) -0.2005 ( 15)
 CRD 11=  -0.2869 (  2)  0.2828 (  4)  0.2032 ( 13) -0.2074 ( 14)  0.4230 ( 16)
           0.4194 ( 17)  0.1950 ( 18) -0.2501 ( 19) -0.4781 ( 20) -0.2538 ( 21)
 CRD 12=   0.1312 (  2) -0.2432 (  3)  0.1373 (  4)  0.6201 (  5) -0.6085 (  6)
           0.1905 (  7) -0.1817 (  8) -0.1786 ( 15)
 CRD 13=  -0.6878 (  1)  0.1797 (  2)  0.1852 (  3)  0.1794 (  4)  0.1623 (  5)
           0.1927 (  6)  0.1313 (  7)  0.1469 (  8)  0.1963 (  9)  0.2056 ( 10)
           0.1966 ( 11) -0.2782 ( 12) -0.2118 ( 13) -0.2118 ( 14) -0.1980 ( 15)
 CRD 14=  -0.2213 (  2)  0.4387 (  3) -0.2327 (  4)  0.1868 (  5) -0.1815 (  6)
           0.2231 (  7) -0.2187 (  8)  0.1318 (  9) -0.2517 ( 10)  0.1385 ( 11)
          -0.1581 ( 13) -0.1500 ( 14)  0.3153 ( 15)  0.2678 ( 16) -0.2725 ( 17)
           0.2676 ( 19) -0.2727 ( 21)
 CRD 15=   0.3474 (  2) -0.3411 (  4) -0.2120 (  9)  0.2078 ( 11) -0.2499 ( 13)
           0.2540 ( 14)  0.5243 ( 18) -0.3604 ( 19)  0.1094 ( 20) -0.3524 ( 21)

 THE DETERMINANT OF THE G MATRIX IS 10**(    -8)


                     --------------------
                     INTERNAL COORDINATES
                     --------------------

                 - - ATOMS - -         COORDINATE      COORDINATE
 NO.   TYPE    I  J  K  L  M  N        (BOHR,RAD)       (ANG,DEG)
 ----------------------------------------------------------------
   1 STRETCH   1  2                     2.9367456       1.5540590
   2 STRETCH   1  7                     2.0574442       1.0887526
   3 STRETCH   1  5                     2.0519846       1.0858636
   4 STRETCH   1  6                     2.0571778       1.0886117
   5 STRETCH   2  4                     2.3345230       1.2353765
   6 STRETCH   2  3                     2.3306021       1.2333016
   7 BEND      1  2  3                  2.0246450     116.0036112
   8 BEND      1  2  4                  1.9979294     114.4729203
   9 BEND      2  1  7                  1.9144683     109.6909522
  10 BEND      2  1  5                  1.9556224     112.0489085
  11 BEND      2  1  6                  1.9158446     109.7698084
  12 BEND      3  2  4                  2.2606100     129.5234097
  13 BEND      5  1  7                  1.9060693     109.2097267
  14 BEND      5  1  6                  1.9073726     109.2843987
  15 BEND      6  1  7                  1.8620690     106.6886941
  16 TORSION   3  2  1  6              -2.1368258    -122.4311016
  17 TORSION   3  2  1  7               2.1057272     120.6492816
  18 TORSION   3  2  1  5              -0.0142434      -0.8160881
  19 TORSION   4  2  1  6               1.0061584      57.6486294
  20 TORSION   4  2  1  5               3.1287408     179.2636429
  21 TORSION   4  2  1  7              -1.0344739     -59.2709874

     ------------------------------------------
     THE POINT GROUP IS C1 , NAXIS= 1, ORDER= 1
     ------------------------------------------

     DIMENSIONS OF THE SYMMETRY SUBSPACES ARE
 A   =   66

 ..... DONE SETTING UP THE RUN .....
 STEP CPU TIME =     0.02 TOTAL CPU TIME =        0.0 (    0.0 MIN)
 TOTAL WALL CLOCK TIME=        0.0 SECONDS, CPU UTILIZATION IS 100.00%

                    --------------------------------
                    SINGLE POINT ENERGY AND GRADIENT
                    --------------------------------

          ********************
          1 ELECTRON INTEGRALS
          ********************
 ...... END OF ONE-ELECTRON INTEGRALS ......
 STEP CPU TIME =     0.00 TOTAL CPU TIME =        0.0 (    0.0 MIN)
 TOTAL WALL CLOCK TIME=        0.0 SECONDS, CPU UTILIZATION IS 100.00%

          -------------
          GUESS OPTIONS
          -------------
          GUESS =HUCKEL            NORB  =       0          NORDER=       0
          MIX   =       F          PRTMO =       F          PUNMO =       F
          TOLZ  = 1.0E-08          TOLE  = 1.0E-05
          SYMDEN=       F          PURIFY=       F

 INITIAL GUESS ORBITALS GENERATED BY HUCKEL   ROUTINE.
 HUCKEL GUESS REQUIRES     39228 WORDS.

 SYMMETRIES FOR INITIAL GUESS ORBITALS FOLLOW.   BOTH SET(S).
    16 ORBITALS ARE OCCUPIED (    4 CORE ORBITALS).
     5=A        6=A        7=A        8=A        9=A       10=A       11=A   
    12=A       13=A       14=A       15=A       16=A       17=A       18=A   
    19=A       20=A       21=A       22=A       23=A       24=A       25=A   
    26=A   
 ...... END OF INITIAL ORBITAL SELECTION ......
 STEP CPU TIME =     0.00 TOTAL CPU TIME =        0.0 (    0.0 MIN)
 TOTAL WALL CLOCK TIME=        0.0 SECONDS, CPU UTILIZATION IS  66.67%

                    ----------------------
                    AO INTEGRAL TECHNOLOGY
                    ----------------------
     S,P,L SHELL ROTATED AXIS INTEGRALS, REPROGRAMMED BY
        KAZUYA ISHIMURA (IMS) AND JOSE SIERRA (SYNSTAR).
     S,P,D,L SHELL ROTATED AXIS INTEGRALS PROGRAMMED BY
        KAZUYA ISHIMURA (INSTITUTE FOR MOLECULAR SCIENCE).
     S,P,D,F,G SHELL TO TOTAL QUARTET ANGULAR MOMENTUM SUM 5,
        ERIC PROGRAM BY GRAHAM FLETCHER (ELORET AND NASA ADVANCED
        SUPERCOMPUTING DIVISION, AMES RESEARCH CENTER).
     S,P,D,F,G,L SHELL GENERAL RYS QUADRATURE PROGRAMMED BY
        MICHEL DUPUIS (PACIFIC NORTHWEST NATIONAL LABORATORY).

          --------------------
          2 ELECTRON INTEGRALS
          --------------------

 THE -PK- OPTION IS OFF, THE INTEGRALS ARE NOT IN SUPERMATRIX FORM.
 STORING   15000 INTEGRALS/RECORD ON DISK, USING 12 BYTES/INTEGRAL.
 TWO ELECTRON INTEGRAL EVALUATION REQUIRES   90649 WORDS OF MEMORY.
 SCHWARZ INEQUALITY OVERHEAD:      2208 INTEGRALS, T=        0.00
 II,JST,KST,LST =  1  1  1  1 NREC =         1 INTLOC =    1
 II,JST,KST,LST =  2  1  1  1 NREC =         1 INTLOC =    2
 II,JST,KST,LST =  3  1  1  1 NREC =         1 INTLOC =   34
 II,JST,KST,LST =  4  1  1  1 NREC =         1 INTLOC =  214
 II,JST,KST,LST =  5  1  1  1 NREC =         1 INTLOC = 1189
 II,JST,KST,LST =  6  1  1  1 NREC =         1 INTLOC = 3189
 II,JST,KST,LST =  7  1  1  1 NREC =         2 INTLOC =  910
 II,JST,KST,LST =  8  1  1  1 NREC =         3 INTLOC = 8136
 II,JST,KST,LST =  9  1  1  1 NREC =         7 INTLOC = 5999
 II,JST,KST,LST = 10  1  1  1 NREC =         8 INTLOC = 3855
 II,JST,KST,LST = 11  1  1  1 NREC =        13 INTLOC = 2105
 II,JST,KST,LST = 12  1  1  1 NREC =        20 INTLOC = 1314
 II,JST,KST,LST = 13  1  1  1 NREC =        34 INTLOC =14532
 II,JST,KST,LST = 14  1  1  1 NREC =        37 INTLOC = 5399
 II,JST,KST,LST = 15  1  1  1 NREC =        51 INTLOC = 9634
 II,JST,KST,LST = 16  1  1  1 NREC =        70 INTLOC = 8166
 II,JST,KST,LST = 17  1  1  1 NREC =       106 INTLOC =12758
 II,JST,KST,LST = 18  1  1  1 NREC =       113 INTLOC = 8492
 II,JST,KST,LST = 19  1  1  1 NREC =       121 INTLOC = 5614
 II,JST,KST,LST = 20  1  1  1 NREC =       129 INTLOC = 2550
 II,JST,KST,LST = 21  1  1  1 NREC =       137 INTLOC =11929
 II,JST,KST,LST = 22  1  1  1 NREC =       146 INTLOC = 5459
 SCHWARZ INEQUALITY TEST SKIPPED        1972 INTEGRAL BLOCKS.
 TOTAL NUMBER OF NONZERO TWO-ELECTRON INTEGRALS =             2322306
        155 INTEGRAL RECORDS WERE STORED ON DISK FILE  8.
  ...... END OF TWO-ELECTRON INTEGRALS .....
 STEP CPU TIME =     0.15 TOTAL CPU TIME =        0.2 (    0.0 MIN)
 TOTAL WALL CLOCK TIME=        0.2 SECONDS, CPU UTILIZATION IS 100.00%

          -------------------------------------
          ---- POLARISABLE CONTINUUM MODEL ----
          ----      UNIVERSITY OF PISA     ----
          -------------------------------------

     ----------------------------
     INPUT FOR TESSERA DEFINITION
     ----------------------------
     NTSALL  =        60     MTHALL  =         4
     MTHAUT  =         0     AUTFRE  =    2.0000
     NTSFRZ  =        60     KEEPSM  =         0
     AREAKP  =   10.0000     BONDRY  =    1.0000
     AREATL  =    0.0100

     SPHERE     INITS       METHOD
          1        60       FIXPVA
          2        60       FIXPVA
          3        60       FIXPVA
          4        60       FIXPVA
          5        60       FIXPVA
          6        60       FIXPVA
          7        60       FIXPVA

     ------------------------------
      FIXPVA TESSELLATION FOR PCM
         PEIFENG SU AND HUI LI
     UNIVERSITY OF NEBRASKA-LINCOLN
     ------------------------------


     INPUT FOR CAVITY DEFINITION 
     ---------------------------
   ATOM               COORDINATES                RADIUS       EPS
      1     -0.1972      0.0135     -1.3828      1.7700     78.3900
      2      0.0637      0.0033      0.1492      1.7700     78.3900
      3      1.2473     -0.0025      0.4961      1.5900     78.3900
      4     -0.9587      0.0007      0.8425      1.5900     78.3900
      5      0.7264      0.0285     -1.9535      0.0100     78.3900
      6     -0.7980      0.8817     -1.6482      0.0100     78.3900
      7     -0.7767     -0.8649     -1.6620      0.0100     78.3900

 MEMORY USED TO GENERATE CAVITY=    211102


 TOTAL NUMBER OF SPHERES=     7
 SPHERE           CENTER  (X,Y,Z) (A)               RADIUS (A)      AREA(A*A)
     1  -0.197230323   0.013497193  -1.382759580   2.124000000  35.817103142
     2   0.063744802   0.003305312   0.149195818   2.124000000   7.023930343
     3   1.247250814  -0.002486614   0.496057305   1.908000000  22.566232091
     4  -0.958730152   0.000662461   0.842516113   1.908000000  23.358677535
     5   0.726409290   0.028466041  -1.953518291   0.012000000   0.000000000
     6  -0.797976990   0.881676727  -1.648170963   0.012000000   0.000000000
     7  -0.776715340  -0.864903236  -1.662030248   0.012000000   0.000000000

 TOTAL NUMBER OF TESSERAE=     114
 SURFACE AREA=    88.76594311(A**2)    CAVITY VOLUME=     75.63204385 (A**3)
 STEP CPU TIME =     0.00 TOTAL CPU TIME =        0.2 (    0.0 MIN)
 TOTAL WALL CLOCK TIME=        0.2 SECONDS, CPU UTILIZATION IS  94.44%

          THE SOLUTE IS ENCLOSED IN ONE CAVITY
 DONE CHECKING SEPARATION.
 STEP CPU TIME =     0.00 TOTAL CPU TIME =        0.2 (    0.0 MIN)
 TOTAL WALL CLOCK TIME=        0.2 SECONDS, CPU UTILIZATION IS  94.44%

 ..... DONE GENERATING CAVITY .....
 STEP CPU TIME =     0.00 TOTAL CPU TIME =        0.2 (    0.0 MIN)
 TOTAL WALL CLOCK TIME=        0.2 SECONDS, CPU UTILIZATION IS  94.44%
 NUCLEI-NUCLEAR CHARGE POLARIZATION ADJUSTMENT TO VNN=        0.0000000000

          --------------------------
             R-B3LYP SCF CALCULATION
          --------------------------

     NUCLEAR ENERGY =       113.0344089396
     MAXIT =   30     NPUNCH=    2
     EXTRAP=T  DAMP=F  SHIFT=F  RSTRCT=F  DIIS=T  DEM=F  SOSCF=F
         DENSITY MATRIX CONVERGENCE THRESHOLD=  1.00E-05
     COARSE -> FINE DFT GRID SWITCH THRESHOLD=  3.00E-04 (SWITCH IN $DFT)
                   HF -> DFT SWITCH THRESHOLD=  5.00E-03 (SWOFF IN $DFT)
     MEMORY REQUIRED FOR RHF ITERS=    388370 WORDS.

     EXCHANGE FUNCTIONAL   =B88&HFX   
     CORRELATION FUNCTIONAL=LYP88&VWN5
     DFT THRESHOLD         =.493E-08
     GRID CHANGE THRESHOLD =.300E-03
 FOR AN EULER-MACLAURIN QUADRATURE USING  96 RADIAL POINTS:
 SMALLEST GAUSSIAN PRIMITIVE EXPONENT=        0.1612777588 OF TYPE -S-
 ON ATOM NUMBER   5 HAS RADIAL NORMALIZATION=  1.000000
  LARGEST GAUSSIAN PRIMITIVE EXPONENT=     5484.6716600000 OF TYPE -S-
 ON ATOM NUMBER   3 HAS RADIAL NORMALIZATION=  1.000000
 DFT IS SWITCHED OFF, PERFORMING PURE SCF UNTIL SWOFF THRESHOLD IS REACHED.

 ITER EX DEM     TOTAL ENERGY        E CHANGE  DENSITY CHANGE    DIIS ERROR
   1  0  0     -226.5990093005  -226.5990093005   0.316169747   0.807043724
          * * *   INITIATING DIIS PROCEDURE   * * *
   2  1  0     -227.2360581427    -0.6370488422   0.154925183   0.155645686
   3  2  0     -227.2978973872    -0.0618392445   0.059914994   0.083143732
   4  3  0     -227.3305562162    -0.0326588291   0.011896631   0.011240299
   5  4  0     -227.3312919250    -0.0007357087   0.003624214   0.003560603
 CONVERGED TO SWOFF, SO DFT CALCULATION IS NOW SWITCHED ON.
          * * *   INITIATING DIIS PROCEDURE   * * *
   6  5  0     -228.4569432586    -1.1256513336   0.129967678   0.084252281
   7  6  0     -228.4750483074    -0.0181050488   0.052039228   0.032088981
   8  7  0     -228.4752231837    -0.0001748763   0.028290612   0.033946677
   9  8  0     -228.4797191168    -0.0044959331   0.007255752   0.007496825
  10  9  0     -228.4798669346    -0.0001478178   0.000413868   0.000375118
  11 10  0     -228.4798673713    -0.0000004367   0.000211878   0.000151512
  12 11  0     -228.4798675169    -0.0000001456   0.000097347   0.000089864
  13 12  0     -228.4798675431    -0.0000000262   0.000024899   0.000028739
  14 13  0     -228.4798675471    -0.0000000041   0.000001725   0.000001688
  15 14  0     -228.4798675471     0.0000000000   0.000000310   0.000000256

          -----------------
          DENSITY CONVERGED
          -----------------
     TIME TO FORM FOCK OPERATORS=      11.7 SECONDS (       0.8 SEC/ITER)
     TIME TO SOLVE SCF EQUATIONS=       0.0 SECONDS (       0.0 SEC/ITER)

 FINAL R-B3LYP ENERGY IS     -228.4798675471 AFTER  15 ITERATIONS
 DFT EXCHANGE + CORRELATION ENERGY =       -23.7355407431
 TOTAL ELECTRON NUMBER             =        31.9999159486
  
   PCM ASC=      0.9696940935
   GCAVP  =      0.0000000000
   GDISP  =      0.0000000000
   GREP   =      0.0000000000

          ------------
          EIGENVECTORS
          ------------

                      1          2          3          4          5
                  -19.0300   -19.0278   -10.2155   -10.1305    -0.9762
                     A          A          A          A          A   
    1  C  1  S    0.000014   0.000030   0.000914   0.992872  -0.022581
    2  C  1  S    0.000141   0.000220  -0.000265   0.050282   0.042415
    3  C  1  X   -0.000026  -0.000033  -0.000059  -0.000165   0.004627
    4  C  1  Y   -0.000001  -0.000001   0.000001  -0.000003  -0.000226
    5  C  1  Z    0.000018   0.000006  -0.000234  -0.000289   0.030401
    6  C  1  S   -0.000586  -0.001003   0.004783  -0.017340   0.004154
    7  C  1  X    0.000729  -0.000428   0.000500  -0.000064   0.000428
    8  C  1  Y    0.000010   0.000012  -0.000013   0.000014   0.000031
    9  C  1  Z   -0.000652  -0.000451   0.002503  -0.000834  -0.004588
   10  C  1 XX    0.000009  -0.000025  -0.000173  -0.009208  -0.000484
   11  C  1 YY    0.000010   0.000067  -0.000170  -0.009190  -0.000693
   12  C  1 ZZ   -0.000081  -0.000055  -0.000457  -0.009358   0.007952
   13  C  1 XY    0.000001  -0.000001   0.000000   0.000000  -0.000010
   14  C  1 XZ    0.000009  -0.000024  -0.000059  -0.000067   0.001786
   15  C  1 YZ    0.000000   0.000001   0.000002   0.000001  -0.000070
   16  C  2  S   -0.000003  -0.000005   0.992940  -0.001194  -0.143439
   17  C  2  S    0.000457   0.000450   0.048458  -0.000411   0.275497
   18  C  2  X    0.000068  -0.000073   0.000085   0.000029   0.016073
   19  C  2  Y   -0.000000  -0.000000  -0.000005  -0.000001  -0.000750
   20  C  2  Z   -0.000003   0.000028   0.000539   0.000043   0.088371
   21  C  2  S   -0.002730  -0.002496  -0.006703   0.003711   0.089058
   22  C  2  X   -0.003726   0.002702   0.000855   0.000215  -0.007614
   23  C  2  Y    0.000017   0.000008  -0.000033   0.000021   0.000237
   24  C  2  Z   -0.001207  -0.002299   0.004717  -0.002836  -0.031458
   25  C  2 XX   -0.000740  -0.000567  -0.007881  -0.000218   0.017064
   26  C  2 YY   -0.000040  -0.000048  -0.009593  -0.000191  -0.025126
   27  C  2 ZZ   -0.000069  -0.000225  -0.009078  -0.000411  -0.015094
   28  C  2 XY    0.000004  -0.000001  -0.000004   0.000000  -0.000085
   29  C  2 XZ   -0.000188   0.000376  -0.000206  -0.000037  -0.005544
   30  C  2 YZ    0.000001   0.000001  -0.000004   0.000002  -0.000066
   31  O  3  S    0.992711   0.001917  -0.000105  -0.000024  -0.132076
   32  O  3  S    0.025592   0.000204   0.000404  -0.000133   0.282585
   33  O  3  X   -0.000915  -0.000021   0.000037   0.000022  -0.111803
   34  O  3  Y    0.000004   0.000001  -0.000001   0.000001   0.000495
   35  O  3  Z   -0.000247  -0.000105   0.000122  -0.000003  -0.026507
   36  O  3  S    0.014525  -0.000790  -0.002658   0.000137   0.271082
   37  O  3  X   -0.001746  -0.000093   0.002155  -0.000227  -0.041415
   38  O  3  Y    0.000010  -0.000004  -0.000005  -0.000004   0.000143
   39  O  3  Z   -0.000518   0.000533  -0.000255   0.000288  -0.003251
   40  O  3 XX   -0.007770   0.000074  -0.000373   0.000034   0.009504
   41  O  3 YY   -0.008224   0.000060   0.000435  -0.000178  -0.005248
   42  O  3 ZZ   -0.008167   0.000079   0.000259  -0.000031  -0.007444
   43  O  3 XY   -0.000003  -0.000001   0.000004  -0.000000  -0.000075
   44  O  3 XZ    0.000162   0.000089  -0.000153  -0.000003   0.003827
   45  O  3 YZ   -0.000001  -0.000000   0.000002  -0.000000   0.000013
   46  O  4  S   -0.001851   0.992727  -0.000106  -0.000079  -0.129473
   47  O  4  S    0.000137   0.025666   0.000386  -0.000377   0.277483
   48  O  4  X   -0.000010   0.000791   0.000001  -0.000018   0.096689
   49  O  4  Y    0.000001   0.000002  -0.000001   0.000000   0.000190
   50  O  4  Z   -0.000100  -0.000524   0.000125   0.000043  -0.058647
   51  O  4  S   -0.001101   0.014019  -0.002487   0.001593   0.262500
   52  O  4  X    0.000204   0.001429  -0.002090   0.000467   0.037602
   53  O  4  Y   -0.000004   0.000004   0.000001  -0.000002   0.000019
   54  O  4  Z    0.000496  -0.000907   0.000392  -0.000209  -0.015106
   55  O  4 XX    0.000079  -0.007840  -0.000243  -0.000141   0.006263
   56  O  4 YY    0.000100  -0.008176   0.000428  -0.000356  -0.005002
   57  O  4 ZZ    0.000176  -0.008007   0.000109  -0.000120  -0.003567
   58  O  4 XY    0.000001   0.000001  -0.000001  -0.000000   0.000034
   59  O  4 XZ   -0.000072  -0.000250   0.000338  -0.000036  -0.008726
   60  O  4 YZ   -0.000000  -0.000001   0.000002  -0.000001   0.000013
   61  H  5  S    0.000014   0.000087  -0.000183  -0.000075   0.009093
   62  H  5  S   -0.000493  -0.000045   0.000109   0.002775  -0.000304
   63  H  6  S    0.000043   0.000053  -0.000211  -0.000072   0.008878
   64  H  6  S    0.000077  -0.000021   0.000249   0.002854   0.001379
   65  H  7  S    0.000041   0.000053  -0.000212  -0.000071   0.008856
   66  H  7  S    0.000082  -0.000007   0.000254   0.002859   0.001420

                      6          7          8          9         10
                   -0.8881    -0.6697    -0.4454    -0.3905    -0.3806
                     A          A          A          A          A   
    1  C  1  S   -0.001106  -0.190692   0.031436  -0.000107  -0.002469
    2  C  1  S    0.002669   0.366373  -0.059252   0.000228   0.004403
    3  C  1  X   -0.015922  -0.007828   0.046813   0.001076   0.357462
    4  C  1  Y    0.000013  -0.000264  -0.001869   0.355220  -0.000703
    5  C  1  Z    0.003654  -0.005470   0.270730   0.002382  -0.054034
    6  C  1  S   -0.001067   0.337539  -0.074180   0.000328   0.010211
    7  C  1  X   -0.015370  -0.000386   0.028565   0.000510   0.173810
    8  C  1  Y    0.000026   0.000061  -0.000350   0.163936  -0.000367
    9  C  1  Z    0.003110  -0.012210   0.098622   0.001151  -0.025497
   10  C  1 XX   -0.001334   0.001566  -0.008785   0.000506   0.008700
   11  C  1 YY    0.000633   0.002303  -0.007442  -0.000561  -0.013914
   12  C  1 ZZ    0.000994  -0.004018   0.015260   0.000037   0.004522
   13  C  1 XY   -0.000003   0.000012  -0.000023  -0.017592   0.000651
   14  C  1 XZ   -0.002850  -0.001132   0.004920  -0.000227  -0.011761
   15  C  1 YZ    0.000009   0.000037  -0.000185  -0.003733  -0.000210
   16  C  2  S   -0.001153  -0.034425  -0.131941  -0.000052   0.001215
   17  C  2  S    0.002074   0.068696   0.295437   0.000132  -0.002631
   18  C  2  X   -0.279430  -0.025798  -0.022401   0.000557   0.189780
   19  C  2  Y    0.000401   0.001099   0.000950   0.244601  -0.000289
   20  C  2  Z    0.043362  -0.165116  -0.145163   0.000877  -0.054357
   21  C  2  S    0.001967   0.056155   0.207318  -0.000197  -0.008304
   22  C  2  X    0.013435  -0.011327  -0.025587   0.000311   0.014457
   23  C  2  Y   -0.000019   0.000144   0.000526   0.121707  -0.000061
   24  C  2  Z   -0.002591  -0.028043  -0.084881   0.000614  -0.008782
   25  C  2 XX   -0.008028  -0.011018  -0.018211   0.000038  -0.002084
   26  C  2 YY   -0.000201  -0.001248  -0.009432  -0.000013  -0.000125
   27  C  2 ZZ    0.008308   0.012812  -0.010129  -0.000016   0.003121
   28  C  2 XY    0.000258  -0.000002   0.000018  -0.001554   0.000111
   29  C  2 XZ   -0.029740   0.005153   0.001642  -0.000027  -0.010996
   30  C  2 YZ    0.000002  -0.000098   0.000023  -0.002006  -0.000003
   31  O  3  S    0.150651   0.033962   0.073623  -0.000026   0.042783
   32  O  3  S   -0.321735  -0.075165  -0.158182  -0.000024  -0.089746
   33  O  3  X    0.090941   0.008466  -0.172673   0.000827  -0.136975
   34  O  3  Y   -0.000548   0.000186   0.001234   0.164300   0.001377
   35  O  3  Z    0.040067  -0.035557  -0.116338   0.000634  -0.143662
   36  O  3  S   -0.330780  -0.086879  -0.249818   0.000334  -0.169527
   37  O  3  X    0.021453  -0.000635  -0.115605   0.000391  -0.078203
   38  O  3  Y   -0.000179   0.000131   0.000766   0.097078   0.000882
   39  O  3  Z    0.015438  -0.017502  -0.063911   0.000307  -0.092716
   40  O  3 XX    0.001523   0.000038   0.018466  -0.000110   0.008371
   41  O  3 YY    0.006016   0.000395   0.000397   0.000073   0.000055
   42  O  3 ZZ    0.005746   0.003388   0.004858  -0.000052   0.007050
   43  O  3 XY    0.000057  -0.000023  -0.000133  -0.011681  -0.000078
   44  O  3 XZ   -0.005398   0.003710   0.010956  -0.000062   0.008214
   45  O  3 YZ    0.000013  -0.000036  -0.000067  -0.004026  -0.000085
   46  O  4  S   -0.152212   0.036863   0.074095  -0.000064  -0.048336
   47  O  4  S    0.325004  -0.079218  -0.155792   0.000051   0.097609
   48  O  4  X    0.075291  -0.019495   0.127062  -0.000193  -0.124950
   49  O  4  Y    0.000314   0.000232   0.000798   0.170064  -0.001164
   50  O  4  Z   -0.067129  -0.031883  -0.161595   0.000948   0.165007
   51  O  4  S    0.333745  -0.105180  -0.267896   0.000523   0.202605
   52  O  4  X    0.016101  -0.006411   0.086935  -0.000027  -0.066728
   53  O  4  Y    0.000123   0.000122   0.000446   0.102439  -0.000753
   54  O  4  Z   -0.021637  -0.014295  -0.090949   0.000467   0.098979
   55  O  4 XX   -0.004598  -0.000487   0.012869  -0.000030  -0.008262
   56  O  4 YY   -0.006059   0.001239   0.001507   0.000022  -0.001695
   57  O  4 ZZ   -0.002528   0.005674   0.012764  -0.000095  -0.011259
   58  O  4 XY    0.000042   0.000015   0.000062   0.009820  -0.000043
   59  O  4 XZ   -0.005860  -0.001727  -0.013208   0.000047   0.007060
   60  O  4 YZ   -0.000014  -0.000033  -0.000060  -0.007864   0.000078
   61  H  5  S   -0.003256   0.126995  -0.086759   0.002986   0.211537
   62  H  5  S    0.001117   0.033032  -0.075663   0.002570   0.173301
   63  H  6  S    0.002735   0.131491  -0.082021   0.178911  -0.114784
   64  H  6  S    0.000845   0.038914  -0.058675   0.153731  -0.093822
   65  H  7  S    0.002637   0.131647  -0.081774  -0.182321  -0.109241
   66  H  7  S    0.000863   0.039077  -0.058037  -0.156568  -0.089287

                     11         12         13         14         15
                   -0.3746    -0.3360    -0.3129    -0.1988    -0.1802
                     A          A          A          A          A   
    1  C  1  S   -0.005098   0.001293   0.000054   0.000002  -0.050156
    2  C  1  S    0.012747  -0.003549  -0.000102  -0.000009   0.092002
    3  C  1  X   -0.021936  -0.242088  -0.000503   0.000164   0.058913
    4  C  1  Y    0.001764   0.000287  -0.261105  -0.013807  -0.001170
    5  C  1  Z   -0.215423   0.049585  -0.001218  -0.000126   0.278574
    6  C  1  S   -0.016353  -0.000300  -0.000092  -0.000012   0.389393
    7  C  1  X   -0.002236  -0.086086  -0.000258   0.002664   0.090883
    8  C  1  Y    0.001651   0.000046  -0.131507  -0.059501   0.000420
    9  C  1  Z   -0.149498   0.020424  -0.000430  -0.000877   0.227704
   10  C  1 XX    0.005001  -0.003717  -0.000426  -0.000026  -0.009023
   11  C  1 YY    0.005736   0.009555   0.000310   0.000011  -0.002432
   12  C  1 ZZ   -0.005365  -0.005921   0.000128   0.000010   0.003445
   13  C  1 XY    0.000025  -0.000529   0.016913  -0.002490  -0.000019
   14  C  1 XZ   -0.002280   0.017821   0.000232   0.000001   0.002349
   15  C  1 YZ    0.000082   0.000145   0.015244   0.001584  -0.000091
   16  C  2  S   -0.037338   0.001969   0.000024   0.000000  -0.002529
   17  C  2  S    0.087513  -0.004995  -0.000082  -0.000003   0.009356
   18  C  2  X    0.073500   0.296264   0.000668  -0.000123  -0.022736
   19  C  2  Y   -0.001839  -0.000357   0.280487   0.001123   0.001062
   20  C  2  Z    0.338289  -0.054487   0.001656   0.000038  -0.135984
   21  C  2  S    0.076988  -0.002845   0.000245   0.000022   0.094439
   22  C  2  X    0.000066   0.002008   0.000496  -0.001454  -0.000913
   23  C  2  Y   -0.000155   0.000005   0.175812   0.012560  -0.001535
   24  C  2  Z    0.057947   0.000460   0.001413   0.000286   0.174696
   25  C  2 XX   -0.012292   0.004046   0.000008  -0.000221  -0.035966
   26  C  2 YY   -0.007389   0.000780  -0.000215   0.000107   0.005337
   27  C  2 ZZ   -0.001279  -0.004331   0.000225   0.000114   0.044471
   28  C  2 XY    0.000004  -0.000161   0.004521  -0.043759   0.000025
   29  C  2 XZ    0.001558   0.015174   0.000078  -0.000395   0.013315
   30  C  2 YZ   -0.000049   0.000010   0.018128   0.007057  -0.000366
   31  O  3  S    0.053866   0.041258  -0.000049  -0.000026   0.007689
   32  O  3  S   -0.104217  -0.075127   0.000142  -0.000128  -0.016999
   33  O  3  X   -0.301866  -0.290005   0.001200  -0.000728   0.052902
   34  O  3  Y    0.000600   0.001599   0.296112  -0.444072  -0.003066
   35  O  3  Z    0.113229  -0.122860   0.002185  -0.003955   0.386615
   36  O  3  S   -0.234881  -0.190150   0.000039   0.001073  -0.078445
   37  O  3  X   -0.180113  -0.174214   0.000864  -0.000862   0.068944
   38  O  3  Y    0.000309   0.000975   0.192135  -0.360961  -0.002252
   39  O  3  Z    0.080651  -0.078985   0.001439  -0.003332   0.287476
   40  O  3 XX    0.027107   0.017602  -0.000102   0.000006  -0.004430
   41  O  3 YY    0.002578   0.002742   0.000165  -0.000227   0.002652
   42  O  3 ZZ   -0.001558   0.005454  -0.000042   0.000053   0.001307
   43  O  3 XY   -0.000082  -0.000112  -0.017711   0.017280   0.000088
   44  O  3 XZ   -0.005786   0.008969  -0.000142   0.000179  -0.009873
   45  O  3 YZ    0.000035  -0.000044  -0.004248   0.007000   0.000036
   46  O  4  S    0.045854  -0.045165  -0.000057   0.000021   0.008252
   47  O  4  S   -0.085903   0.083468   0.000163   0.000148  -0.009546
   48  O  4  X    0.294614  -0.256611   0.000319   0.001771   0.085836
   49  O  4  Y   -0.000464  -0.000807   0.279642   0.456197  -0.003261
   50  O  4  Z    0.047207   0.209248   0.002233   0.003871   0.399908
   51  O  4  S   -0.213172   0.204518   0.000084  -0.001064  -0.120900
   52  O  4  X    0.178800  -0.154994   0.000127   0.001209   0.028931
   53  O  4  Y   -0.000354  -0.000504   0.179775   0.366110  -0.002399
   54  O  4  Z    0.043456   0.130439   0.001476   0.003319   0.317939
   55  O  4 XX    0.026544  -0.013314   0.000049   0.000156   0.004826
   56  O  4 YY    0.003050  -0.002518   0.000075   0.000151   0.005533
   57  O  4 ZZ   -0.003266  -0.011257  -0.000105  -0.000128  -0.002878
   58  O  4 XY   -0.000002  -0.000056   0.015179   0.014375  -0.000071
   59  O  4 XZ   -0.003463   0.011725   0.000102   0.000092   0.010520
   60  O  4 YZ    0.000033   0.000041  -0.008826  -0.012128   0.000042
   61  H  5  S    0.062996  -0.168313  -0.002573  -0.000173  -0.035217
   62  H  5  S    0.019334  -0.179042  -0.002391  -0.001849  -0.135697
   63  H  6  S    0.049436   0.086076  -0.155777  -0.004231  -0.028630
   64  H  6  S    0.029359   0.091926  -0.150905   0.046389  -0.076492
   65  H  7  S    0.049246   0.081871   0.158415   0.004431  -0.028676
   66  H  7  S    0.029850   0.087359   0.153505  -0.044574  -0.074818

                     16         17         18         19         20
                   -0.1781     0.1186     0.1513     0.2028     0.2225
                     A          A          A          A          A   
    1  C  1  S   -0.002376   0.000298  -0.144471   0.006811  -0.000152
    2  C  1  S    0.002296  -0.000567   0.153961  -0.010890   0.000571
    3  C  1  X    0.081984   0.000030  -0.075156  -0.378220   0.000146
    4  C  1  Y   -0.000194   0.096563  -0.000250   0.000265   0.410914
    5  C  1  Z   -0.005860  -0.000280  -0.171440   0.142953  -0.000401
    6  C  1  S    0.024878  -0.004008   2.404551  -0.104111   0.001350
    7  C  1  X    0.025908   0.000438  -0.280226  -1.366828   0.000220
    8  C  1  Y   -0.000216   0.458150  -0.002333   0.000850   1.337648
    9  C  1  Z    0.001492   0.000394  -0.497752   0.511886  -0.003192
   10  C  1 XX    0.000607  -0.000296  -0.011176   0.011462  -0.000402
   11  C  1 YY   -0.004575  -0.000003  -0.016339  -0.009473   0.000446
   12  C  1 ZZ    0.003024   0.000261  -0.005983   0.001798  -0.000114
   13  C  1 XY    0.000244   0.015073   0.000029   0.000556   0.006723
   14  C  1 XZ   -0.009957   0.000224   0.001941  -0.008853   0.000098
   15  C  1 YZ   -0.000061   0.029446   0.000035  -0.000165  -0.016833
   16  C  2  S    0.000063  -0.000258   0.014447   0.012885  -0.000569
   17  C  2  S    0.000528  -0.000231   0.041311   0.008704  -0.000390
   18  C  2  X    0.027816   0.001255  -0.004733  -0.024852  -0.000766
   19  C  2  Y   -0.000012   0.497470   0.001381  -0.000168  -0.251393
   20  C  2  Z   -0.008567   0.003398  -0.003078   0.018983  -0.002593
   21  C  2  S   -0.006357   0.005965  -0.560596  -0.319039   0.014574
   22  C  2  X   -0.154735   0.001167   0.011538   0.268707  -0.002169
   23  C  2  Y    0.000217   0.480495   0.003265  -0.001315  -0.526131
   24  C  2  Z    0.029767   0.002181  -0.094107   0.075033  -0.009408
   25  C  2 XX    0.008295  -0.000100  -0.000916   0.010805  -0.000162
   26  C  2 YY   -0.000093   0.000385  -0.001414  -0.004048   0.000196
   27  C  2 ZZ   -0.007782  -0.000463   0.003354   0.002293  -0.000427
   28  C  2 XY   -0.000339  -0.003385  -0.000016  -0.000143   0.000783
   29  C  2 XZ    0.033564  -0.000095   0.002609   0.024056  -0.000026
   30  C  2 YZ   -0.000010  -0.023912  -0.000055  -0.000125  -0.004223
   31  O  3  S   -0.005097   0.000034  -0.019659  -0.003129  -0.000019
   32  O  3  S    0.002889   0.000134   0.031538   0.020181   0.000681
   33  O  3  X   -0.225998  -0.000445  -0.014961  -0.062340   0.001245
   34  O  3  Y   -0.003262  -0.323732  -0.000425  -0.001158   0.110861
   35  O  3  Z    0.413661  -0.002695  -0.049231  -0.025148  -0.000162
   36  O  3  S    0.098481  -0.001323   0.247482  -0.070533  -0.002359
   37  O  3  X   -0.193263  -0.000154  -0.128673  -0.025031   0.001857
   38  O  3  Y   -0.002343  -0.360727  -0.000296  -0.000278   0.199888
   39  O  3  Z    0.302447  -0.002619  -0.050848  -0.040829   0.001803
   40  O  3 XX    0.007441   0.000004   0.007617   0.000662   0.000264
   41  O  3 YY   -0.003413   0.000246  -0.009203   0.000045   0.000350
   42  O  3 ZZ   -0.012586  -0.000075  -0.007397   0.004249  -0.000049
   43  O  3 XY    0.000076  -0.008673  -0.000137   0.000081   0.005963
   44  O  3 XZ   -0.010774  -0.000061   0.006123  -0.005984   0.000123
   45  O  3 YZ    0.000118  -0.006743  -0.000015  -0.000190  -0.003953
   46  O  4  S    0.005502   0.000028  -0.018301   0.004127  -0.000021
   47  O  4  S   -0.005803   0.000069   0.033649  -0.047121   0.000605
   48  O  4  X   -0.336683  -0.001270  -0.000030   0.008168  -0.000838
   49  O  4  Y    0.003936  -0.289634  -0.000439   0.001112   0.182505
   50  O  4  Z   -0.303795  -0.002316  -0.040264   0.074518   0.000741
   51  O  4  S   -0.096262  -0.001024   0.247374   0.164866  -0.002143
   52  O  4  X   -0.272788  -0.001614   0.114239   0.048513  -0.000616
   53  O  4  Y    0.002928  -0.342029  -0.000694   0.000539   0.223855
   54  O  4  Z   -0.216001  -0.002343  -0.066968   0.025255   0.002326
   55  O  4 XX   -0.011583   0.000029   0.006727  -0.009570   0.000120
   56  O  4 YY    0.002519   0.000153  -0.007927  -0.014202   0.000250
   57  O  4 ZZ    0.015721  -0.000084   0.000013  -0.002942   0.000116
   58  O  4 XY    0.000078   0.007882   0.000081   0.000076  -0.003051
   59  O  4 XZ   -0.001462   0.000006  -0.009332   0.001122  -0.000173
   60  O  4 YZ   -0.000127  -0.006471  -0.000036   0.000065   0.005744
   61  H  5  S    0.066550  -0.001737  -0.012536   0.097605  -0.000821
   62  H  5  S    0.061192  -0.009096  -0.971428   1.961838  -0.028129
   63  H  6  S   -0.037941  -0.101861  -0.024000  -0.038584  -0.035145
   64  H  6  S   -0.042414  -0.614814  -1.257518  -0.787419  -1.437849
   65  H  7  S   -0.036204   0.103411  -0.023820  -0.036320   0.035125
   66  H  7  S   -0.040894   0.626833  -1.261605  -0.740742   1.450128

                     21         22         23         24         25
                    0.2836     0.3640     0.4413     0.5774     0.6274
                     A          A          A          A          A   
    1  C  1  S    0.081987  -0.033482  -0.000395  -0.000100   0.035529
    2  C  1  S   -0.057573  -0.051550  -0.025208   0.000522  -0.293903
    3  C  1  X   -0.105371  -0.071234  -0.080517  -0.001450  -0.107031
    4  C  1  Y   -0.001763   0.000348   0.000130  -0.458612   0.004902
    5  C  1  Z   -0.200268  -0.221061   0.031241  -0.001180  -0.888218
    6  C  1  S   -1.387721   1.220517   0.089951  -0.006176   0.503702
    7  C  1  X   -0.428636   0.100576  -0.949195   0.002631   0.091653
    8  C  1  Y    0.004978  -0.005870   0.000957   0.893322  -0.009906
    9  C  1  Z   -1.700313   0.708852   0.198029  -0.000598   1.568619
   10  C  1 XX   -0.020784  -0.007080   0.001180  -0.002356   0.000647
   11  C  1 YY   -0.011758   0.003869   0.010859   0.002591  -0.031495
   12  C  1 ZZ    0.049546  -0.026264  -0.015705  -0.000554   0.016659
   13  C  1 XY   -0.000080   0.000026  -0.000895   0.076784   0.000343
   14  C  1 XZ    0.013227  -0.005502   0.049637   0.000935   0.002905
   15  C  1 YZ   -0.000489   0.000110   0.000174   0.012803  -0.000392
   16  C  2  S   -0.135007  -0.048492   0.002346   0.000106   0.005685
   17  C  2  S    0.149906  -0.114178   0.005113  -0.002013  -0.031268
   18  C  2  X   -0.065213   0.041009   0.221352  -0.001404  -0.057907
   19  C  2  Y    0.002758  -0.002688  -0.000343  -0.755648   0.000925
   20  C  2  Z   -0.375798   0.297726  -0.036241  -0.001698  -0.608739
   21  C  2  S    2.769127   1.900519  -0.020072   0.010737  -1.348630
   22  C  2  X   -0.177221   0.261482   3.391096  -0.000900   0.267611
   23  C  2  Y    0.007639  -0.014274  -0.005311   0.677132   0.000152
   24  C  2  Z   -0.988804   1.938517  -0.447131  -0.003457   0.647490
   25  C  2 XX   -0.002277   0.023065   0.008289  -0.000086   0.044775
   26  C  2 YY    0.005951   0.017882  -0.001216   0.000212   0.019089
   27  C  2 ZZ   -0.005346  -0.034426  -0.000303  -0.000433  -0.117718
   28  C  2 XY    0.000020   0.000059  -0.000168   0.000670   0.000153
   29  C  2 XZ    0.003643  -0.009542   0.017359  -0.000060  -0.034019
   30  C  2 YZ    0.000221   0.000503  -0.000045  -0.020907   0.000994
   31  O  3  S    0.028885   0.081816   0.093285   0.000033  -0.010090
   32  O  3  S   -0.038240  -0.133170  -0.096210   0.001554   0.004793
   33  O  3  X    0.102154   0.146826  -0.015717  -0.000137  -0.132450
   34  O  3  Y   -0.000896   0.000441  -0.001650  -0.085906  -0.001216
   35  O  3  Z    0.073839  -0.115620   0.144532  -0.001427   0.107811
   36  O  3  S   -0.451131  -1.331888  -2.187554  -0.002594   0.110909
   37  O  3  X    0.260217   0.811972   0.724323   0.000604  -0.143272
   38  O  3  Y   -0.002692  -0.000678  -0.006104  -0.035317   0.000250
   39  O  3  Z    0.256391  -0.211706   0.538084   0.001674  -0.020601
   40  O  3 XX   -0.006164  -0.035960  -0.011446   0.000939  -0.057084
   41  O  3 YY    0.020127   0.041869   0.040256   0.000430   0.002486
   42  O  3 ZZ    0.004687   0.021897   0.041231   0.000311   0.030809
   43  O  3 XY    0.000080   0.000388   0.000328   0.047485   0.000150
   44  O  3 XZ    0.001392  -0.017397  -0.021926   0.000122   0.037744
   45  O  3 YZ    0.000135   0.000244  -0.000042  -0.001945  -0.000325
   46  O  4  S    0.030605   0.084926  -0.088784   0.000064  -0.017463
   47  O  4  S   -0.042589  -0.131117   0.074864   0.001794   0.017520
   48  O  4  X   -0.081237  -0.178410  -0.044294  -0.000607   0.167547
   49  O  4  Y   -0.000786   0.000866   0.001694  -0.049113  -0.001231
   50  O  4  Z    0.113765  -0.059751  -0.126985  -0.001307   0.060880
   51  O  4  S   -0.475580  -1.399680   2.145887  -0.004343   0.295174
   52  O  4  X   -0.176914  -0.851079   0.491754  -0.000470   0.192169
   53  O  4  Y   -0.002149   0.001499   0.004380  -0.059827  -0.000038
   54  O  4  Z    0.335495   0.074759  -0.735727   0.002031  -0.127329
   55  O  4 XX   -0.005394  -0.018868  -0.011352   0.000704  -0.068707
   56  O  4 YY    0.018866   0.044716  -0.045509   0.000723   0.003382
   57  O  4 ZZ    0.005586   0.010309  -0.025740   0.000509   0.040700
   58  O  4 XY    0.000051  -0.000079   0.000157  -0.044130  -0.000023
   59  O  4 XZ    0.001632   0.034102  -0.028854  -0.000254   0.002733
   60  O  4 YZ    0.000111   0.000237   0.000010   0.015941  -0.000188
   61  H  5  S   -0.059618   0.014414  -0.175251  -0.006159   0.166528
   62  H  5  S    0.070172  -0.087367   0.596002  -0.002702   0.232003
   63  H  6  S   -0.071946   0.012296   0.066281  -0.320127   0.089173
   64  H  6  S   -0.226345  -0.196104  -0.277927  -0.148923   0.159350
   65  H  7  S   -0.072440   0.012013   0.062056   0.325314   0.089806
   66  H  7  S   -0.237816  -0.199692  -0.262992   0.151282   0.161526

                     26         27         28         29         30
                    0.6493     0.6695     0.6875     0.7581     0.8378
                     A          A          A          A          A   
    1  C  1  S    0.007626   0.000254  -0.020384   0.000102  -0.045952
    2  C  1  S    0.000892   0.001044  -0.004579  -0.032949   0.102012
    3  C  1  X   -0.782631   0.007462  -0.099475   0.137713  -0.053573
    4  C  1  Y   -0.003560  -0.633880  -0.009841  -0.000400  -0.000377
    5  C  1  Z   -0.055206  -0.011340   0.391376  -0.050000  -0.144520
    6  C  1  S   -0.497698  -0.018023   0.978394   0.094011  -1.006176
    7  C  1  X    2.179212  -0.026922   0.531459  -0.524257  -0.267883
    8  C  1  Y    0.011242   1.702663   0.024362   0.001433   0.003158
    9  C  1  Z   -0.349462   0.016685  -0.285816   0.163490  -0.965866
   10  C  1 XX   -0.078868  -0.001130  -0.042500  -0.002035   0.012900
   11  C  1 YY    0.106945   0.002029  -0.000470  -0.017142  -0.001356
   12  C  1 ZZ   -0.038901  -0.000871   0.037253   0.015909  -0.072486
   13  C  1 XY   -0.003618   0.084260   0.000095   0.000988  -0.000023
   14  C  1 XZ    0.025248   0.000425   0.020312  -0.046267  -0.034907
   15  C  1 YZ    0.001658  -0.004528   0.000006  -0.000225   0.000081
   16  C  2  S   -0.019641  -0.001066   0.104849  -0.001897   0.022351
   17  C  2  S    0.004228   0.004389  -0.635222   0.033180  -1.135882
   18  C  2  X   -0.158876   0.006322  -0.178055  -1.061009   0.097695
   19  C  2  Y    0.006260   0.632941   0.012713   0.001690  -0.003544
   20  C  2  Z    0.185466   0.011133  -0.605713   0.169344   0.416627
   21  C  2  S    0.221444   0.004372   0.595035  -0.162982   2.745611
   22  C  2  X   -1.814865   0.017135  -0.196024   1.486960  -0.104830
   23  C  2  Y   -0.007763  -1.419017  -0.029010  -0.002863   0.012981
   24  C  2  Z   -0.335389  -0.034648   1.565601  -0.208706  -1.520438
   25  C  2 XX   -0.028298  -0.001371   0.165079   0.035638   0.022693
   26  C  2 YY    0.024570   0.001269  -0.113190   0.003725  -0.055612
   27  C  2 ZZ   -0.038977  -0.000833   0.012826  -0.040775  -0.077099
   28  C  2 XY   -0.000005   0.002660  -0.000662  -0.001183  -0.000147
   29  C  2 XZ   -0.000608   0.000048  -0.026030   0.146989  -0.004537
   30  C  2 YZ    0.000474  -0.011316  -0.001209  -0.000030   0.000617
   31  O  3  S   -0.027488   0.000672  -0.024298  -0.025084  -0.002036
   32  O  3  S    0.023764   0.000985   0.094363   0.110515  -0.005208
   33  O  3  X    0.024811   0.002545  -0.243681  -0.259856  -0.296832
   34  O  3  Y    0.002284   0.098721   0.004169   0.000875  -0.000236
   35  O  3  Z    0.127174   0.000794  -0.199191  -0.079852   0.174832
   36  O  3  S    1.040346  -0.014722  -0.200112  -0.497694  -0.280883
   37  O  3  X   -0.379884   0.005565   0.038989  -0.154250   0.304514
   38  O  3  Y    0.002859   0.201886   0.003285   0.000934  -0.002662
   39  O  3  Z   -0.131792   0.008654  -0.188592  -0.013955   0.140983
   40  O  3 XX    0.015522   0.001987  -0.134675  -0.091671  -0.077093
   41  O  3 YY   -0.008998   0.001421   0.031878   0.061361   0.040671
   42  O  3 ZZ    0.004827  -0.000531   0.055743   0.006645  -0.024195
   43  O  3 XY   -0.000486  -0.031022   0.000325   0.001145   0.000505
   44  O  3 XZ    0.003181  -0.000133  -0.023283  -0.088706  -0.025158
   45  O  3 YZ   -0.000186  -0.036896  -0.000526   0.000642   0.000702
   46  O  4  S    0.031227  -0.000251  -0.006055   0.024242  -0.008853
   47  O  4  S    0.117624   0.000657   0.079788  -0.147142  -0.003381
   48  O  4  X   -0.072471  -0.000618   0.151512  -0.215701   0.334071
   49  O  4  Y   -0.000214   0.170870   0.003628  -0.000289  -0.001408
   50  O  4  Z   -0.070285   0.004530  -0.305872   0.195332   0.153017
   51  O  4  S   -1.130250   0.015099  -0.719466   0.618193  -0.092458
   52  O  4  X   -0.187780   0.005952  -0.258338  -0.122155  -0.165127
   53  O  4  Y    0.000319   0.149143   0.002435  -0.000130  -0.001237
   54  O  4  Z    0.445299  -0.000936   0.033302   0.012293   0.080911
   55  O  4 XX    0.075093   0.001283  -0.099299   0.031036  -0.058059
   56  O  4 YY    0.070335   0.000394   0.039979  -0.078026   0.033282
   57  O  4 ZZ    0.026287  -0.000357   0.024627   0.040678  -0.036392
   58  O  4 XY    0.000342   0.020837   0.000061   0.000527   0.000050
   59  O  4 XZ   -0.026992  -0.000439   0.073436  -0.109098   0.039894
   60  O  4 YZ   -0.000265  -0.037101  -0.000596  -0.000721   0.000605
   61  H  5  S   -0.374362   0.002724  -0.201860   0.048301  -0.222611
   62  H  5  S   -0.643144   0.005806  -0.289086   0.060530  -0.098528
   63  H  6  S    0.245099  -0.254402  -0.028279  -0.033290  -0.362047
   64  H  6  S    0.379556  -0.387106   0.013701  -0.022062  -0.066597
   65  H  7  S    0.238511   0.255007  -0.021840  -0.031590  -0.367152
   66  H  7  S    0.367563   0.385334   0.019598  -0.019801  -0.064215

                     31         32         33         34         35
                    0.8896     0.9068     0.9173     0.9884     0.9963
                     A          A          A          A          A   
    1  C  1  S   -0.003042   0.000541   0.013749  -0.018001   0.040849
    2  C  1  S    0.030297   0.010886   0.205537   0.514984  -1.060986
    3  C  1  X    0.540207  -0.024578  -0.255531   0.438757   0.343058
    4  C  1  Y    0.010536   0.801943  -0.054832   0.003019   0.001616
    5  C  1  Z   -0.129889   0.008590   0.060952  -0.288787   0.303154
    6  C  1  S    0.026351  -0.022784  -0.512709  -0.962446   1.582471
    7  C  1  X   -0.870875   0.052987   0.642765  -0.137921  -0.451225
    8  C  1  Y   -0.013810  -1.133677   0.079311  -0.006632  -0.002640
    9  C  1  Z    0.253251  -0.006731  -0.001957   0.424991  -0.983138
   10  C  1 XX   -0.033527  -0.003833   0.006726  -0.139679  -0.063318
   11  C  1 YY    0.064942   0.001835  -0.005020   0.142881   0.086186
   12  C  1 ZZ   -0.025446   0.004212   0.037754   0.073171  -0.185610
   13  C  1 XY   -0.001572   0.169535  -0.010482  -0.005871  -0.002129
   14  C  1 XZ    0.134358  -0.004077  -0.070042   0.033222  -0.033067
   15  C  1 YZ    0.002311   0.098335  -0.007055   0.001907   0.002553
   16  C  2  S    0.026931   0.003229   0.054730  -0.000854  -0.017170
   17  C  2  S    0.352041   0.043092   0.689756   0.075008  -0.498363
   18  C  2  X   -0.141568   0.009587   0.111991   0.110106   0.073388
   19  C  2  Y    0.000734   0.071726  -0.005813   0.000454  -0.001047
   20  C  2  Z    0.096406   0.005639   0.092922  -0.081897   0.139693
   21  C  2  S   -0.184944  -0.010091  -0.031524  -0.326882   1.634957
   22  C  2  X   -0.013198  -0.012038  -0.233862  -0.787268  -0.487236
   23  C  2  Y   -0.001392  -0.032207   0.000955   0.000061   0.006915
   24  C  2  Z    0.060297   0.005835   0.043161   0.295786  -0.654808
   25  C  2 XX    0.089037   0.017728   0.290243  -0.002830   0.028186
   26  C  2 YY   -0.031150  -0.002505  -0.057564   0.001901   0.028893
   27  C  2 ZZ    0.082260   0.001156   0.034337  -0.001700  -0.127968
   28  C  2 XY    0.000367   0.001955  -0.001477  -0.001563  -0.000366
   29  C  2 XZ   -0.146343   0.005063   0.048289   0.124339   0.020493
   30  C  2 YZ   -0.001684  -0.079608   0.004425  -0.000327   0.001198
   31  O  3  S   -0.004223   0.000518   0.005377  -0.013561  -0.001677
   32  O  3  S    0.056177  -0.029429  -0.383590  -0.122458  -0.022765
   33  O  3  X    0.002873  -0.038184  -0.573957  -0.258052  -0.203867
   34  O  3  Y   -0.002286   0.254126  -0.013065  -0.000817   0.001822
   35  O  3  Z    0.192713  -0.010852  -0.204088  -0.174812  -0.050806
   36  O  3  S    0.005541   0.040123   0.544012   0.672617   0.035502
   37  O  3  X   -0.046630   0.069235   1.039434   0.284194   0.288466
   38  O  3  Y    0.002810  -0.218895   0.008816   0.002258  -0.002885
   39  O  3  Z   -0.176500   0.021532   0.362110   0.012678   0.158604
   40  O  3 XX    0.016245  -0.014644  -0.202664  -0.038371  -0.042831
   41  O  3 YY   -0.006332  -0.011548  -0.156024  -0.084394   0.019547
   42  O  3 ZZ    0.023588  -0.010869  -0.155875  -0.068933  -0.032228
   43  O  3 XY    0.000068   0.003597  -0.000044   0.000256   0.000099
   44  O  3 XZ    0.001975  -0.000815  -0.008167  -0.033429   0.008719
   45  O  3 YZ   -0.000526   0.012521  -0.000696  -0.000208   0.000537
   46  O  4  S    0.010037   0.000247   0.005838   0.015848   0.014776
   47  O  4  S   -0.430448  -0.001266  -0.052965   0.232673   0.154747
   48  O  4  X    0.415640   0.010692   0.203319  -0.347756  -0.039904
   49  O  4  Y    0.004482  -0.082432   0.003210   0.000825   0.000589
   50  O  4  Z   -0.273675   0.000788  -0.072539   0.254394   0.115499
   51  O  4  S    0.501506  -0.005907  -0.106430  -0.801972  -0.702193
   52  O  4  X   -0.718197  -0.019598  -0.411021   0.472323   0.066439
   53  O  4  Y   -0.004770   0.115727  -0.006467  -0.001720  -0.002501
   54  O  4  Z    0.516249   0.010062   0.295966  -0.208786   0.128508
   55  O  4 XX   -0.185434  -0.002442  -0.060780   0.099126   0.020150
   56  O  4 YY   -0.151687  -0.001826  -0.039539   0.108604   0.105778
   57  O  4 ZZ   -0.161406  -0.001069  -0.033209   0.123686   0.076022
   58  O  4 XY   -0.000115  -0.015732   0.000987   0.000214   0.000456
   59  O  4 XZ    0.031899   0.000060   0.000791  -0.005421  -0.004354
   60  O  4 YZ    0.000173  -0.014483   0.000662   0.000004   0.000453
   61  H  5  S   -0.543557   0.013151   0.272488  -0.808767   0.209321
   62  H  5  S    1.115159  -0.027968  -0.485452   1.205429  -0.484220
   63  H  6  S    0.236101  -0.692518   0.036144   0.067440   0.619116
   64  H  6  S   -0.507337   1.337167   0.319929   0.061674  -1.193229
   65  H  7  S    0.242955   0.688437  -0.053008   0.056463   0.616119
   66  H  7  S   -0.515280  -1.289317   0.489031   0.071121  -1.196748

                     36         37         38         39         40
                    1.0281     1.1137     1.1219     1.1399     1.2184
                     A          A          A          A          A   
    1  C  1  S    0.000033  -0.007573  -0.001845  -0.031073  -0.109413
    2  C  1  S   -0.001288  -0.046140  -0.034843  -0.758774  -1.580410
    3  C  1  X   -0.008628  -0.060241  -0.006595  -0.143473  -0.033177
    4  C  1  Y    0.249311   0.002594  -0.035479  -0.008408  -0.000122
    5  C  1  Z    0.003439  -0.055417   0.004809   0.196514  -0.116616
    6  C  1  S    0.002182  -0.132247   0.147571   3.568815   4.411203
    7  C  1  X    0.022758   0.086313   0.034843   0.896913   0.073211
    8  C  1  Y   -0.534714  -0.002414  -0.349611   0.033649   0.000390
    9  C  1  Z   -0.008647  -0.009033   0.023946   0.548610   0.478456
   10  C  1 XX   -0.000909  -0.061743  -0.001378  -0.069160  -0.079061
   11  C  1 YY    0.000473   0.067910  -0.006169  -0.088294  -0.119978
   12  C  1 ZZ    0.000265  -0.027643   0.003755   0.099110  -0.048759
   13  C  1 XY    0.061103  -0.001665  -0.058440  -0.000570   0.000368
   14  C  1 XZ   -0.000560  -0.001267  -0.000296   0.013994  -0.005887
   15  C  1 YZ    0.013817   0.000404   0.065092  -0.002670  -0.001116
   16  C  2  S   -0.000053   0.000842   0.000620   0.014767   0.006846
   17  C  2  S   -0.000789   0.003484   0.022270   0.493748   0.334211
   18  C  2  X    0.000921  -0.092938  -0.002179  -0.034423   0.063532
   19  C  2  Y    0.014595   0.001790  -0.225562   0.010618   0.001019
   20  C  2  Z    0.000037   0.082105  -0.010832  -0.301911   0.138211
   21  C  2  S    0.001655   0.183396  -0.133638  -3.080456  -3.177484
   22  C  2  X   -0.008572   0.313833   0.003958  -0.019896   0.061229
   23  C  2  Y    0.040599  -0.007803   1.125668  -0.059842  -0.007246
   24  C  2  Z    0.001015  -0.383312   0.080143   2.143292  -0.137083
   25  C  2 XX   -0.000327   0.002545  -0.004003  -0.130948   0.034163
   26  C  2 YY    0.000392   0.005759  -0.001594  -0.037282  -0.051172
   27  C  2 ZZ   -0.000250  -0.006591   0.005914   0.176082  -0.035318
   28  C  2 XY   -0.080524   0.000783  -0.008605  -0.000259  -0.000308
   29  C  2 XZ    0.000061  -0.135485   0.000878   0.058016   0.027465
   30  C  2 YZ    0.003651   0.000622   0.006082  -0.002955   0.000172
   31  O  3  S    0.000006   0.000641  -0.000883  -0.020499  -0.019349
   32  O  3  S   -0.000697  -0.007219  -0.015032  -0.351126  -0.316536
   33  O  3  X   -0.002415   0.254514   0.002785  -0.059150   0.092805
   34  O  3  Y   -0.663501  -0.002449   0.630726  -0.024228  -0.003395
   35  O  3  Z   -0.004342  -0.703917   0.006459   0.311598  -0.198183
   36  O  3  S    0.004083  -0.102279   0.048695   1.090256   1.276673
   37  O  3  X    0.002901  -0.413595  -0.016125  -0.183693  -0.419081
   38  O  3  Y    0.786494   0.004217  -1.024779   0.044591   0.006918
   39  O  3  Z    0.005288   1.038781  -0.026125  -0.900496   0.278442
   40  O  3 XX   -0.000082  -0.058187  -0.003592  -0.066360  -0.052716
   41  O  3 YY   -0.000477   0.022393  -0.007129  -0.172458  -0.226750
   42  O  3 ZZ    0.000058   0.046667  -0.002621  -0.067615   0.002088
   43  O  3 XY    0.033258  -0.000030  -0.037293   0.001744  -0.000317
   44  O  3 XZ    0.000282   0.087333  -0.000750  -0.044782   0.010605
   45  O  3 YZ    0.003600   0.000008  -0.029436   0.000048  -0.001193
   46  O  4  S    0.000019   0.005705  -0.000596  -0.013398  -0.028756
   47  O  4  S    0.000980   0.114603  -0.012775  -0.314020  -0.479255
   48  O  4  X    0.000747   0.332309   0.010090   0.224475  -0.267467
   49  O  4  Y    0.645787  -0.009412   0.679750  -0.027652  -0.002532
   50  O  4  Z    0.004899   0.348498   0.026288   0.575847  -0.236872
   51  O  4  S   -0.005007  -0.087896   0.034171   0.684695   1.711717
   52  O  4  X   -0.000678  -0.555450  -0.010776  -0.250644   0.782394
   53  O  4  Y   -0.770190   0.013503  -1.088097   0.048002   0.005115
   54  O  4  Z   -0.005823  -0.357182  -0.052449  -1.236142   0.176390
   55  O  4 XX    0.000461   0.104265   0.000146  -0.000866  -0.142486
   56  O  4 YY    0.000443   0.004092  -0.006095  -0.136030  -0.265873
   57  O  4 ZZ    0.000109  -0.024291  -0.004685  -0.111997  -0.003922
   58  O  4 XY    0.034352  -0.000568   0.030947  -0.002232  -0.000535
   59  O  4 XZ    0.000199   0.018760   0.001817   0.050022   0.015931
   60  O  4 YZ   -0.003286   0.000610  -0.042794   0.000978  -0.001332
   61  H  5  S    0.002880  -0.156917  -0.008004  -0.147688  -0.381856
   62  H  5  S   -0.015228   0.179072  -0.032283  -0.901807  -0.657666
   63  H  6  S   -0.155825   0.017093   0.092715  -0.035827  -0.416671
   64  H  6  S    0.513893  -0.032366   0.004102  -0.163922  -0.571172
   65  H  7  S    0.154282   0.016702  -0.103017  -0.034652  -0.416743
   66  H  7  S   -0.502100  -0.037086  -0.014906  -0.133542  -0.567187

                     41         42         43         44         45
                    1.4632     1.5300     1.5991     1.6812     1.8174
                     A          A          A          A          A   
    1  C  1  S   -0.000761   0.000340   0.068722   0.005980   0.062857
    2  C  1  S   -0.010170   0.004321   0.845370  -0.018252   0.020987
    3  C  1  X   -0.000232  -0.001329  -0.037962   0.091921  -0.014689
    4  C  1  Y    0.087588   0.008771  -0.000922  -0.000091   0.003546
    5  C  1  Z   -0.000086   0.000617   0.043436  -0.054293  -0.289581
    6  C  1  S    0.043532  -0.017431  -3.372423  -0.207120  -1.866164
    7  C  1  X    0.002787   0.008009   0.213162   0.144632  -0.134257
    8  C  1  Y    0.046417  -0.187928   0.017442   0.001646  -0.007355
    9  C  1  Z    0.013305  -0.007598  -0.927780  -0.118518  -0.494972
   10  C  1 XX   -0.010352   0.003289   0.121084  -0.413701  -0.079262
   11  C  1 YY    0.014700  -0.003958  -0.076495   0.236697  -0.197739
   12  C  1 ZZ   -0.005535   0.001170   0.035412   0.175180   0.291757
   13  C  1 XY    0.211001   0.022413   0.002696  -0.009500   0.003463
   14  C  1 XZ    0.002180   0.000256   0.051377  -0.342240   0.232359
   15  C  1 YZ   -0.511678   0.113896  -0.007441   0.003122  -0.007680
   16  C  2  S    0.000781  -0.000289  -0.049154  -0.001304  -0.008356
   17  C  2  S    0.007997  -0.002783  -0.495163  -0.090066  -0.662184
   18  C  2  X   -0.000367  -0.000008  -0.023805   0.109209  -0.051827
   19  C  2  Y   -0.087799   0.018175  -0.001733  -0.000368  -0.001613
   20  C  2  Z   -0.002580   0.000631   0.071529   0.001879   0.221255
   21  C  2  S    0.003450  -0.004735  -1.794575  -0.336436   2.614315
   22  C  2  X    0.008685  -0.002935  -0.776830  -2.120911  -0.888383
   23  C  2  Y    0.209037   0.016053   0.022402   0.006150   0.013736
   24  C  2  Z    0.038751  -0.014644  -3.025669  -0.137678  -1.182219
   25  C  2 XX    0.001830   0.001988  -0.173452  -0.049897  -0.111523
   26  C  2 YY   -0.007781   0.000822   0.075543  -0.016542  -0.344710
   27  C  2 ZZ    0.006564  -0.002950   0.099837   0.077909   0.508036
   28  C  2 XY    0.234069   0.539804   0.000677   0.001255  -0.000457
   29  C  2 XZ    0.003188   0.003675   0.007293   0.049017  -0.073426
   30  C  2 YZ    0.547733  -0.243998   0.007346  -0.000622  -0.009154
   31  O  3  S    0.000770  -0.000252  -0.073809  -0.047433  -0.007494
   32  O  3  S    0.011636  -0.002600  -1.157058  -1.125444   0.155171
   33  O  3  X   -0.002436  -0.000344   0.124101   0.267324  -0.146695
   34  O  3  Y   -0.004881  -0.117311   0.000846  -0.002602   0.001794
   35  O  3  Z    0.002085  -0.002491  -0.122864   0.134398  -0.126650
   36  O  3  S   -0.036369   0.011261   3.807513   3.301921  -0.082168
   37  O  3  X    0.013180  -0.004085  -1.360070  -0.994863   0.157569
   38  O  3  Y   -0.203431  -0.038211   0.000457   0.007006  -0.003432
   39  O  3  Z   -0.007501   0.003502   0.322816  -0.489638   0.276688
   40  O  3 XX    0.003172  -0.002375  -0.431439  -0.351250   0.075579
   41  O  3 YY    0.003005   0.003218  -0.266539  -0.044299  -0.362340
   42  O  3 ZZ    0.003492  -0.003126  -0.151381  -0.336501   0.341695
   43  O  3 XY   -0.271953  -0.283255  -0.001328   0.000038   0.001765
   44  O  3 XZ   -0.002318  -0.002500  -0.007450  -0.134749  -0.253812
   45  O  3 YZ    0.083173  -0.251737   0.000627   0.002251  -0.008357
[...]
   50  O  4  Z   -0.136589   0.194873   0.115698  -0.057783  -0.215732
   51  O  4  S    1.437994  -0.371330   4.471497   2.803610  -5.460312
   52  O  4  X    0.873793  -0.064355   1.020015   0.686210  -0.744405
   53  O  4  Y    0.001495  -0.004175  -0.000574   0.003021  -0.006195
   54  O  4  Z   -0.446183   0.546092  -0.239807  -0.515380   1.035626
   55  O  4 XX    0.833824   0.261219  -1.129186  -0.443645   1.225651
   56  O  4 YY   -0.336339   0.209483  -1.318306  -0.681994   1.287456
   57  O  4 ZZ   -0.231218  -0.486062  -1.426110  -0.508261   1.099305
   58  O  4 XY    0.002300  -0.004956  -0.000195   0.001259  -0.000470
   59  O  4 XZ   -0.637129   0.631250  -0.042064  -0.250139   0.092682
   60  O  4 YZ   -0.000043   0.004481   0.001169  -0.001248   0.001524
   61  H  5  S    0.123108   0.084070   0.088454   0.133199   0.001214
   62  H  5  S   -0.068035   0.104215  -0.131496  -0.296225  -0.398527
   63  H  6  S   -0.045863   0.060475   0.033754   0.124947   0.031787
   64  H  6  S    0.035750  -0.043163   0.090050  -0.417389  -0.101688
   65  H  7  S   -0.043053   0.060064   0.031242   0.125470   0.030677
   66  H  7  S    0.034347  -0.047974   0.098369  -0.416183  -0.105612

                     66
                    4.4936
                     A   
    1  C  1  S   -0.331545
    2  C  1  S    1.753246
    3  C  1  X   -0.009858
    4  C  1  Y    0.001151
    5  C  1  Z   -0.132411
    6  C  1  S    2.646090
    7  C  1  X    0.078684
    8  C  1  Y   -0.004406
    9  C  1  Z    0.392845
   10  C  1 XX   -1.185035
   11  C  1 YY   -1.209279
   12  C  1 ZZ   -1.464721
   13  C  1 XY    0.000314
   14  C  1 XZ   -0.036499
   15  C  1 YZ    0.002003
   16  C  2  S    0.389099
   17  C  2  S   -1.891130
   18  C  2  X    0.010868
   19  C  2  Y   -0.001428
   20  C  2  Z    0.159960
   21  C  2  S   -0.205942
   22  C  2  X   -0.108301
   23  C  2  Y   -0.009085
   24  C  2  Z    1.326796
   25  C  2 XX    1.787570
   26  C  2 YY    1.205924
   27  C  2 ZZ    1.659617
   28  C  2 XY   -0.001650
   29  C  2 XZ   -0.006475
   30  C  2 YZ   -0.003773
   31  O  3  S    0.055325
   32  O  3  S    0.113525
   33  O  3  X    0.164319
   34  O  3  Y   -0.001177
   35  O  3  Z    0.080848
   36  O  3  S   -1.058111
   37  O  3  X    0.667321
   38  O  3  Y   -0.000935
   39  O  3  Z   -0.079771
   40  O  3 XX   -0.227382
   41  O  3 YY    0.287433
   42  O  3 ZZ    0.190495
   43  O  3 XY    0.002398
   44  O  3 XZ   -0.102753
   45  O  3 YZ    0.000802
   46  O  4  S    0.113678
   47  O  4  S    0.234535
   48  O  4  X   -0.107154
   49  O  4  Y   -0.000534
   50  O  4  Z    0.095944
   51  O  4  S   -2.006351
   52  O  4  X   -0.799492
   53  O  4  Y   -0.000313
   54  O  4  Z    0.333852
   55  O  4 XX    0.053444
   56  O  4 YY    0.497571
   57  O  4 ZZ    0.252435
   58  O  4 XY   -0.000722
   59  O  4 XZ    0.251813
   60  O  4 YZ    0.001214
   61  H  5  S    0.011744
   62  H  5  S   -0.322267
   63  H  6  S    0.008615
   64  H  6  S   -0.347334
   65  H  7  S    0.008527
   66  H  7  S   -0.349396
 ...... END OF RHF CALCULATION ......
 STEP CPU TIME =    11.87 TOTAL CPU TIME =       12.0 (    0.2 MIN)
 TOTAL WALL CLOCK TIME=       12.0 SECONDS, CPU UTILIZATION IS  99.92%

     ---------------------------------------------------------------------
     PROPERTIES FOR THE B3LYP    DFT FUNCTIONAL (RHF  TYPE) DENSITY MATRIX
     ---------------------------------------------------------------------

          ---------------------------------------
          MULLIKEN AND LOWDIN POPULATION ANALYSES
          ---------------------------------------

     ATOMIC MULLIKEN POPULATION IN EACH MOLECULAR ORBITAL

                      1          2          3          4          5

                  2.000000   2.000000   2.000000   2.000000   2.000000

    1            -0.000008  -0.000020   0.001023   1.997335   0.017726
    2            -0.001126  -0.001020   2.001035   0.000970   0.536386
    3             2.001132   0.000007  -0.001057  -0.000001   0.735907
    4             0.000006   2.001033  -0.001017   0.000012   0.707519
    5            -0.000004  -0.000000   0.000003   0.000551   0.000553
    6             0.000000  -0.000000   0.000007   0.000566   0.000950
    7             0.000000  -0.000000   0.000007   0.000567   0.000958

                      6          7          8          9         10

                  2.000000   2.000000   2.000000   2.000000   2.000000

    1             0.008324   1.223445   0.453507   0.736363   0.741064
    2             0.377427   0.225520   0.491696   0.385651   0.126403
    3             0.797179   0.043941   0.436436   0.155448   0.272434
    4             0.816805   0.049577   0.430109   0.169938   0.298936
    5            -0.000003   0.142723   0.072022   0.000077   0.362199
    6             0.000138   0.157164   0.058405   0.271169   0.104440
    7             0.000131   0.157630   0.057825   0.281355   0.094524

                     11         12         13         14         15

                  2.000000   2.000000   2.000000   2.000000   2.000000

    1             0.294226   0.295784   0.332886   0.003198   0.418770
    2             0.446311   0.238283   0.434815   0.031420   0.147683
    3             0.650214   0.524282   0.461576   0.957064   0.650910
    4             0.554292   0.588857   0.408713   1.006545   0.726312
    5             0.022652   0.236242   0.000048   0.000002   0.028120
    6             0.016160   0.061217   0.177989   0.000920   0.014242
    7             0.016147   0.055334   0.183973   0.000852   0.013962

                     16

                  2.000000

    1             0.019101
    2             0.071536
    3             0.972498
    4             0.903121
    5             0.020289
    6             0.007029
    7             0.006425

               ----- POPULATIONS IN EACH AO -----
                             MULLIKEN      LOWDIN
              1  C  1  S      1.99190     1.97890
              2  C  1  S      0.68125     0.37283
              3  C  1  X      0.71323     0.63821
              4  C  1  Y      0.70168     0.62915
              5  C  1  Z      0.71567     0.65274
              6  C  1  S      0.64274     0.33950
              7  C  1  X      0.34966     0.48196
              8  C  1  Y      0.35851     0.49431
              9  C  1  Z      0.36102     0.43981
             10  C  1 XX      0.00259     0.15278
             11  C  1 YY      0.00578     0.16017
             12  C  1 ZZ     -0.00230     0.14972
             13  C  1 XY      0.00858     0.01543
             14  C  1 XZ      0.00873     0.01634
             15  C  1 YZ      0.00367     0.00715
             16  C  2  S      1.99210     1.96884
             17  C  2  S      0.71614     0.34931
             18  C  2  X      0.73567     0.63232
             19  C  2  Y      0.50167     0.44125
             20  C  2  Z      0.69775     0.60360
             21  C  2  S      0.29121     0.26443
             22  C  2  X      0.03464     0.27804
             23  C  2  Y      0.31275     0.36533
             24  C  2  Z      0.15123     0.31536
             25  C  2 XX      0.02401     0.24615
             26  C  2 YY     -0.03050     0.09080
             27  C  2 ZZ      0.00571     0.17890
             28  C  2 XY      0.03090     0.07084
             29  C  2 XZ      0.04313     0.09659
             30  C  2 YZ      0.00657     0.01298
             31  O  3  S      1.99245     1.97619
             32  O  3  S      0.88068     0.70053
             33  O  3  X      0.91664     0.85396
             34  O  3  Y      0.90331     0.86351
             35  O  3  Z      1.08960     1.05199
             36  O  3  S      1.01603     0.49019
             37  O  3  X      0.51096     0.57883
             38  O  3  Y      0.66305     0.68134
             39  O  3  Z      0.70145     0.73237
             40  O  3 XX     -0.00305     0.19075
             41  O  3 YY     -0.01167     0.17236
             42  O  3 ZZ     -0.01519     0.16969
             43  O  3 XY      0.00703     0.01105
             44  O  3 XZ      0.00597     0.01282
             45  O  3 YZ      0.00070     0.00089
             46  O  4  S      1.99249     1.97617
             47  O  4  S      0.87790     0.69904
             48  O  4  X      0.95990     0.90271
             49  O  4  Y      0.91223     0.87237
             50  O  4  Z      1.03813     0.99532
             51  O  4  S      1.02055     0.49152
             52  O  4  X      0.56239     0.62410
             53  O  4  Y      0.66532     0.68769
             54  O  4  Z      0.64966     0.69257
             55  O  4 XX     -0.00771     0.18352
             56  O  4 YY     -0.01244     0.17229
             57  O  4 ZZ     -0.01262     0.17458
             58  O  4 XY      0.00517     0.00830
             59  O  4 XZ      0.00729     0.01453
             60  O  4 YZ      0.00249     0.00355
             61  H  5  S      0.53095     0.49328
             62  H  5  S      0.35453     0.37168
             63  H  6  S      0.52728     0.48856
             64  H  6  S      0.34311     0.36491
             65  H  7  S      0.52713     0.48841
             66  H  7  S      0.34256     0.36465

          ----- MULLIKEN ATOMIC OVERLAP POPULATIONS -----
          (OFF-DIAGONAL ELEMENTS NEED TO BE MULTIPLIED BY 2)

             1           2           3           4           5

    1    5.5765066
    2    0.2784606   4.2388241
    3   -0.1504721   0.5437599   8.3417850
    4   -0.1606158   0.4991377  -0.0944917   8.4011343
    5    0.3113835  -0.0141753   0.0124426   0.0056919   0.6266288
    6    0.3431863  -0.0165049   0.0025315   0.0050919  -0.0282963
    7    0.3442746  -0.0165096   0.0024116   0.0048086  -0.0281999

             6           7

    6    0.5929582
    7   -0.0285708   0.5914739

          TOTAL MULLIKEN AND LOWDIN ATOMIC POPULATIONS
       ATOM         MULL.POP.    CHARGE          LOW.POP.     CHARGE
    1 C             6.542724   -0.542724         6.529009   -0.529009
    2 C             5.512993    0.487007         5.914748    0.085252
    3 O             8.657967   -0.657967         8.486488   -0.486488
    4 O             8.660757   -0.660757         8.498265   -0.498265
    5 H             0.885475    0.114525         0.864964    0.135036
    6 H             0.870396    0.129604         0.853476    0.146524
    7 H             0.869688    0.130312         0.853051    0.146949

          -------------------------------
          BOND ORDER AND VALENCE ANALYSIS     BOND ORDER THRESHOLD=0.050
          -------------------------------

                   BOND                       BOND                       BOND
  ATOM PAIR DIST  ORDER      ATOM PAIR DIST  ORDER      ATOM PAIR DIST  ORDER
    1   2  1.554  0.916        1   5  1.086  0.952        1   6  1.089  0.952
    1   7  1.089  0.952        2   3  1.233  1.686        2   4  1.235  1.650
    3   4  2.233  0.093

                       TOTAL       BONDED        FREE
      ATOM            VALENCE     VALENCE     VALENCE
    1 C                 3.755       3.755       0.000
    2 C                 4.234       4.234       0.000
    3 O                 1.805       1.805       0.000
    4 O                 1.761       1.761       0.000
    5 H                 0.947       0.947       0.000
    6 H                 0.942       0.942       0.000
    7 H                 0.941       0.941       0.000

    **** A SOLVENT MODEL IS IN USE IN THIS RUN ****
 ELECTRICAL PROPERTIES (MOMENTS, DENSITY, FIELD/GRADIENT, AND/OR POTENTIAL)
 ARE COMPUTED USING THE SOLVATED SYSTEM'S DENSITY MATRIX, BUT
 ONLY WITH AO INTEGRAL CONTRIBUTIONS FROM THE QUANTUM SOLUTE.
 THE ONE EXCEPTION IS THE DIPOLE, WHICH IS ALSO PRINTED FOR THE TOTAL SYSTEM.

          ----------------------------
          SOLUTE ELECTROSTATIC MOMENTS
          ----------------------------

 POINT   1           X           Y           Z (BOHR)    CHARGE
                 0.069107    0.006982    0.041715       -1.00 (A.U.)
         DX          DY          DZ         /D/  (DEBYE)
    -0.616149    0.020165   -3.514201    3.567865

          ----------------------------
          SYSTEM ELECTROSTATIC MOMENTS
          ----------------------------

 POINT   1           X           Y           Z (BOHR)    CHARGE
                 0.069107    0.006982    0.041715       -1.00 (A.U.)
         DX          DY          DZ         /D/  (DEBYE)
    -0.616149    0.020165   -3.514201    3.567865
 INCLUDING PCM SURFACE CHARGES, TOTAL CHARGE=   -0.030306, AND TOTAL DIPOLE IS
         DX          DY          DZ         /D/  (DEBYE)
    -0.033456   -0.000311    0.080589    0.087258
 ...... END OF PROPERTY EVALUATION ......
 STEP CPU TIME =     0.00 TOTAL CPU TIME =       12.0 (    0.2 MIN)
 TOTAL WALL CLOCK TIME=       12.0 SECONDS, CPU UTILIZATION IS  99.92%

 .... DONE WITH PCM CONTRIBUTION TO GRADIENT ....
 STEP CPU TIME =     0.07 TOTAL CPU TIME =       12.1 (    0.2 MIN)
 TOTAL WALL CLOCK TIME=       12.1 SECONDS, CPU UTILIZATION IS  99.92%

 BEGINNING ONE ELECTRON GRADIENT...
 ..... END OF 1-ELECTRON GRADIENT ......
 STEP CPU TIME =     0.01 TOTAL CPU TIME =       12.1 (    0.2 MIN)
 TOTAL WALL CLOCK TIME=       12.1 SECONDS, CPU UTILIZATION IS  99.92%

          ----------------------
          GRADIENT OF THE ENERGY
          ----------------------
 MEMORY FOR GRID POINT CONTRIBUTIONS TO THE DFT GRADIENT=    277601 WORDS.
 STEP CPU TIME =     1.91 TOTAL CPU TIME =       14.0 (    0.2 MIN)
 TOTAL WALL CLOCK TIME=       14.0 SECONDS, CPU UTILIZATION IS  99.86%

 THE MINIMUM MEMORY REQUIRED FOR THIS RUN IS      95576 WORDS.
 USING    1071096 WORDS FOR 2E- DERIVATIVE INTEGRAL CONTRIBUTIONS.
 THE COARSE/FINE SCHWARZ SCREENINGS SKIPPED         1885/        3206 BLOCKS.
 THE NUMBER OF GRADIENT INTEGRAL BLOCKS COMPUTED WAS     26715
 ...... END OF 2-ELECTRON GRADIENT ......
 STEP CPU TIME =     0.45 TOTAL CPU TIME =       14.5 (    0.2 MIN)
 TOTAL WALL CLOCK TIME=       14.5 SECONDS, CPU UTILIZATION IS  99.93%

                         ----------------------
                         GRADIENT OF THE ENERGY
                         ----------------------

 UNITS ARE HARTREE/BOHR    E'X               E'Y               E'Z 
    1 C               -0.000477143       0.000284967      -0.002617186
    2 C                0.006046765      -0.000450919       0.039245775
    3 O               -0.038161451       0.000382535      -0.018931579
    4 O                0.029956302       0.000007586      -0.027090164
    5 H               -0.005310236      -0.000259459       0.004697307
    6 H                0.004113777      -0.005683205       0.002237795
    7 H                0.003831987       0.005718496       0.002458052

                   MAXIMUM GRADIENT =    0.039245775
                       RMS GRADIENT =    0.015718124


                     --------------------
                     INTERNAL COORDINATES
                     --------------------

                 - - ATOMS - -         COORDINATE        GRADIENT
 NO.   TYPE    I  J  K  L  M  N         (ANG,DEG)     (H/B,H/RAD)
 ----------------------------------------------------------------
   1 SYM.CRD.                           0.0237044      -0.0020803
   2 SYM.CRD.                           1.3394155      -0.0198047
   3 SYM.CRD.                          -0.3281895      -0.0000778
   4 SYM.CRD.                           0.0039647       0.0012221
   5 SYM.CRD.                          -0.2598039       0.0235694
   6 SYM.CRD.                          -2.6705657       0.0394628
   7 SYM.CRD.                          -0.4266342       0.0000061
   8 SYM.CRD.                          -0.2498170      -0.0003903
   9 SYM.CRD.                          -0.6941623      -0.0002217
  10 SYM.CRD.                           0.0730337       0.0294622
  11 SYM.CRD.                          -0.7988855       0.0000775
  12 SYM.CRD.                           0.1232327      -0.0003288
  13 SYM.CRD.                          -0.0805128      -0.0188002
  14 SYM.CRD.                          -0.3208482      -0.0001779
  15 SYM.CRD.                           0.1873266       0.0001622

                   MAXIMUM GRADIENT =    0.039462832
                       RMS GRADIENT =    0.015774927
  $VIB   
          IVIB=   0 IATOM=   0 ICOORD=   0 E=     -228.4798675471
 -4.771430091E-04 2.849668867E-04-2.617186054E-03 6.046764530E-03-4.509190280E-04
  3.924577484E-02-3.816145127E-02 3.825346567E-04-1.893157881E-02 2.995630187E-02
  7.585716425E-06-2.709016376E-02-5.310236056E-03-2.594593897E-04 4.697306509E-03
  4.113776664E-03-5.683205309E-03 2.237795273E-03 3.831987275E-03 5.718496467E-03
  2.458052001E-03
 -6.161489345E-01 2.016484162E-02-3.514201480E+00

..... END OF SINGLE POINT GRADIENT .....
 STEP CPU TIME =     0.00 TOTAL CPU TIME =       14.5 (    0.2 MIN)
 TOTAL WALL CLOCK TIME=       14.5 SECONDS, CPU UTILIZATION IS  99.93%

             ----------------------------------------------
             -------   RESULTS OF PCM CALCULATION   -------
             ----------------------------------------------

 FREE ENERGY IN SOLVENT = <PSI| H(0)+V/2 |PSI>       =     -228.4798675471 A.U.
 INTERNAL ENERGY IN SOLVENT = <PSI| H(0) |PSI>       =     -228.3749161751 A.U.
 DELTA INTERNAL ENERGY =  <D-PSI| H(0) |D-PSI>       =        0.0000000000 A.U.
 ELECTROSTATIC INTERACTION                           =       -0.1049513720 A.U.
 PIEROTTI CAVITATION ENERGY                          =        0.0000000000 A.U.
 DISPERSION FREE ENERGY                              =        0.0000000000 A.U.
 REPULSION FREE ENERGY                               =        0.0000000000 A.U.
 TOTAL INTERACTION (DELTA + ES + CAV + DISP + REP)   =       -0.1049513720 A.U.
 TOTAL FREE ENERGY IN SOLVENT                        =     -228.4798675471 A.U.

 FREE ENERGY IN SOLVENT       =     -143373.30 KCAL/MOL
 INTERNAL ENERGY IN SOLVENT   =     -143307.44 KCAL/MOL
 DELTA INTERNAL ENERGY        =           0.00 KCAL/MOL
 ELECTROSTATIC INTERACTION    =         -65.86 KCAL/MOL
 PIEROTTI CAVITATION ENERGY   =           0.00 KCAL/MOL
 DISPERSION FREE ENERGY       =           0.00 KCAL/MOL
 REPULSION FREE ENERGY        =           0.00 KCAL/MOL
 TOTAL INTERACTION            =         -65.86 KCAL/MOL
 TOTAL FREE ENERGY IN SOLVENT =     -143373.30 KCAL/MOL

 -INTERNAL ENERGY IN SOLVENT-
    OMITS ES,CAV,DISP,REP (USES SOLVATED ORBITALS IN THE GAS PHASE HAMILTONIAN)
 -FREE ENERGY IN SOLVENT-
    INCLUDES ES+DISP+REP WHICH ARE IN THE SELF-CONSISTENT WAVEFUNCTION.
 -TOTAL FREE ENERGY IN SOLVENT-
    INCLUDES ES+DISP+REP+CAV, MEANING CAVITATION IS NOT IN THE SCF ENERGY.

 .... DONE PRINTING PCM SOLVENT SUMMARY ....
 STEP CPU TIME =     0.00 TOTAL CPU TIME =       14.5 (    0.2 MIN)
 TOTAL WALL CLOCK TIME=       14.5 SECONDS, CPU UTILIZATION IS  99.93%
              1108423  WORDS OF DYNAMIC MEMORY USED
 EXECUTION OF GAMESS TERMINATED NORMALLY Wed Aug  9 19:57:56 2017
 DDI: 263640 bytes (0.3 MB / 0 MWords) used by master data server.

 ----------------------------------------
 CPU timing information for all processes
 ========================================
 0: 14.415 + 0.75 = 14.491
 ----------------------------------------
 ddikick.x: exited gracefully.
unset echo
----- accounting info -----
Files used on the master node compute-0-1.local were:
-rw-rw-r-- 1 sarom sarom 1.2K Aug  9 19:57 /scratch/pcm-acetate-es.F05
-rw-rw-r-- 1 sarom sarom  27M Aug  9 19:57 /scratch/pcm-acetate-es.F08
-rw-rw-r-- 1 sarom sarom 2.2M Aug  9 19:57 /scratch/pcm-acetate-es.F10
-rw-rw-r-- 1 sarom sarom 2.0M Aug  9 19:57 /scratch/pcm-acetate-es.F22
-rw-rw-r-- 1 sarom sarom    8 Aug  9 19:57 /scratch/pcm-acetate-es.F26
-rw-rw-r-- 1 sarom sarom    0 Aug  9 19:57 /scratch/pcm-acetate-es.F27
rm: No match.
ls: No match.
ls: No match.
ls: No match.
Wed Aug  9 19:57:59 CDT 2017
0.254u 0.193s 0:18.00 2.4%	0+0k 8+360io 0pf+0w
/opt/gridengine/default/spool/compute-0-1/active_jobs/35727.1/pe_hostfile compute-0-1.local
